Title
81312
    1CHL1    C3    1   3.860   3.407  10.512 -0.0250 -0.1798  0.2859
    1CHL1    H3    2   3.825   3.507  10.477 -0.7740 -0.6730 -0.4104
    1CHL1    O3    3   3.840   3.405  10.654  0.4247 -0.4053  0.3989
    1CHL1   H3'    4   3.861   3.317  10.685  2.3299  0.3349  1.4062
    1CHL1    C4    5   3.781   3.312  10.426  0.2768 -0.0522 -0.0365
    1CHL1   H4A    6   3.814   3.211  10.455  0.8742  0.2008  0.1736
    1CHL1   H4B    7   3.675   3.334  10.453  0.7695  2.9603 -0.1674
    1CHL1    C5    8   3.805   3.334  10.276  0.9472  0.8038  0.5449
    1CHL1    C6    9   3.700   3.357  10.192  0.1963 -0.4682  0.3681
    1CHL1    H6   10   3.594   3.355  10.223  0.0409  1.2897  0.1021
    1CHL1    C7   11   3.736   3.369  10.048 -0.3126 -0.4414 -0.4418
    1CHL1   H7A   12   3.676   3.291   9.996 -0.3423 -1.9417  1.7163
    1CHL1   H7B   13   3.705   3.469  10.013 -1.8215  0.0304  2.0485
    1CHL1    C8   14   3.879   3.320   9.998 -0.1827  0.2055  0.2746
    1CHL1    H8   15   3.874   3.209   9.997  0.0936  0.1911 -0.3054
    1CHL1   C14   16   3.904   3.386   9.865 -0.3120  0.8127 -0.0458
    1CHL1   H14   17   3.900   3.496   9.882  1.0286  0.8304  0.2463
    1CHL1   C15   18   3.791   3.364   9.760 -0.5213  1.1200  0.0413
    1CHL1  H15A   19   3.775   3.254   9.759  2.7858  0.5384 -0.2181
    1CHL1  H15B   20   3.702   3.427   9.785 -1.1627  0.5793 -0.8470
    1CHL1   C16   21   3.858   3.401   9.627  0.3044  0.2036  0.6225
    1CHL1  H16A   22   3.866   3.311   9.563  0.6572  0.9375 -0.4006
    1CHL1  H16B   23   3.816   3.485   9.567  1.3781  0.9238  0.8361
    1CHL1   C17   24   4.010   3.440   9.666  0.7983 -0.3624  0.0889
    1CHL1   H17   25   4.003   3.545   9.703  1.1011 -0.4399  0.3648
    1CHL1   C13   26   4.036   3.362   9.796 -0.2590 -0.7921 -0.1080
    1CHL1   C18   27   4.044   3.210   9.754 -0.7008 -0.5299 -0.2073
    1CHL1  H18A   28   3.980   3.187   9.666 -0.1276 -1.6389 -0.3556
    1CHL1  H18B   29   4.151   3.198   9.725 -0.2678 -1.1899  1.5146
    1CHL1  H18C   30   4.030   3.144   9.842 -4.0628 -1.2057 -1.1319
    1CHL1   C12   31   4.139   3.404   9.889  0.4073 -0.0581  0.1337
    1CHL1  H12A   32   4.235   3.366   9.849 -0.9013 -1.6558 -1.6633
    1CHL1  H12B   33   4.137   3.515   9.894  0.4033 -0.0081 -0.7879
    1CHL1   C11   34   4.125   3.352  10.030 -0.0542  0.0739  0.0560
    1CHL1  H11A   35   4.159   3.247  10.018 -0.7870 -0.2853  1.0940
    1CHL1  H11B   36   4.196   3.406  10.096 -0.8678 -0.2925  1.2501
    1CHL1    C9   37   3.983   3.368  10.091  0.2327  0.5748  0.0748
    1CHL1    H9   38   3.958   3.476  10.091  0.1646  0.5685  1.0104
    1CHL1   C10   39   3.953   3.323  10.238  0.1177  0.2784  0.0367
    1CHL1   C19   40   3.993   3.170  10.247  0.3789  0.4979 -0.4297
    1CHL1  H19A   41   3.926   3.113  10.179  0.4827  0.8886 -0.8582
    1CHL1  H19B   42   4.101   3.161  10.224  0.3997  0.9174 -0.4888
    1CHL1  H19C   43   3.982   3.124  10.348  2.0548 -1.8787 -1.2188
    1CHL1    C1   44   4.047   3.406  10.336 -0.2433 -0.4896  0.1740
    1CHL1   H1A   45   4.155   3.382  10.329 -0.2052  0.2452 -3.5578
    1CHL1   H1B   46   4.034   3.512  10.305 -0.8218 -0.6091 -0.0026
    1CHL1    C2   47   4.012   3.389  10.489  0.0390 -0.1840  0.3514
    1CHL1   H2A   48   4.076   3.465  10.539 -0.3134 -0.0819  0.6485
    1CHL1   H2B   49   4.047   3.288  10.520  1.9285  0.3376  0.0354
    1CHL1   C20   50   4.104   3.424   9.552 -0.0652 -0.3150  0.4437
    1CHL1   H20   51   4.122   3.316   9.536  1.3289 -0.1837  1.0156
    1CHL1   C21   52   4.239   3.500   9.577  1.0559 -0.2310  0.5291
    1CHL1  H21A   53   4.284   3.453   9.667  1.4790 -2.4265 -0.7485
    1CHL1  H21B   54   4.223   3.609   9.589  0.6155 -0.1372 -0.7448
    1CHL1  H21C   55   4.310   3.513   9.493 -0.3329 -1.9926 -1.0001
    1CHL1   C22   56   4.039   3.474   9.420  0.3614  0.2979  0.2434
    1CHL1  H22A   57   3.938   3.432   9.403 -0.3740  2.1400 -0.2625
    1CHL1  H22B   58   4.020   3.583   9.428 -1.9858 -0.1457  1.7251
    1CHL1   C23   59   4.121   3.432   9.291 -0.1930  0.4854 -1.0584
    1CHL1  H23A   60   4.210   3.499   9.286  0.9505 -1.0035 -1.5500
    1CHL1  H23B   61   4.165   3.330   9.303 -3.3905 -0.8820  0.2848
    1CHL1   C24   62   4.031   3.442   9.169 -0.6662 -0.0045  0.9603
    1CHL1  H24A   63   3.941   3.381   9.197 -0.4169  0.6817  3.5319
    1CHL1  H24B   64   3.995   3.544   9.147  0.5182  0.0045 -1.1902
    1CHL1   C25   65   4.097   3.388   9.038  0.0499  0.6080  0.3523
    1CHL1   H25   66   4.186   3.452   9.015 -0.4740  0.6251 -1.8141
    1CHL1   C26   67   4.132   3.244   9.054 -0.3950  0.4478 -0.5044
    1CHL1  H26A   68   4.205   3.233   9.137 -2.1874  1.5062  1.3034
    1CHL1  H26B   69   4.046   3.174   9.063  1.8159 -2.2983  1.1630
    1CHL1  H26C   70   4.181   3.206   8.961 -2.0698  0.9742 -1.6437
    1CHL1   C27   71   3.988   3.393   8.923 -0.8071  0.2677 -0.1996
    1CHL1  H27A   72   3.932   3.298   8.934  0.7693 -0.4336  2.6355
    1CHL1  H27B   73   3.919   3.480   8.927 -1.4141 -0.2173  3.6632
    1CHL1  H27C   74   4.045   3.405   8.828 -0.4807  0.3146  0.0006
    2CHL1    C3   75   6.379   0.580  10.291  0.3331  0.0791 -0.5360
    2CHL1    H3   76   6.415   0.678  10.253 -1.5674  0.8581 -0.4283
    2CHL1    O3   77   6.360   0.585  10.432 -0.5468  0.3310 -0.1395
    2CHL1   H3'   78   6.273   0.622  10.443  0.1538  1.3038  3.2299
    2CHL1    C4   79   6.254   0.547  10.210 -0.2461 -0.4905  0.4633
    2CHL1   H4A   80   6.216   0.453  10.256 -1.0187 -0.4556 -0.0738
    2CHL1   H4B   81   6.180   0.630  10.221  0.9833  0.6637  0.3020
    2CHL1    C5   82   6.306   0.534  10.062  0.6128 -0.1260 -0.0424
    2CHL1    C6   83   6.246   0.610   9.966 -0.7533  0.0919 -0.0639
    2CHL1    H6   84   6.168   0.682   9.994  0.2066  0.6378  1.2566
    2CHL1    C7   85   6.276   0.599   9.817 -0.3678 -0.6455 -0.1709
    2CHL1   H7A   86   6.179   0.582   9.765 -0.6170 -1.7768  0.6423
    2CHL1   H7B   87   6.340   0.682   9.778  0.4313 -0.2408  1.8619
    2CHL1    C8   88   6.370   0.483   9.780  0.6373 -0.2684  0.0278
    2CHL1    H8   89   6.305   0.393   9.783  0.9971 -0.5483 -0.3996
    2CHL1   C14   90   6.431   0.499   9.640 -0.1821 -0.3558  0.6533
    2CHL1   H14   91   6.491   0.592   9.650 -0.3387 -0.2404  0.5510
    2CHL1   C15   92   6.333   0.522   9.519 -0.1970 -0.1988 -0.7544
    2CHL1  H15A   93   6.250   0.448   9.524  0.0235 -0.3837  1.4668
    2CHL1  H15B   94   6.277   0.618   9.521 -1.4401 -0.9079 -0.2252
    2CHL1   C16   95   6.417   0.481   9.394 -0.2277  0.1727 -0.8101
    2CHL1  H16A   96   6.359   0.411   9.330  0.4924 -0.9534 -0.2590
    2CHL1  H16B   97   6.441   0.574   9.337  1.0738  1.4300  1.6359
    2CHL1   C17   98   6.550   0.416   9.443  0.3497 -0.0968 -0.3566
    2CHL1   H17   99   6.632   0.491   9.448 -0.1389  0.5445 -1.4843
    2CHL1   C13  100   6.523   0.381   9.594  0.3808 -0.6630 -0.4694
    2CHL1   C18  101   6.444   0.246   9.594  0.3183 -0.7086  0.5274
    2CHL1  H18A  102   6.391   0.234   9.691 -0.1567  1.4492  0.5638
    2CHL1  H18B  103   6.374   0.253   9.509  2.0746  0.5298 -0.8854
    2CHL1  H18C  104   6.506   0.154   9.578 -1.3194 -1.6220 -0.8048
    2CHL1   C12  105   6.641   0.394   9.695  0.4564 -0.2080  0.1744
    2CHL1  H12A  106   6.723   0.324   9.670 -0.3732 -0.9786 -0.4859
    2CHL1  H12B  107   6.674   0.500   9.692  0.8304 -0.3320 -0.1870
    2CHL1   C11  108   6.593   0.376   9.840  0.6942 -0.1563 -0.1809
    2CHL1  H11A  109   6.564   0.269   9.851 -0.9378  0.2976  0.2387
    2CHL1  H11B  110   6.680   0.395   9.907  0.5196  0.2838 -0.0751
    2CHL1    C9  111   6.479   0.471   9.889  0.0618 -0.2461 -0.0784
    2CHL1    H9  112   6.520   0.574   9.893  1.7769 -0.9329  2.9184
    2CHL1   C10  113   6.420   0.442  10.023 -0.5192  0.1812 -0.1575
    2CHL1   C19  114   6.357   0.298  10.025 -1.2728 -0.8697 -0.1957
    2CHL1  H19A  115   6.342   0.273  10.132 -0.2058  0.9894  0.4254
    2CHL1  H19B  116   6.270   0.296   9.955  0.1899  2.1283 -2.2996
    2CHL1  H19C  117   6.428   0.222   9.987  0.7756 -0.4656  2.5364
    2CHL1    C1  118   6.531   0.462  10.128  0.2025  0.1497 -1.0303
    2CHL1   H1A  119   6.597   0.373  10.132 -2.5646 -2.0607  3.3971
    2CHL1   H1B  120   6.578   0.563  10.119 -0.7242  1.0945  2.7569
    2CHL1    C2  121   6.496   0.487  10.276  0.5074 -0.5589  0.6366
    2CHL1   H2A  122   6.589   0.520  10.327  0.3640 -1.3938  1.4780
    2CHL1   H2B  123   6.454   0.397  10.326 -1.7370  0.7638  1.2635
    2CHL1   C20  124   6.598   0.301   9.351 -0.5731 -0.2061 -0.5453
    2CHL1   H20  125   6.522   0.220   9.351  0.5837 -1.3239  0.0996
    2CHL1   C21  126   6.736   0.255   9.400  0.0312  0.3004  0.3149
    2CHL1  H21A  127   6.789   0.191   9.327 -0.8210  1.1785 -1.1140
    2CHL1  H21B  128   6.722   0.195   9.493  3.7632 -0.8528  0.2748
    2CHL1  H21C  129   6.793   0.348   9.422  1.0756 -0.5105  1.1833
    2CHL1   C22  130   6.612   0.374   9.212  0.0480  0.0022  0.2862
    2CHL1  H22A  131   6.518   0.429   9.191  0.2958  0.4699  0.3951
    2CHL1  H22B  132   6.697   0.446   9.213  0.5096 -0.5286  1.9181
    2CHL1   C23  133   6.656   0.286   9.098  1.0734 -0.7062 -0.0768
    2CHL1  H23A  134   6.759   0.252   9.123  0.9461 -0.1617  1.2616
    2CHL1  H23B  135   6.581   0.205   9.090  1.7091 -1.3277  0.1539
    2CHL1   C24  136   6.667   0.361   8.961 -0.1414 -1.1422 -0.8857
    2CHL1  H24A  137   6.566   0.404   8.941  0.3000 -0.2941 -1.3398
    2CHL1  H24B  138   6.732   0.449   8.980 -0.3535 -1.0376 -0.6368
    2CHL1   C25  139   6.713   0.279   8.836 -0.4663 -0.5770 -0.3397
    2CHL1   H25  140   6.799   0.218   8.871  0.4105  0.3816 -0.7671
    2CHL1   C26  141   6.612   0.174   8.794 -0.0560  0.2220 -0.2671
    2CHL1  H26A  142   6.664   0.082   8.759 -3.7370 -2.5262  0.7777
    2CHL1  H26B  143   6.555   0.139   8.883  1.4819  0.2341  0.7667
    2CHL1  H26C  144   6.533   0.214   8.728 -0.2348  1.1302  0.4730
    2CHL1   C27  145   6.764   0.369   8.728  0.4385 -0.5357  0.1960
    2CHL1  H27A  146   6.796   0.321   8.633 -1.7195 -0.4424 -0.6444
    2CHL1  H27B  147   6.676   0.433   8.706  0.7881  2.0351  4.8666
    2CHL1  H27C  148   6.846   0.438   8.758  0.2230  0.5589 -1.6039
    3CHL1    C3  149   5.659   3.624  10.711  0.3788 -0.0418 -1.0058
    3CHL1    H3  150   5.674   3.522  10.670  1.7851 -1.3124  2.3506
    3CHL1    O3  151   5.632   3.601  10.845 -0.2167  0.4435 -0.4399
    3CHL1   H3'  152   5.575   3.674  10.873 -0.2818  0.0011  0.6405
    3CHL1    C4  153   5.793   3.703  10.692  0.3900 -0.2717 -0.2655
    3CHL1   H4A  154   5.767   3.799  10.742  0.8594  0.3387 -1.1729
    3CHL1   H4B  155   5.871   3.651  10.752  0.7655  1.6991  1.0705
    3CHL1    C5  156   5.814   3.712  10.541 -0.2119 -0.0436 -1.2579
    3CHL1    C6  157   5.930   3.675  10.482  0.6095 -0.0692 -0.8652
    3CHL1    H6  158   6.012   3.631  10.539  1.4047 -0.7703 -2.4956
    3CHL1    C7  159   5.958   3.702  10.339 -0.5821 -1.3337 -0.1707
    3CHL1   H7A  160   6.065   3.724  10.319 -0.9569  1.0928  0.1556
    3CHL1   H7B  161   5.930   3.607  10.288  1.5076 -3.0236  1.5916
    3CHL1    C8  162   5.867   3.803  10.272 -0.7889 -1.0482 -1.0222
    3CHL1    H8  163   5.896   3.902  10.311 -3.2733 -0.6275 -0.0769
    3CHL1   C14  164   5.888   3.801  10.119  0.0830 -0.0311  0.5756
    3CHL1   H14  165   5.868   3.699  10.082 -1.2764  0.7611 -0.9774
    3CHL1   C15  166   6.024   3.842  10.069 -0.4473 -0.9832 -0.9234
    3CHL1  H15A  167   6.071   3.935  10.109 -1.4171 -0.8984  0.0919
    3CHL1  H15B  168   6.092   3.757  10.094  0.0210 -0.2999  0.2237
    3CHL1   C16  169   6.004   3.864   9.923 -0.7307 -0.2722 -0.0866
    3CHL1  H16A  170   6.046   3.961   9.887 -0.8373 -0.0435  0.4004
    3CHL1  H16B  171   6.063   3.788   9.867 -0.0459 -0.3840  0.7730
    3CHL1   C17  172   5.851   3.850   9.896  1.0507 -0.2128  0.5936
    3CHL1   H17  173   5.827   3.743   9.877 -1.1181  0.4167 -0.6439
    3CHL1   C13  174   5.792   3.885  10.034 -0.5233  0.0045  0.2530
    3CHL1   C18  175   5.811   4.037  10.069  0.3798  0.0689  0.0336
    3CHL1  H18A  176   5.800   4.049  10.179 -1.5116 -1.2277  0.0398
    3CHL1  H18B  177   5.896   4.084  10.016 -1.6515 -0.1485 -3.7636
    3CHL1  H18C  178   5.722   4.083  10.022 -0.4218  0.6037  2.0029
    3CHL1   C12  179   5.650   3.836  10.067 -0.4091 -0.7725  0.4718
    3CHL1  H12A  180   5.573   3.885  10.005  0.8143 -0.6163 -0.9686
    3CHL1  H12B  181   5.644   3.727  10.044  1.4663 -1.2692  2.1211
    3CHL1   C11  182   5.615   3.855  10.214 -0.7237 -0.3937 -0.0085
    3CHL1  H11A  183   5.605   3.964  10.233  0.2225  0.1597 -2.3411
    3CHL1  H11B  184   5.512   3.816  10.234 -1.0172  0.7102  0.7559
    3CHL1    C9  185   5.722   3.771  10.306  0.3687 -0.0182  0.2288
    3CHL1    H9  186   5.706   3.666  10.272  0.3574 -0.0483  0.3288
    3CHL1   C10  187   5.696   3.770  10.464  0.1541 -0.7542 -0.1165
    3CHL1   C19  188   5.692   3.915  10.505  0.4240 -0.3238 -0.3730
    3CHL1  H19A  189   5.680   3.932  10.614  2.3176  3.0640 -0.5526
    3CHL1  H19B  190   5.789   3.965  10.485 -0.4260  1.1504 -0.9650
    3CHL1  H19C  191   5.615   3.974  10.451  1.0027  1.8957  1.0936
    3CHL1    C1  192   5.563   3.698  10.495  0.4102 -0.0572  0.7467
    3CHL1   H1A  193   5.495   3.762  10.434  2.3441 -1.2135 -2.9139
    3CHL1   H1B  194   5.562   3.603  10.437 -0.8973  1.9322 -2.8193
    3CHL1    C2  195   5.537   3.696  10.643  0.1865  0.1898  0.1175
    3CHL1   H2A  196   5.440   3.653  10.675 -0.1453  1.9145  1.5700
    3CHL1   H2B  197   5.537   3.797  10.689  2.5636  0.0308  0.6291
    3CHL1   C20  198   5.809   3.936   9.770  0.4461 -0.5359  0.7899
    3CHL1   H20  199   5.835   4.041   9.794 -0.0284  0.0330 -1.0181
    3CHL1   C21  200   5.658   3.925   9.748 -0.0944  0.1038 -0.0476
    3CHL1  H21A  201   5.624   3.963   9.650 -1.8693 -1.0341  0.0901
    3CHL1  H21B  202   5.599   3.980   9.824 -0.5714  0.0254 -0.3621
    3CHL1  H21C  203   5.624   3.820   9.741  0.0780  0.1457 -2.2353
    3CHL1   C22  204   5.883   3.886   9.639 -0.1545  0.2214 -0.0161
    3CHL1  H22A  205   5.987   3.854   9.658 -1.0676 -2.0423  1.6260
    3CHL1  H22B  206   5.811   3.815   9.592 -1.4453 -1.6404  4.2797
    3CHL1   C23  207   5.897   4.008   9.539 -0.3119  0.2835  0.7429
    3CHL1  H23A  208   5.805   4.070   9.536  1.2789  2.7490 -1.5381
    3CHL1  H23B  209   5.972   4.079   9.579  0.1460  0.0105  0.3776
    3CHL1   C24  210   5.959   3.978   9.399 -0.1509  0.6169  0.1690
    3CHL1  H24A  211   6.063   3.959   9.432 -0.1947  0.0251 -0.0300
    3CHL1  H24B  212   5.918   3.890   9.345 -0.9735  1.3130 -0.3823
    3CHL1   C25  213   5.961   4.106   9.306  0.6069 -0.0141 -0.2462
    3CHL1   H25  214   5.978   4.196   9.368 -0.6550 -1.2632  2.0641
    3CHL1   C26  215   6.065   4.108   9.195  0.3098  0.0563  0.2860
    3CHL1  H26A  216   6.165   4.123   9.241  1.3218 -0.4271 -1.6613
    3CHL1  H26B  217   6.065   4.008   9.146  3.0695 -1.2570  2.6413
    3CHL1  H26C  218   6.056   4.193   9.124  2.6656  1.5800  1.6800
    3CHL1   C27  219   5.825   4.112   9.237 -0.2957  0.0651  0.0739
    3CHL1  H27A  220   5.737   4.135   9.302  0.3124  0.3625  0.8062
    3CHL1  H27B  221   5.827   4.197   9.166 -1.4410  0.9140  1.0058
    3CHL1  H27C  222   5.797   4.022   9.179 -1.4198  0.2602  0.2835
    4CHL1    C3  223   5.980   5.577  10.699  0.8262 -0.6431 -0.0871
    4CHL1    H3  224   5.896   5.645  10.673  0.4522 -1.0250  0.1085
    4CHL1    O3  225   5.987   5.562  10.839 -0.0549  0.0379 -0.2163
    4CHL1   H3'  226   5.998   5.652  10.870 -2.2967  0.8053 -1.4216
    4CHL1    C4  227   5.970   5.434  10.635  0.0708 -0.1222 -0.2976
    4CHL1   H4A  228   6.065   5.382  10.660  0.6165  1.5225  1.2319
    4CHL1   H4B  229   5.885   5.384  10.687 -0.0862  1.8834  1.5451
    4CHL1    C5  230   5.963   5.448  10.481 -0.5254 -0.0781  0.1514
    4CHL1    C6  231   5.859   5.386  10.420 -0.2246 -0.9031  0.1454
    4CHL1    H6  232   5.789   5.319  10.472 -1.7032  0.6590  0.2445
    4CHL1    C7  233   5.838   5.400  10.273 -0.3343  0.2303  0.3035
    4CHL1   H7A  234   5.819   5.301  10.226 -0.2168 -0.1502  1.0396
    4CHL1   H7B  235   5.754   5.469  10.252  0.7484  2.0346  1.6178
    4CHL1    C8  236   5.960   5.461  10.200 -0.0867 -0.3999 -0.5665
    4CHL1    H8  237   6.032   5.376  10.196  0.5384 -0.0506  1.7080
    4CHL1   C14  238   5.913   5.500  10.058 -0.0443 -0.0545  0.0454
    4CHL1   H14  239   5.839   5.582  10.066 -0.2974 -0.3442  0.7816
    4CHL1   C15  240   5.840   5.393   9.965  0.5995  0.0111  0.8648
    4CHL1  H15A  241   5.880   5.290   9.970  0.0414 -0.5069 -2.8271
    4CHL1  H15B  242   5.734   5.391   9.996  1.1187  0.9081  2.8375
    4CHL1   C16  243   5.869   5.449   9.829 -0.1035  0.4550  0.2151
    4CHL1  H16A  244   5.908   5.368   9.764  1.6397  2.1241 -0.9133
    4CHL1  H16B  245   5.775   5.483   9.781  0.3704 -0.3725 -1.3575
    4CHL1   C17  246   5.964   5.573   9.838 -0.9125  0.5146 -0.5517
    4CHL1   H17  247   5.900   5.663   9.848 -1.2850  0.3148 -1.0795
    4CHL1   C13  248   6.031   5.554   9.972  1.2280  0.0338 -0.2497
    4CHL1   C18  249   6.141   5.444   9.960 -0.1745  0.0744  0.8289
    4CHL1  H18A  250   6.188   5.411  10.055  1.0374  0.4876  0.3867
    4CHL1  H18B  251   6.086   5.361   9.910  2.0172  0.6760 -2.9382
    4CHL1  H18C  252   6.229   5.469   9.898 -0.3169  0.1753  0.6681
    4CHL1   C12  253   6.083   5.681  10.040 -0.5598 -0.5477 -0.5502
    4CHL1  H12A  254   6.165   5.728   9.982 -0.4535  0.5111  0.4140
    4CHL1  H12B  255   6.013   5.768  10.042  1.6715  1.3953 -1.5723
    4CHL1   C11  256   6.125   5.655  10.189 -0.3835  0.1388 -0.3865
    4CHL1  H11A  257   6.217   5.593  10.182 -1.1104 -0.8367 -1.6481
    4CHL1  H11B  258   6.151   5.748  10.245  1.4376 -1.4251  1.5148
    4CHL1    C9  259   6.020   5.582  10.277  0.5678  0.9787 -0.2381
    4CHL1    H9  260   5.940   5.656  10.294  0.8472  2.0174 -2.9999
    4CHL1   C10  261   6.074   5.542  10.416 -0.6589 -0.8117  0.7725
    4CHL1   C19  262   6.204   5.468  10.402 -1.1985  0.8265  0.4972
    4CHL1  H19A  263   6.223   5.397  10.485  0.1781  2.3927  1.5692
    4CHL1  H19B  264   6.213   5.396  10.317  2.8952  2.4743 -0.7316
    4CHL1  H19C  265   6.291   5.534  10.381 -2.4298  2.1681 -0.6274
    4CHL1    C1  266   6.100   5.679  10.500  0.5404  0.1089 -0.2084
    4CHL1   H1A  267   6.195   5.720  10.459 -1.1676  3.6124 -1.0442
    4CHL1   H1B  268   6.025   5.755  10.469 -1.5794 -2.8697 -2.9999
    4CHL1    C2  269   6.106   5.649  10.650 -0.1222  0.3000 -0.3615
    4CHL1   H2A  270   6.114   5.747  10.701  0.3571 -0.3759  0.8947
    4CHL1   H2B  271   6.185   5.582  10.689 -1.8846 -1.5646  0.1636
    4CHL1   C20  272   6.059   5.598   9.717 -0.0842  0.7184  0.3273
    4CHL1   H20  273   6.162   5.558   9.729  0.7399  1.9780 -1.8910
    4CHL1   C21  274   6.082   5.749   9.698 -0.4065 -0.2424 -0.0142
    4CHL1  H21A  275   6.164   5.765   9.624  1.8801  0.7224  2.5403
    4CHL1  H21B  276   6.110   5.797   9.795 -1.4645 -1.4646  0.9243
    4CHL1  H21C  277   6.002   5.810   9.652  0.3947 -0.3901 -1.6573
    4CHL1   C22  278   6.015   5.525   9.589  0.1197  0.5171  0.5966
    4CHL1  H22A  279   6.004   5.415   9.604 -0.0116  0.3097 -0.8325
    4CHL1  H22B  280   5.915   5.568   9.567 -0.3794 -0.5440  0.6921
    4CHL1   C23  281   6.113   5.547   9.467  0.1243 -0.1680  0.0733
    4CHL1  H23A  282   6.086   5.647   9.425  0.8875  0.3126  0.6972
    4CHL1  H23B  283   6.218   5.542   9.501 -0.0533 -0.1421  0.6239
    4CHL1   C24  284   6.079   5.448   9.354 -0.0919  0.4354 -0.5171
    4CHL1  H24A  285   6.103   5.344   9.386 -0.3322 -0.4162 -2.9157
    4CHL1  H24B  286   5.968   5.449   9.349 -0.1051  0.3317 -0.2631
    4CHL1   C25  287   6.151   5.442   9.213  0.2000  0.1823  0.7552
    4CHL1   H25  288   6.149   5.540   9.160 -0.3565 -0.7672 -1.0958
    4CHL1   C26  289   6.300   5.404   9.236 -0.4037 -0.1776  0.0557
    4CHL1  H26A  290   6.302   5.318   9.306 -2.4885 -0.4660 -0.1862
    4CHL1  H26B  291   6.352   5.386   9.139  0.2550 -0.9559  0.5394
    4CHL1  H26C  292   6.356   5.492   9.276  0.2291 -1.3578  1.8629
    4CHL1   C27  293   6.093   5.337   9.122 -0.3905  0.1950  0.5948
    4CHL1  H27A  294   5.989   5.355   9.085 -0.0469  1.1282  0.0293
    4CHL1  H27B  295   6.165   5.333   9.037 -0.7788  0.5135  0.2410
    4CHL1  H27C  296   6.091   5.234   9.163 -1.0870 -0.0416 -0.0029
    5CHL1    C3  297   6.524   2.599  10.550  0.2119 -0.1763 -0.2606
    5CHL1    H3  298   6.618   2.645  10.513  1.0196 -1.1176  0.5532
    5CHL1    O3  299   6.509   2.611  10.695 -0.4391  0.6790  0.1713
    5CHL1   H3'  300   6.432   2.560  10.722  0.3630  0.7517  2.8387
    5CHL1    C4  301   6.402   2.660  10.479  0.3515 -0.5235  0.4756
    5CHL1   H4A  302   6.306   2.614  10.513 -0.6717  0.3643 -1.0722
    5CHL1   H4B  303   6.402   2.770  10.491  0.8386 -0.4553 -0.0765
    5CHL1    C5  304   6.413   2.632  10.329 -0.1573  0.7382  0.0099
    5CHL1    C6  305   6.420   2.738  10.247  0.0730  0.6275 -1.2530
    5CHL1    H6  306   6.393   2.841  10.274 -0.6000  0.1249  0.0626
    5CHL1    C7  307   6.437   2.734  10.094  0.1064 -0.2182 -0.5465
    5CHL1   H7A  308   6.373   2.809  10.043  1.0709  0.7561 -0.3605
    5CHL1   H7B  309   6.541   2.770  10.077 -0.1735  0.2254 -1.3249
    5CHL1    C8  310   6.411   2.596  10.040  0.2511 -0.3230  0.1314
    5CHL1    H8  311   6.300   2.583  10.042 -0.2616  2.3551 -3.0782
    5CHL1   C14  312   6.466   2.574   9.896  0.6502  0.2068 -0.1942
    5CHL1   H14  313   6.575   2.561   9.910  0.6783 -0.5144 -0.9985
    5CHL1   C15  314   6.432   2.680   9.793  0.1264  0.5626  0.1621
    5CHL1  H15A  315   6.325   2.710   9.792  0.0284  0.3875 -2.2081
    5CHL1  H15B  316   6.499   2.768   9.810  1.0354 -0.2830  1.0859
    5CHL1   C16  317   6.462   2.607   9.667 -0.3955  0.1280 -0.4764
    5CHL1  H16A  318   6.378   2.619   9.595  0.5629  0.0745 -1.6193
    5CHL1  H16B  319   6.551   2.656   9.622 -1.1848  2.3116  0.1951
    5CHL1   C17  320   6.488   2.458   9.700  0.0445  0.3351  0.5086
    5CHL1   H17  321   6.594   2.438   9.728 -0.2036  0.6185  1.7075
    5CHL1   C13  322   6.427   2.440   9.840  0.6381  0.3728 -0.1192
    5CHL1   C18  323   6.270   2.415   9.827 -0.8131 -0.2233  0.1002
    5CHL1  H18A  324   6.272   2.315   9.778  1.4505  0.3529 -1.1287
    5CHL1  H18B  325   6.216   2.419   9.924 -3.0571  1.6734 -1.1389
    5CHL1  H18C  326   6.222   2.487   9.759  1.7304  0.3518 -1.2116
    5CHL1   C12  327   6.487   2.330   9.928  0.2160 -0.4712 -0.1643
    5CHL1  H12A  328   6.473   2.234   9.873  1.2610  0.0362 -1.3834
    5CHL1  H12B  329   6.595   2.357   9.936 -0.0312  0.4792 -0.0022
    5CHL1   C11  330   6.436   2.338  10.070 -0.3406 -0.2151  0.3360
    5CHL1  H11A  331   6.327   2.318  10.060  0.2432 -2.9724 -1.7112
    5CHL1  H11B  332   6.480   2.258  10.133 -0.1299  0.6668  1.3359
    5CHL1    C9  333   6.460   2.477  10.133  0.2440  0.5195 -0.0620
    5CHL1    H9  334   6.570   2.470  10.135  0.2850 -1.2362 -2.8795
    5CHL1   C10  335   6.425   2.485  10.285  0.0521 -1.0406 -0.2283
    5CHL1   C19  336   6.293   2.409  10.321  0.2852  0.2432  0.1320
    5CHL1  H19A  337   6.303   2.302  10.294 -1.1342  0.4340 -1.2873
    5CHL1  H19B  338   6.264   2.415  10.428 -1.4319  0.3661 -0.2997
    5CHL1  H19C  339   6.205   2.453  10.269 -0.9340  0.0453  1.9437
    5CHL1    C1  340   6.539   2.427  10.372 -0.1328  0.5750 -0.1028
    5CHL1   H1A  341   6.542   2.317  10.356  2.7777  0.5405  0.2661
    5CHL1   H1B  342   6.634   2.464  10.329  0.8594 -0.8567  0.7865
    5CHL1    C2  343   6.536   2.449  10.524 -0.7123  0.4101 -0.3301
    5CHL1   H2A  344   6.623   2.403  10.576 -1.5200  0.0011  0.6953
    5CHL1   H2B  345   6.450   2.398  10.573  0.3743  1.2963  2.6717
    5CHL1   C20  346   6.454   2.362   9.583  0.3275 -0.3422  0.0540
    5CHL1   H20  347   6.344   2.368   9.565  0.2031 -4.0554 -1.2196
    5CHL1   C21  348   6.498   2.221   9.622 -0.2286  0.4485  0.0715
    5CHL1  H21A  349   6.519   2.160   9.531  1.1348 -0.4510  0.9598
    5CHL1  H21B  350   6.416   2.165   9.672 -0.7881  1.8518  0.7772
    5CHL1  H21C  351   6.585   2.229   9.691 -0.6863  2.2545  0.4865
    5CHL1   C22  352   6.530   2.398   9.452  0.3957  0.1519  0.0714
    5CHL1  H22A  353   6.566   2.503   9.454 -0.9904  0.8412 -3.6249
    5CHL1  H22B  354   6.621   2.334   9.445  0.0935 -0.5161  1.6113
    5CHL1   C23  355   6.449   2.385   9.324 -0.2897 -0.1820 -0.1590
    5CHL1  H23A  356   6.438   2.275   9.312  0.3803 -0.6117  2.5025
    5CHL1  H23B  357   6.351   2.436   9.336 -0.0997 -0.1288  1.5105
    5CHL1   C24  358   6.517   2.444   9.199  0.6145  1.3581 -0.5748
    5CHL1  H24A  359   6.622   2.413   9.214  0.8918  1.7751 -1.5994
    5CHL1  H24B  360   6.469   2.395   9.112  2.9546 -0.7208 -0.7896
    5CHL1   C25  361   6.504   2.591   9.170  0.2830 -0.2662 -0.6040
    5CHL1   H25  362   6.567   2.644   9.244  0.1757 -0.4754 -0.3614
    5CHL1   C26  363   6.556   2.637   9.035 -0.8808 -0.8549  0.0562
    5CHL1  H26A  364   6.665   2.620   9.024 -1.1838 -1.9522 -1.5487
    5CHL1  H26B  365   6.502   2.576   8.959 -0.8489  0.2798 -0.9001
    5CHL1  H26C  366   6.532   2.743   9.015 -1.9684 -1.6045 -3.1349
    5CHL1   C27  367   6.362   2.642   9.185 -0.3857 -0.1816  0.3360
    5CHL1  H27A  368   6.294   2.566   9.142  0.4779 -1.2394  0.8113
    5CHL1  H27B  369   6.332   2.653   9.291  0.9327  0.1677  0.6868
    5CHL1  H27C  370   6.352   2.739   9.131  2.6001 -0.4316 -0.8428
    6CHL1    C3  371   4.270   2.005  10.422  1.2019  0.1003 -0.8011
    6CHL1    H3  372   4.291   2.114  10.412  0.9412  0.8783  4.4569
    6CHL1    O3  373   4.214   1.984  10.554 -0.0315 -0.6903 -0.0093
    6CHL1   H3'  374   4.187   1.892  10.553  1.0259 -1.0034 -0.2009
    6CHL1    C4  375   4.165   1.950  10.323  0.4833  0.7699  0.5299
    6CHL1   H4A  376   4.149   1.845  10.356 -1.3240  0.9620  0.3434
    6CHL1   H4B  377   4.071   2.006  10.342  0.6910  0.7214  1.8088
    6CHL1    C5  378   4.211   1.964  10.174 -0.1061 -1.1196 -0.1498
    6CHL1    C6  379   4.131   2.021  10.082  0.1696  0.4112 -0.5255
    6CHL1    H6  380   4.039   2.062  10.125  0.8218  0.8205  0.5311
    6CHL1    C7  381   4.170   2.039   9.943 -0.1561  0.1700  0.2545
    6CHL1   H7A  382   4.085   2.014   9.877 -0.0499 -0.4449  0.3512
    6CHL1   H7B  383   4.199   2.145   9.926  2.7508 -0.7417 -1.1493
    6CHL1    C8  384   4.292   1.950   9.903  0.2923  0.1231 -0.7026
    6CHL1    H8  385   4.252   1.847   9.894  1.0703 -0.2907  0.3769
    6CHL1   C14  386   4.357   1.999   9.771  0.6133  0.5418  0.2199
    6CHL1   H14  387   4.390   2.102   9.798 -1.4195  0.7613  2.1354
    6CHL1   C15  388   4.266   2.033   9.649  0.4969  0.0774 -0.2459
    6CHL1  H15A  389   4.190   1.952   9.642 -1.1414  1.6907 -2.1858
    6CHL1  H15B  390   4.215   2.131   9.660 -0.1494 -0.0710 -1.7200
    6CHL1   C16  391   4.362   2.038   9.532 -0.0821 -0.1735 -0.5881
    6CHL1  H16A  392   4.330   1.965   9.455 -0.0037  0.5569 -1.3234
    6CHL1  H16B  393   4.375   2.141   9.491 -1.4642  0.7469  1.1254
    6CHL1   C17  394   4.508   1.990   9.588  0.6918 -0.2409 -0.0734
    6CHL1   H17  395   4.563   2.084   9.610 -0.6473  0.6700 -0.4348
    6CHL1   C13  396   4.479   1.917   9.727  0.8518 -0.8844 -0.2987
    6CHL1   C18  397   4.442   1.773   9.684 -0.1263  0.0572 -0.1065
    6CHL1  H18A  398   4.538   1.717   9.678  1.0685  1.7974  1.6824
    6CHL1  H18B  399   4.371   1.733   9.760  1.4370 -0.0583  1.3435
    6CHL1  H18C  400   4.383   1.781   9.590 -1.6868  0.9363  0.9102
    6CHL1   C12  401   4.582   1.923   9.831  0.0750 -0.6567 -0.9683
    6CHL1  H12A  402   4.663   1.850   9.810  0.5952 -0.0490 -1.1164
    6CHL1  H12B  403   4.617   2.028   9.837 -3.0306  0.4166  0.1096
    6CHL1   C11  404   4.527   1.877   9.963  0.3662  0.2642 -0.6236
    6CHL1  H11A  405   4.498   1.770   9.949  0.0944  0.3782 -0.9524
    6CHL1  H11B  406   4.606   1.880  10.041 -0.6528 -1.0528  0.5230
    6CHL1    C9  407   4.399   1.950  10.011 -0.9926  0.7252 -0.0637
    6CHL1    H9  408   4.443   2.052  10.019  0.9874 -0.0242 -0.7983
    6CHL1   C10  409   4.349   1.913  10.153 -1.1812  0.1907 -0.6386
    6CHL1   C19  410   4.331   1.760  10.157 -0.7752 -0.8249 -0.2234
    6CHL1  H19A  411   4.424   1.700  10.150 -0.6750 -0.8557  1.1207
    6CHL1  H19B  412   4.286   1.725  10.253  0.8294  0.8878  1.2349
    6CHL1  H19C  413   4.264   1.731  10.073 -2.7599 -0.8917  1.3059
    6CHL1    C1  414   4.455   1.968  10.259  0.5732  0.0659  0.3678
    6CHL1   H1A  415   4.556   1.925  10.241 -0.3859 -1.2665 -2.3107
    6CHL1   H1B  416   4.473   2.076  10.244 -0.9573  0.4355  1.0160
    6CHL1    C2  417   4.407   1.942  10.403 -0.1495 -0.2468 -0.1191
    6CHL1   H2A  418   4.481   1.975  10.479 -0.7159  0.5242  0.1134
    6CHL1   H2B  419   4.396   1.832  10.415 -1.3825  0.0070  1.3707
    6CHL1   C20  420   4.598   1.926   9.482 -0.1957  0.4556 -0.1179
    6CHL1   H20  421   4.567   1.819   9.480  0.6726  0.1935  0.2222
    6CHL1   C21  422   4.740   1.939   9.521 -0.2951  0.2821  0.2748
    6CHL1  H21A  423   4.755   1.921   9.629 -1.1331 -3.3632 -0.0772
    6CHL1  H21B  424   4.783   2.031   9.476 -1.4064 -0.0189 -1.5216
    6CHL1  H21C  425   4.805   1.860   9.477 -2.0748 -1.5822  0.8343
    6CHL1   C22  426   4.574   1.985   9.337  0.5782  0.7203  0.3849
    6CHL1  H22A  427   4.467   2.004   9.316  1.0243  1.2318 -1.5569
    6CHL1  H22B  428   4.607   2.091   9.348  1.7847  0.3838  0.0590
    6CHL1   C23  429   4.636   1.908   9.224  0.0214  0.0239 -0.2665
    6CHL1  H23A  430   4.741   1.884   9.252  0.7572  1.8426 -1.3588
    6CHL1  H23B  431   4.580   1.814   9.207  2.2008 -1.4608  0.2607
    6CHL1   C24  432   4.657   2.001   9.098  0.7554 -0.8848  0.2009
    6CHL1  H24A  433   4.550   2.014   9.075  0.1454 -2.4063  1.8672
    6CHL1  H24B  434   4.710   2.093   9.130  0.3303 -0.9504  1.1406
    6CHL1   C25  435   4.742   1.945   8.979  0.6104 -0.2767 -1.0077
    6CHL1   H25  436   4.714   1.838   8.970 -0.1705  0.0408 -2.6447
    6CHL1   C26  437   4.710   2.018   8.844 -0.0210 -0.0416 -0.5561
    6CHL1  H26A  438   4.786   1.994   8.768  0.3550 -1.1238  0.1413
    6CHL1  H26B  439   4.609   1.992   8.804 -1.3251  0.9153  1.8672
    6CHL1  H26C  440   4.708   2.127   8.867 -0.4257 -0.1394 -0.1034
    6CHL1   C27  441   4.890   1.942   9.012  0.0239 -0.4577  0.0926
    6CHL1  H27A  442   4.921   2.042   9.049  2.0852 -0.9996 -0.0073
    6CHL1  H27B  443   4.911   1.876   9.099 -1.9205 -0.9646  0.2128
    6CHL1  H27C  444   4.957   1.910   8.928  2.2346  1.5958  0.9580
    7CHL1    C3  445   0.278   2.416  10.562  0.7469  0.5193  0.2582
    7CHL1    H3  446   0.193   2.486  10.551 -0.9559 -1.4986 -0.0228
    7CHL1    O3  447   0.305   2.409  10.696  0.0960 -0.3604 -0.4550
    7CHL1   H3'  448   0.381   2.351  10.699 -1.4324 -2.5115 -0.0704
    7CHL1    C4  449   0.235   2.279  10.501 -0.9766 -0.3884 -0.5486
    7CHL1   H4A  450   0.310   2.209  10.543 -0.3823  1.2851  1.4013
    7CHL1   H4B  451   0.145   2.241  10.555 -0.5457  0.0415  0.5041
    7CHL1    C5  452   0.223   2.288  10.353 -0.2870 -0.2286 -0.0984
    7CHL1    C6  453   0.114   2.249  10.292 -0.1604 -0.2252 -0.2849
    7CHL1    H6  454   0.027   2.223  10.354 -0.7021 -0.0659 -0.9502
    7CHL1    C7  455   0.090   2.242  10.137  0.1546 -0.1567 -0.0960
    7CHL1   H7A  456   0.024   2.155  10.115 -0.4966 -0.2745  2.0720
    7CHL1   H7B  457   0.040   2.335  10.104  1.2880  0.8297  0.8660
    7CHL1    C8  458   0.231   2.238  10.068 -0.6104  0.2250 -0.1791
    7CHL1    H8  459   0.279   2.140  10.090 -1.1893  0.2093  1.1147
    7CHL1   C14  460   0.221   2.250   9.916 -0.0050  0.2291 -0.2892
    7CHL1   H14  461   0.168   2.348   9.912 -2.9570 -1.2238  0.7438
    7CHL1   C15  462   0.128   2.151   9.843 -0.2856 -0.4289 -0.5804
    7CHL1  H15A  463   0.151   2.048   9.877 -1.0376 -0.5188 -0.3530
    7CHL1  H15B  464   0.021   2.167   9.865  0.2794  0.6424  1.6093
    7CHL1   C16  465   0.177   2.165   9.693 -0.5873 -0.2792  0.4468
    7CHL1  H16A  466   0.201   2.064   9.654 -0.2452 -0.7718  1.8735
    7CHL1  H16B  467   0.099   2.204   9.625 -0.1279 -1.2950 -0.6873
    7CHL1   C17  468   0.299   2.257   9.689  0.5252 -0.1739  0.5374
    7CHL1   H17  469   0.251   2.355   9.667 -0.5407 -0.7517  0.2345
    7CHL1   C13  470   0.353   2.258   9.836  0.0700 -0.0182  0.2554
    7CHL1   C18  471   0.445   2.130   9.847 -0.5239 -0.4385 -0.2488
    7CHL1  H18A  472   0.389   2.037   9.824 -1.0662 -0.2896  0.4492
    7CHL1  H18B  473   0.544   2.128   9.796  0.6352 -0.0964  1.8620
    7CHL1  H18C  474   0.476   2.121   9.953 -0.5598 -2.2493 -0.3673
    7CHL1   C12  475   0.417   2.388   9.881  0.3552 -0.0666  0.0693
    7CHL1  H12A  476   0.511   2.401   9.822  0.6502  0.6571  0.6762
    7CHL1  H12B  477   0.354   2.474   9.853  2.2759  0.9228 -1.4953
    7CHL1   C11  478   0.446   2.378  10.030  0.5436 -0.0464 -0.1153
    7CHL1  H11A  479   0.523   2.298  10.033 -0.4970 -1.1669 -1.8469
    7CHL1  H11B  480   0.497   2.471  10.063 -0.0058  0.5744 -0.9791
    7CHL1    C9  481   0.325   2.353  10.127 -0.0378  0.3460 -0.5248
    7CHL1    H9  482   0.269   2.449  10.121 -1.6837 -0.5856 -0.5297
    7CHL1   C10  483   0.351   2.334  10.283  0.1223  0.7793  0.2135
    7CHL1   C19  484   0.464   2.229  10.290 -0.1483  0.6745 -0.9633
    7CHL1  H19A  485   0.472   2.198  10.397 -0.6055 -0.3280 -1.2038
    7CHL1  H19B  486   0.453   2.146  10.217 -2.2772  0.6192 -0.6586
    7CHL1  H19C  487   0.564   2.269  10.266  0.5403 -0.4718 -0.1067
    7CHL1    C1  488   0.387   2.472  10.337  0.0755 -0.4237 -0.1906
    7CHL1   H1A  489   0.492   2.497  10.308  0.5391 -0.7301  1.1120
    7CHL1   H1B  490   0.327   2.562  10.310 -0.1697 -0.3861  0.4584
    7CHL1    C2  491   0.404   2.474  10.491  0.8326 -0.1625 -0.4916
    7CHL1   H2A  492   0.426   2.576  10.530  0.1341  0.6203 -2.0509
    7CHL1   H2B  493   0.490   2.412  10.525  0.9459  0.6688  0.8023
    7CHL1   C20  494   0.402   2.236   9.573 -0.1147  0.2244  0.8438
    7CHL1   H20  495   0.464   2.148   9.599  0.3629 -0.1873 -1.4750
    7CHL1   C21  496   0.499   2.357   9.566  0.5250  0.0746 -0.7666
    7CHL1  H21A  497   0.546   2.352   9.465  2.6707 -0.9379  0.2065
    7CHL1  H21B  498   0.576   2.353   9.646 -1.1582 -2.0042  0.8486
    7CHL1  H21C  499   0.445   2.453   9.583 -0.6455 -0.8250  0.7231
    7CHL1   C22  500   0.345   2.199   9.439  0.1946  0.0863  0.2251
    7CHL1  H22A  501   0.428   2.186   9.367 -0.8556 -0.2319 -0.9612
    7CHL1  H22B  502   0.292   2.101   9.438  1.6154 -0.7332 -1.8456
    7CHL1   C23  503   0.249   2.304   9.379 -0.2083 -0.8522 -0.7190
    7CHL1  H23A  504   0.154   2.312   9.437  0.6710  2.4538  0.5172
    7CHL1  H23B  505   0.295   2.405   9.392 -1.1427 -0.5304  0.2613
    7CHL1   C24  506   0.211   2.294   9.231 -0.3347 -0.2673 -1.2548
    7CHL1  H24A  507   0.153   2.384   9.202 -0.4097 -0.0297 -0.3843
    7CHL1  H24B  508   0.309   2.300   9.180  0.4778 -2.2865 -0.0699
    7CHL1   C25  509   0.156   2.158   9.188  0.2997  0.6495  0.0063
    7CHL1   H25  510   0.236   2.085   9.212 -0.7035 -0.2242  0.7793
    7CHL1   C26  511   0.038   2.112   9.272 -0.1869  0.2196 -0.1081
    7CHL1  H26A  512  -0.050   2.178   9.255  0.5734  1.1528 -0.5454
    7CHL1  H26B  513   0.003   2.009   9.249 -1.5513  0.6607 -0.0864
    7CHL1  H26C  514   0.060   2.102   9.380 -1.3435 -0.4154  0.0787
    7CHL1   C27  515   0.136   2.160   9.037  0.2484 -0.3389 -0.5311
    7CHL1  H27A  516   0.234   2.195   8.998  0.5932  2.0302  2.1166
    7CHL1  H27B  517   0.111   2.064   8.988  0.0410  0.2886 -1.7123
    7CHL1  H27C  518   0.059   2.229   8.994 -1.0231 -2.3953 -1.7315
    8CHL1    C3  519   0.546   5.506  10.640 -0.0503  0.5475  0.2198
    8CHL1    H3  520   0.570   5.610  10.608  0.2800  0.7582  1.1126
    8CHL1    O3  521   0.584   5.497  10.779 -0.3107  0.3117  0.2424
    8CHL1   H3'  522   0.563   5.406  10.797  2.2441 -0.8882 -2.1221
    8CHL1    C4  523   0.397   5.494  10.621  0.1529 -0.9857 -0.3394
    8CHL1   H4A  524   0.365   5.391  10.646  0.3873 -1.6716 -2.6700
    8CHL1   H4B  525   0.341   5.558  10.692 -2.1121 -2.3338 -0.8082
    8CHL1    C5  526   0.352   5.519  10.476 -0.2613 -0.1050 -0.3315
    8CHL1    C6  527   0.275   5.625  10.439  0.1031  0.0303  0.0329
    8CHL1    H6  528   0.241   5.694  10.519  0.7323  0.6540 -0.2233
    8CHL1    C7  529   0.236   5.643  10.294  0.3786 -0.0420  0.0659
    8CHL1   H7A  530   0.126   5.660  10.290  0.3202 -0.4921 -0.4820
    8CHL1   H7B  531   0.298   5.721  10.245 -1.5894  2.3668  1.2321
    8CHL1    C8  532   0.269   5.515  10.204  1.0907  0.0438  0.3651
    8CHL1    H8  533   0.194   5.438  10.231  1.7875 -1.9372 -2.7968
    8CHL1   C14  534   0.257   5.542  10.056 -0.1070  0.3835  0.0748
    8CHL1   H14  535   0.327   5.627  10.039  1.8832 -0.6772  2.4061
    8CHL1   C15  536   0.127   5.590   9.997  0.2365 -0.7047 -0.2540
    8CHL1  H15A  537   0.053   5.520  10.041  1.6004 -1.0922  1.5383
    8CHL1  H15B  538   0.100   5.694  10.026  0.6673 -1.1817  2.1098
    8CHL1   C16  539   0.142   5.574   9.846 -0.3874 -0.2020 -0.1496
    8CHL1  H16A  540   0.057   5.511   9.814  0.5961 -0.6493 -1.9635
    8CHL1  H16B  541   0.138   5.662   9.779  2.9563 -0.0630 -0.3290
    8CHL1   C17  542   0.276   5.508   9.823  0.0247  0.7075 -0.0294
    8CHL1   H17  543   0.350   5.588   9.801  1.7564 -1.2436 -1.7714
    8CHL1   C13  544   0.312   5.443   9.954 -0.1727  0.3613 -0.3185
    8CHL1   C18  545   0.226   5.309   9.967  0.2700  0.2432  0.3941
    8CHL1  H18A  546   0.238   5.267  10.069 -0.5203 -0.8461  0.0515
    8CHL1  H18B  547   0.119   5.338   9.962  0.3300  0.2879 -1.7207
    8CHL1  H18C  548   0.268   5.232   9.898  0.6268 -0.0648  0.9483
    8CHL1   C12  549   0.453   5.416   9.989 -0.4050  0.0508  0.1495
    8CHL1  H12A  550   0.498   5.334   9.930  0.3089  0.8560 -0.4625
    8CHL1  H12B  551   0.501   5.516   9.974  1.1675 -0.5722  0.8141
    8CHL1   C11  552   0.474   5.366  10.132  0.1382  0.7685 -0.3445
    8CHL1  H11A  553   0.426   5.267  10.145 -1.1649  0.8533 -3.5140
    8CHL1  H11B  554   0.583   5.358  10.150  0.3860 -0.1917 -2.0147
    8CHL1    C9  555   0.413   5.463  10.234  0.0731  0.0508 -0.3956
    8CHL1    H9  556   0.462   5.562  10.222  1.0772 -0.4653 -0.7033
    8CHL1   C10  557   0.431   5.422  10.387  0.6246 -0.1059 -0.1560
    8CHL1   C19  558   0.358   5.287  10.413 -0.1892  0.0737 -0.5925
    8CHL1  H19A  559   0.405   5.231  10.329  1.1624  0.0158  0.1738
    8CHL1  H19B  560   0.383   5.246  10.513  1.7013 -1.1715 -1.5017
    8CHL1  H19C  561   0.248   5.292  10.400 -0.3593 -1.5932 -0.0615
    8CHL1    C1  562   0.585   5.415  10.412 -0.1032 -0.5221  0.2783
    8CHL1   H1A  563   0.635   5.336  10.351 -0.1326  0.4848 -1.1210
    8CHL1   H1B  564   0.634   5.507  10.374 -0.6647 -0.7196 -0.9951
    8CHL1    C2  565   0.625   5.406  10.559  0.1177 -0.1259  0.0768
    8CHL1   H2A  566   0.735   5.421  10.568  0.2276 -1.1498  0.5645
    8CHL1   H2B  567   0.590   5.315  10.611  0.4694  0.0439  0.6145
    8CHL1   C20  568   0.273   5.417   9.696 -0.6591  0.0519  0.0232
    8CHL1   H20  569   0.205   5.330   9.709  2.1822 -2.5578 -1.3605
    8CHL1   C21  570   0.408   5.334   9.672  0.2239 -0.2434 -0.1078
    8CHL1  H21A  571   0.415   5.321   9.562  0.1594 -1.0602 -0.0163
    8CHL1  H21B  572   0.400   5.231   9.710  2.9836 -0.6565 -0.4274
    8CHL1  H21C  573   0.502   5.388   9.698  1.2465 -1.3522 -1.3617
    8CHL1   C22  574   0.223   5.495   9.568  0.0710  0.0580  0.2499
    8CHL1  H22A  575   0.125   5.541   9.596  0.1052  0.1495  0.2182
    8CHL1  H22B  576   0.295   5.577   9.551 -1.4768  1.3431 -0.4208
    8CHL1   C23  577   0.189   5.417   9.432 -0.1308  0.0112  0.1203
    8CHL1  H23A  578   0.285   5.374   9.396  0.9490  1.7667  0.7758
    8CHL1  H23B  579   0.120   5.337   9.467  0.1667 -0.1346  0.3768
    8CHL1   C24  580   0.134   5.504   9.313 -0.5081  0.0447 -0.2562
    8CHL1  H24A  581   0.058   5.575   9.352  1.0069  0.9133  1.2302
    8CHL1  H24B  582   0.217   5.568   9.276  1.3505 -1.8732  0.3215
    8CHL1   C25  583   0.077   5.417   9.197  0.1673 -0.0378 -0.4707
    8CHL1   H25  584   0.149   5.346   9.152  1.8046  0.4524  1.2318
    8CHL1   C26  585  -0.049   5.342   9.238 -0.2214  0.6196 -0.0021
    8CHL1  H26A  586  -0.119   5.429   9.237  0.9534  1.5931 -0.8983
    8CHL1  H26B  587  -0.070   5.267   9.158 -1.4151  0.5558  0.3510
    8CHL1  H26C  588  -0.050   5.290   9.335  0.6918  0.7425  0.0825
    8CHL1   C27  589   0.050   5.509   9.083  0.1068  0.8252  1.0840
    8CHL1  H27A  590  -0.005   5.448   9.008 -0.4975  1.4177  1.0386
    8CHL1  H27B  591  -0.018   5.593   9.112 -0.9456  0.7480 -0.9291
    8CHL1  H27C  592   0.143   5.551   9.038 -0.2201 -0.8561 -1.3799
    9CHL1    C3  593   2.984   0.374  10.419  0.8262  0.7612  0.1178
    9CHL1    H3  594   2.975   0.263  10.411  0.0548  0.8386 -0.1920
    9CHL1    O3  595   2.978   0.401  10.558  0.0543  0.4740 -0.0926
    9CHL1   H3'  596   2.923   0.337  10.604  0.3469  0.7983  0.7411
    9CHL1    C4  597   3.116   0.425  10.354 -0.2399  0.0984  0.4555
    9CHL1   H4A  598   3.136   0.531  10.379  0.5886 -0.0259  0.3375
    9CHL1   H4B  599   3.195   0.364  10.403 -0.9392  0.0387  1.5489
    9CHL1    C5  600   3.111   0.409  10.206 -0.1973 -0.3204  0.5668
    9CHL1    C6  601   3.205   0.332  10.143 -0.2813 -0.5299 -0.9060
    9CHL1    H6  602   3.279   0.283  10.208  1.3941  3.1927  0.2705
    9CHL1    C7  603   3.225   0.324   9.997 -0.3341  0.7662 -0.4019
    9CHL1   H7A  604   3.329   0.353   9.970 -0.5051  1.1631 -0.6388
    9CHL1   H7B  605   3.217   0.217   9.967  1.6513  0.7924 -1.1664
    9CHL1    C8  606   3.124   0.416   9.919 -0.1354 -0.2822 -0.2644
    9CHL1    H8  607   3.169   0.518   9.928 -2.0489  0.7151 -1.3863
    9CHL1   C14  608   3.110   0.391   9.768 -0.3473 -0.2866  0.0629
    9CHL1   H14  609   3.068   0.288   9.764  0.1284 -0.4501 -2.3079
    9CHL1   C15  610   3.235   0.372   9.675 -0.3148  0.2566  0.0022
    9CHL1  H15A  611   3.319   0.441   9.695 -1.5803  1.5159  1.2410
    9CHL1  H15B  612   3.266   0.265   9.672 -0.6133  0.1417  0.7135
    9CHL1   C16  613   3.173   0.396   9.530  0.3996  0.6690 -0.9417
    9CHL1  H16A  614   3.228   0.474   9.473 -1.2265  2.7167  0.1720
    9CHL1  H16B  615   3.193   0.303   9.472  2.6699  1.3005 -1.2831
    9CHL1   C17  616   3.029   0.444   9.550 -0.3897  0.5482  0.7900
    9CHL1   H17  617   2.964   0.354   9.543  1.1035 -0.4419 -1.4964
    9CHL1   C13  618   3.017   0.491   9.694  0.8433  0.2516  0.0671
    9CHL1   C18  619   3.085   0.633   9.708  0.1992  0.1461  0.2038
    9CHL1  H18A  620   3.027   0.703   9.644 -0.0546  0.3591  0.6633
    9CHL1  H18B  621   3.097   0.672   9.811 -2.1072  1.6270 -0.0083
    9CHL1  H18C  622   3.190   0.626   9.671  0.7111 -1.6962  1.8396
    9CHL1   C12  623   2.878   0.473   9.759 -0.4638  1.1644 -0.3214
    9CHL1  H12A  624   2.794   0.528   9.712 -1.0097  1.3139  0.8149
    9CHL1  H12B  625   2.843   0.367   9.755  0.2707  0.8605  0.8444
    9CHL1   C11  626   2.887   0.515   9.902 -0.5750  0.5228 -0.3509
    9CHL1  H11A  627   2.910   0.624   9.906  2.4720 -0.0463  1.1418
    9CHL1  H11B  628   2.788   0.511   9.952  0.8230 -0.9099  2.5350
    9CHL1    C9  629   2.990   0.424   9.986  0.0945 -0.1886 -0.1512
    9CHL1    H9  630   2.953   0.319   9.977 -2.0197  0.4619  0.3448
    9CHL1   C10  631   3.002   0.476  10.135  0.0885  0.3720  0.0327
    9CHL1   C19  632   3.015   0.629  10.135  0.3080  0.0050  0.0574
    9CHL1  H19A  633   3.021   0.662  10.241  0.0603 -0.7292  0.3043
    9CHL1  H19B  634   3.098   0.674  10.076  2.1470 -0.4875  2.1493
    9CHL1  H19C  635   2.927   0.681  10.092  0.3092 -0.3791 -0.4179
    9CHL1    C1  636   2.869   0.440  10.204  0.0977  0.1361 -0.0458
    9CHL1   H1A  637   2.790   0.509  10.169 -0.9152  0.5457  2.7733
    9CHL1   H1B  638   2.832   0.338  10.181 -0.0736  0.0858  0.4330
    9CHL1    C2  639   2.868   0.444  10.356 -0.0675  0.6548  0.2265
    9CHL1   H2A  640   2.772   0.408  10.399 -0.1066  2.4311  1.7881
    9CHL1   H2B  641   2.873   0.551  10.386  1.4423  0.4907  0.6444
    9CHL1   C20  642   3.000   0.541   9.433 -0.3757 -0.3689 -0.3293
    9CHL1   H20  643   3.064   0.631   9.445 -0.8690 -0.2654  1.9831
    9CHL1   C21  644   2.858   0.593   9.451 -0.4984  0.2560  0.2531
    9CHL1  H21A  645   2.841   0.662   9.366  0.2529 -1.7477 -1.6311
    9CHL1  H21B  646   2.850   0.644   9.549 -0.9642  0.9397 -0.1362
    9CHL1  H21C  647   2.786   0.509   9.444 -0.0294 -0.2651  1.3233
    9CHL1   C22  648   3.019   0.480   9.293 -0.3350 -0.9184 -0.0059
    9CHL1  H22A  649   3.123   0.448   9.275 -0.8606 -3.1694  0.6656
    9CHL1  H22B  650   2.952   0.392   9.282 -1.2075 -0.5057  1.6229
    9CHL1   C23  651   2.981   0.569   9.173  0.1765 -0.1164  0.2310
    9CHL1  H23A  652   2.870   0.572   9.171  0.0781 -2.3283  0.1998
    9CHL1  H23B  653   3.022   0.672   9.183 -0.1353  0.5320 -3.7743
    9CHL1   C24  654   3.033   0.516   9.043  0.2130 -0.5122  0.9937
    9CHL1  H24A  655   3.141   0.490   9.034 -0.1722 -1.9316  0.2148
    9CHL1  H24B  656   2.984   0.417   9.028 -1.2748  0.2252  0.8126
    9CHL1   C25  657   3.011   0.611   8.929  0.0781  0.5036  0.2129
    9CHL1   H25  658   2.908   0.652   8.923 -1.1122 -2.4170 -1.0060
    9CHL1   C26  659   3.095   0.731   8.938  0.0848 -0.8626 -0.4146
    9CHL1  H26A  660   3.070   0.793   8.849  0.5425 -1.1107 -0.7180
    9CHL1  H26B  661   3.081   0.797   9.027 -0.5720 -0.2990 -0.9240
    9CHL1  H26C  662   3.204   0.713   8.928 -0.0080 -0.7617 -1.8822
    9CHL1   C27  663   3.046   0.547   8.792 -0.1333 -0.5617 -1.1054
    9CHL1  H27A  664   2.956   0.496   8.752  0.2503 -1.3017 -1.0334
    9CHL1  H27B  665   3.066   0.635   8.726 -0.0051  0.4212  0.2014
    9CHL1  H27C  666   3.136   0.483   8.788  0.0478 -0.6149  1.7935
   10CHL1    C3  667   2.815   4.078  10.391  0.4949  0.2676  0.0518
   10CHL1    H3  668   2.704   4.078  10.382  0.4485  0.5046  0.5934
   10CHL1    O3  669   2.847   4.059  10.524 -0.0004  0.3025 -0.7801
   10CHL1   H3'  670   2.827   3.966  10.538  2.7221 -0.0799  1.4499
   10CHL1    C4  671   2.887   3.962  10.324  0.2613  0.0790  0.1804
   10CHL1   H4A  672   2.996   3.962  10.348  0.4162 -0.2876 -0.4954
   10CHL1   H4B  673   2.852   3.862  10.358 -0.7694  0.3069 -0.1723
   10CHL1    C5  674   2.865   3.964  10.173 -0.1293 -0.1413 -0.5701
   10CHL1    C6  675   2.821   3.865  10.096 -1.1126  0.9974  1.0211
   10CHL1    H6  676   2.799   3.774  10.154  1.6654  0.4581  1.3887
   10CHL1    C7  677   2.810   3.867   9.941 -0.1653 -0.5405 -0.3558
   10CHL1   H7A  678   2.850   3.766   9.915  0.1435 -0.0416 -1.8803
   10CHL1   H7B  679   2.703   3.870   9.912 -0.0675  2.1821 -0.6495
   10CHL1    C8  680   2.880   3.975   9.873 -0.8727 -0.4849  0.2375
   10CHL1    H8  681   2.985   3.940   9.882 -0.3272  1.5138  2.5368
   10CHL1   C14  682   2.843   3.986   9.733 -0.1201 -0.1143 -0.1502
   10CHL1   H14  683   2.733   4.003   9.732  0.1658  3.0065  2.4346
   10CHL1   C15  684   2.852   3.864   9.638 -0.4170  0.1296  0.1297
   10CHL1  H15A  685   2.950   3.815   9.652 -1.6296 -3.0060 -1.4425
   10CHL1  H15B  686   2.770   3.801   9.680 -0.7523 -0.7225 -1.7211
   10CHL1   C16  687   2.829   3.922   9.497 -0.4796 -0.8429 -0.4588
   10CHL1  H16A  688   2.902   3.894   9.418  0.1821  3.0746 -1.4462
   10CHL1  H16B  689   2.730   3.885   9.465 -1.5446  0.6094  0.9682
   10CHL1   C17  690   2.832   4.077   9.503 -0.0950  0.6856 -0.6523
   10CHL1   H17  691   2.725   4.103   9.517  0.2508  1.4381  0.7994
   10CHL1   C13  692   2.889   4.105   9.645  0.8460 -0.0379 -0.4155
   10CHL1   C18  693   3.043   4.097   9.629 -0.2172 -0.2396 -0.0722
   10CHL1  H18A  694   3.084   4.082   9.731 -3.1184 -1.4568  1.0123
   10CHL1  H18B  695   3.079   4.005   9.577  1.6551  1.2797 -1.6011
   10CHL1  H18C  696   3.079   4.182   9.567 -1.3524  0.1929 -0.1494
   10CHL1   C12  697   2.855   4.235   9.721 -0.5716 -0.4324 -0.4867
   10CHL1  H12A  698   2.901   4.322   9.670  0.8925 -1.6040 -1.2356
   10CHL1  H12B  699   2.745   4.248   9.718 -0.6737 -1.0085  0.3185
   10CHL1   C11  700   2.903   4.233   9.870  0.6546  0.5882  0.5454
   10CHL1  H11A  701   3.010   4.258   9.882  0.9780  0.6040 -1.8816
   10CHL1  H11B  702   2.846   4.315   9.920 -2.6039 -1.9356  1.3387
   10CHL1    C9  703   2.853   4.105   9.950 -0.1179  0.3287  0.5812
   10CHL1    H9  704   2.743   4.114   9.949 -0.0034  2.1884  0.6642
   10CHL1   C10  705   2.902   4.099  10.101  0.2742  0.3940 -0.4391
   10CHL1   C19  706   3.054   4.118  10.097 -0.0008  0.5566  0.3918
   10CHL1  H19A  707   3.108   4.091  10.190 -1.4825  2.3160  1.8371
   10CHL1  H19B  708   3.103   4.058  10.017  0.0255  1.2976 -0.1604
   10CHL1  H19C  709   3.084   4.223  10.078  1.3388  0.2168  0.5531
   10CHL1    C1  710   2.843   4.215  10.182  0.3339  0.2380 -0.3128
   10CHL1   H1A  711   2.879   4.314  10.145  1.0560  0.0422 -0.1510
   10CHL1   H1B  712   2.734   4.208  10.161  0.2851  2.2201 -0.9872
   10CHL1    C2  713   2.865   4.210  10.335  0.1494 -0.0661 -0.4154
   10CHL1   H2A  714   2.801   4.288  10.382 -1.2249  0.6390 -3.2297
   10CHL1   H2B  715   2.972   4.224  10.362  0.1314  0.7009 -0.7024
   10CHL1   C20  716   2.885   4.153   9.380 -0.5293  0.1783  0.1572
   10CHL1   H20  717   2.988   4.115   9.367 -1.1728 -1.3268 -0.8501
   10CHL1   C21  718   2.877   4.302   9.401  0.9775  0.4168  0.1738
   10CHL1  H21A  719   2.901   4.365   9.313  0.8693 -0.3221 -0.3998
   10CHL1  H21B  720   2.959   4.338   9.465  1.6236  1.5996 -1.2703
   10CHL1  H21C  721   2.776   4.326   9.442  0.6228 -1.0577  0.2387
   10CHL1   C22  722   2.814   4.103   9.255  0.1553 -0.6332 -0.2819
   10CHL1  H22A  723   2.774   4.001   9.272 -0.9295  0.1469  2.5097
   10CHL1  H22B  724   2.723   4.166   9.244 -0.4403 -1.2482  0.8727
   10CHL1   C23  725   2.888   4.113   9.122  0.8840 -0.4059  0.1740
   10CHL1  H23A  726   2.928   4.217   9.113  1.5347 -0.7853 -1.9985
   10CHL1  H23B  727   2.973   4.041   9.118  0.4929 -0.8996 -4.2759
   10CHL1   C24  728   2.810   4.094   8.992  0.0282  0.5178 -0.0298
   10CHL1  H24A  729   2.778   3.990   8.969 -2.1044  0.7257  1.6160
   10CHL1  H24B  730   2.716   4.151   9.008 -0.1388 -0.3960  2.7960
   10CHL1   C25  731   2.892   4.152   8.874 -0.1659 -0.0686 -0.5195
   10CHL1   H25  732   2.947   4.241   8.911  0.3525 -0.9376  0.8902
   10CHL1   C26  733   2.994   4.051   8.834 -0.5335  0.9036 -0.5732
   10CHL1  H26A  734   2.946   3.952   8.815  1.9470 -0.3904 -0.5351
   10CHL1  H26B  735   3.043   4.075   8.737  1.0720  0.8302  0.1876
   10CHL1  H26C  736   3.081   4.045   8.903  0.1488  0.6407 -1.4318
   10CHL1   C27  737   2.801   4.169   8.753  0.1986 -0.2308 -0.0129
   10CHL1  H27A  738   2.809   4.077   8.690  1.4147 -0.5599  0.5941
   10CHL1  H27B  739   2.694   4.188   8.777  0.2675  0.1586 -0.0107
   10CHL1  H27C  740   2.835   4.258   8.696 -1.4851 -1.2099 -2.7698
   11CHL1    C3  741   6.620   6.597  10.535  0.3366  0.1458 -0.4863
   11CHL1    H3  742   6.514   6.576  10.563  0.8122 -0.8272  0.6675
   11CHL1    O3  743   6.679   6.609  10.664  0.0713  0.3744 -0.1686
   11CHL1   H3'  744   6.771   6.632  10.651  0.8578 -2.0469  0.5563
   11CHL1    C4  745   6.682   6.470  10.463 -0.9614 -0.8362  0.1000
   11CHL1   H4A  746   6.792   6.480  10.473 -0.5077 -0.9904 -3.5167
   11CHL1   H4B  747   6.655   6.376  10.516 -1.8596 -1.7547 -1.8794
   11CHL1    C5  748   6.645   6.467  10.320 -0.4447  0.5518 -0.0471
   11CHL1    C6  749   6.582   6.358  10.264  0.2899  0.0885 -0.1868
   11CHL1    H6  750   6.585   6.266  10.323  3.0230  0.5548  0.5611
   11CHL1    C7  751   6.541   6.347  10.115 -0.7764 -0.1892  0.2390
   11CHL1   H7A  752   6.562   6.247  10.072  3.4857 -0.1404  1.6642
   11CHL1   H7B  753   6.436   6.370  10.086 -1.4799 -0.3872  2.4311
   11CHL1    C8  754   6.624   6.441  10.022 -0.5564  0.1078 -0.1424
   11CHL1    H8  755   6.730   6.407  10.025 -0.7440 -0.4517  0.3735
   11CHL1   C14  756   6.570   6.447   9.877  0.1642 -0.5526 -0.3028
   11CHL1   H14  757   6.464   6.481   9.875  0.0965 -0.7927 -1.0557
   11CHL1   C15  758   6.561   6.316   9.802 -0.0858  0.2312 -0.3715
   11CHL1  H15A  759   6.644   6.246   9.822 -0.5028 -0.1007  0.2508
   11CHL1  H15B  760   6.464   6.274   9.838  0.6717 -0.4515  0.9254
   11CHL1   C16  761   6.567   6.353   9.653  0.0619 -0.3914 -0.0856
   11CHL1  H16A  762   6.663   6.303   9.633  0.0141 -0.8520  0.7607
   11CHL1  H16B  763   6.486   6.322   9.584 -0.0727 -0.4604  0.1005
   11CHL1   C17  764   6.583   6.507   9.654  0.7342 -0.8471  0.0559
   11CHL1   H17  765   6.480   6.549   9.659  0.7833 -0.1815 -2.7968
   11CHL1   C13  766   6.654   6.536   9.784 -0.1708 -0.0673  0.1187
   11CHL1   C18  767   6.797   6.497   9.773 -0.3117 -0.1157  0.4595
   11CHL1  H18A  768   6.861   6.507   9.863  0.9517 -3.7640  0.1547
   11CHL1  H18B  769   6.800   6.387   9.760  2.0167 -0.0312 -0.1703
   11CHL1  H18C  770   6.860   6.545   9.695  1.4978 -2.6242  0.2515
   11CHL1   C12  771   6.643   6.685   9.839  0.0428  0.4720  0.2795
   11CHL1  H12A  772   6.695   6.741   9.758 -0.7568  1.1774  0.2333
   11CHL1  H12B  773   6.539   6.722   9.828  0.1706  0.7673  0.0399
   11CHL1   C11  774   6.701   6.696   9.986  0.5715 -0.5477 -0.7258
   11CHL1  H11A  775   6.811   6.682   9.994  0.7952  1.6136  0.8713
   11CHL1  H11B  776   6.672   6.798  10.017  3.4147  0.3837 -0.8463
   11CHL1    C9  777   6.629   6.585  10.078  0.3355 -0.1018  0.3612
   11CHL1    H9  778   6.523   6.614  10.090  0.0569 -1.6324  2.1470
   11CHL1   C10  779   6.673   6.591  10.227 -0.3967  0.6668  0.4073
   11CHL1   C19  780   6.828   6.604  10.229  0.4497 -0.6930  0.9760
   11CHL1  H19A  781   6.863   6.701  10.188  0.2171 -1.4281 -1.1106
   11CHL1  H19B  782   6.874   6.598  10.330  0.7806 -1.0285  0.8090
   11CHL1  H19C  783   6.874   6.529  10.160  0.5525  3.1964 -3.7738
   11CHL1    C1  784   6.611   6.713  10.297  0.4365 -0.4208 -0.2467
   11CHL1   H1A  785   6.643   6.804  10.242 -0.2585 -1.6849 -2.8841
   11CHL1   H1B  786   6.501   6.706  10.283  0.3685 -0.2037  0.1482
   11CHL1    C2  787   6.643   6.726  10.452  0.7896  0.0928  0.6071
   11CHL1   H2A  788   6.582   6.808  10.495 -0.2578  0.4616 -1.4762
   11CHL1   H2B  789   6.747   6.766  10.449  0.9530 -0.3830 -1.4876
   11CHL1   C20  790   6.646   6.569   9.525 -0.0408  0.5479 -0.1401
   11CHL1   H20  791   6.713   6.654   9.550  0.8198  0.4816 -2.0147
   11CHL1   C21  792   6.525   6.612   9.437 -0.5876  0.3583  0.1776
   11CHL1  H21A  793   6.463   6.523   9.411 -0.8597  0.5594  0.1342
   11CHL1  H21B  794   6.558   6.670   9.349  1.3645  0.3413  0.8403
   11CHL1  H21C  795   6.459   6.674   9.502 -0.0558 -0.5046  1.6071
   11CHL1   C22  796   6.731   6.465   9.441  0.6639 -0.3717 -0.4573
   11CHL1  H22A  797   6.802   6.425   9.517  1.3147 -1.2010 -1.4757
   11CHL1  H22B  798   6.665   6.393   9.388  2.3305 -1.7020 -0.8125
   11CHL1   C23  799   6.824   6.544   9.342  0.0157  0.2023 -0.4414
   11CHL1  H23A  800   6.773   6.617   9.275  0.6944  0.3805 -0.7736
   11CHL1  H23B  801   6.881   6.616   9.404 -0.0466  0.1869 -0.3667
   11CHL1   C24  802   6.898   6.448   9.261 -0.4498  0.5096  0.9442
   11CHL1  H24A  803   6.914   6.357   9.323 -0.9895  1.0845  1.9658
   11CHL1  H24B  804   6.841   6.412   9.173  2.1511 -1.3133 -0.1233
   11CHL1   C25  805   7.029   6.512   9.224 -0.1156 -0.2542  0.2987
   11CHL1   H25  806   7.067   6.573   9.310 -0.6332  2.3902 -1.2369
   11CHL1   C26  807   7.134   6.410   9.188 -0.3102 -0.0041  0.3444
   11CHL1  H26A  808   7.148   6.334   9.268  0.3220 -0.0409  0.2029
   11CHL1  H26B  809   7.104   6.370   9.089 -2.9978  0.5981  0.8354
   11CHL1  H26C  810   7.229   6.466   9.175  0.3433 -0.7471  1.7140
   11CHL1   C27  811   7.002   6.619   9.116  0.7238 -0.2284 -0.0439
   11CHL1  H27A  812   6.945   6.696   9.173 -1.4772 -1.9872  0.2556
   11CHL1  H27B  813   7.097   6.657   9.072  0.6587  0.8817  0.7226
   11CHL1  H27C  814   6.946   6.575   9.031  1.2153 -1.7794  0.4119
   12CHL1    C3  815   2.489   4.955  10.501  0.9142 -0.2283 -0.2762
   12CHL1    H3  816   2.523   4.849  10.512  0.1175 -0.4250  0.3655
   12CHL1    O3  817   2.425   4.985  10.624  0.3576 -0.0219  0.0787
   12CHL1   H3'  818   2.408   5.080  10.619 -1.1097 -0.2728 -0.2873
   12CHL1    C4  819   2.609   5.045  10.470  0.0299 -0.1272  0.0971
   12CHL1   H4A  820   2.573   5.147  10.495  0.3025  0.0826 -0.3432
   12CHL1   H4B  821   2.680   5.023  10.553 -1.1322  1.8933  1.7160
   12CHL1    C5  822   2.661   5.046  10.326 -0.6295  0.6334  0.0218
   12CHL1    C6  823   2.787   5.017  10.299  0.3264  0.4372  0.3438
   12CHL1    H6  824   2.855   4.984  10.378 -2.5840 -5.6050  0.9173
   12CHL1    C7  825   2.840   5.024  10.157  0.7922  0.0129 -0.0742
   12CHL1   H7A  826   2.943   5.064  10.162  0.6630  0.6703 -1.9491
   12CHL1   H7B  827   2.854   4.917  10.129  0.3704 -0.1048  0.1518
   12CHL1    C8  828   2.749   5.093  10.054 -0.0929 -0.7251  0.2904
   12CHL1    H8  829   2.768   5.202  10.068  2.1285 -1.2702  2.1309
   12CHL1   C14  830   2.787   5.051   9.908  0.2032 -0.1348 -0.3567
   12CHL1   H14  831   2.758   4.944   9.906 -2.2100  0.4391  0.7295
   12CHL1   C15  832   2.931   5.068   9.867 -0.3976  0.2169  0.7170
   12CHL1  H15A  833   2.963   5.163   9.914 -1.5899  0.8464  0.2929
   12CHL1  H15B  834   2.992   4.986   9.911 -0.2187  1.6462  3.3417
   12CHL1   C16  835   2.935   5.064   9.711 -0.0669  0.1432  0.3093
   12CHL1  H16A  836   2.975   5.160   9.672 -4.9852  1.6807 -1.7791
   12CHL1  H16B  837   2.981   4.974   9.666 -1.5101 -1.2097  1.4368
   12CHL1   C17  838   2.783   5.061   9.661 -0.1436 -0.2909 -0.2379
   12CHL1   H17  839   2.758   4.954   9.648  0.0389 -0.2428 -1.0244
   12CHL1   C13  840   2.710   5.111   9.793  0.6872  0.4338  0.1658
   12CHL1   C18  841   2.725   5.262   9.800 -0.4277  0.0442 -0.0690
   12CHL1  H18A  842   2.823   5.314   9.795 -1.8385  2.9064 -0.1825
   12CHL1  H18B  843   2.656   5.313   9.729  0.7135 -0.2318 -1.4275
   12CHL1  H18C  844   2.684   5.293   9.899 -1.9379 -2.4626  0.1671
   12CHL1   C12  845   2.566   5.060   9.809 -0.5985 -0.2429  0.6639
   12CHL1  H12A  846   2.501   5.103   9.730 -0.5064  1.4291  1.4460
   12CHL1  H12B  847   2.561   4.949   9.816 -1.8013 -0.2037  0.7052
   12CHL1   C11  848   2.511   5.103   9.947 -0.0293 -0.1408  0.6158
   12CHL1  H11A  849   2.489   5.212   9.949  0.2239 -0.0709 -0.0050
   12CHL1  H11B  850   2.418   5.043   9.961 -0.4585  0.1410 -0.8172
   12CHL1    C9  851   2.600   5.053  10.068  0.1780 -0.4579 -0.0676
   12CHL1    H9  852   2.605   4.942  10.056 -0.3826 -0.4953  0.0447
   12CHL1   C10  853   2.548   5.068  10.216  0.7056  0.3758 -0.3958
   12CHL1   C19  854   2.478   5.201  10.239  0.3138 -0.1465 -0.8335
   12CHL1  H19A  855   2.465   5.243  10.342  1.9455  1.0216 -1.0806
   12CHL1  H19B  856   2.551   5.275  10.201 -1.1169  1.0984 -1.2454
   12CHL1  H19C  857   2.387   5.213  10.177 -0.7959  1.4985  0.9746
   12CHL1    C1  858   2.433   4.965  10.240 -0.3951 -0.1195 -1.0551
   12CHL1   H1A  859   2.341   4.972  10.177 -1.0876  0.3790 -0.0177
   12CHL1   H1B  860   2.470   4.865  10.209 -1.2807  0.3916 -4.0318
   12CHL1    C2  861   2.384   4.963  10.393  0.5391  0.2855  0.3761
   12CHL1   H2A  862   2.318   4.876  10.412 -1.0803  1.2885 -0.4197
   12CHL1   H2B  863   2.328   5.059  10.401 -0.2344  0.0615 -1.8105
   12CHL1   C20  864   2.746   5.131   9.529 -0.7139 -0.1650  0.2756
   12CHL1   H20  865   2.721   5.237   9.546 -1.1960 -0.1365 -0.5403
   12CHL1   C21  866   2.611   5.080   9.469  0.2584  0.3085 -0.4663
   12CHL1  H21A  867   2.534   5.104   9.546  2.1883  0.8298  1.4183
   12CHL1  H21B  868   2.618   4.971   9.449 -0.5066  0.2870 -0.6496
   12CHL1  H21C  869   2.587   5.143   9.381 -0.9922  3.6727  2.0330
   12CHL1   C22  870   2.851   5.120   9.416  0.8224 -0.8941 -0.7521
   12CHL1  H22A  871   2.952   5.143   9.457  0.5741  0.3796 -0.8138
   12CHL1  H22B  872   2.853   5.016   9.375 -0.3593 -0.7191 -1.3081
   12CHL1   C23  873   2.822   5.215   9.293 -0.1561 -0.0629 -0.2893
   12CHL1  H23A  874   2.718   5.217   9.255 -0.3018  0.6719  0.1248
   12CHL1  H23B  875   2.844   5.320   9.323  0.8908  0.5827 -3.0479
   12CHL1   C24  876   2.930   5.192   9.183  1.1900 -0.1399 -0.0003
   12CHL1  H24A  877   3.035   5.182   9.216  1.6139 -0.2202 -1.3280
   12CHL1  H24B  878   2.913   5.090   9.144 -2.6703 -0.3946  1.8297
   12CHL1   C25  879   2.907   5.296   9.066 -0.8301  0.7808 -0.4097
   12CHL1   H25  880   2.914   5.396   9.114 -1.6307  1.5511 -1.8476
   12CHL1   C26  881   3.019   5.285   8.964 -0.1994  0.0930  0.0623
   12CHL1  H26A  882   3.115   5.297   9.018  0.1325 -0.0122 -0.4986
   12CHL1  H26B  883   3.014   5.184   8.918 -0.1254  0.1747 -0.1225
   12CHL1  H26C  884   3.007   5.366   8.889 -0.8881  0.7005  0.7998
   12CHL1   C27  885   2.763   5.293   9.001  0.1085  0.0637  0.3387
   12CHL1  H27A  886   2.677   5.288   9.071 -1.9507 -1.7237 -2.1369
   12CHL1  H27B  887   2.757   5.390   8.947 -0.7102  0.6758  1.4929
   12CHL1  H27C  888   2.743   5.203   8.940 -1.3099  0.8209 -0.3843
   13CHL1    C3  889   0.260   6.052  10.336 -0.1410 -0.6757 -0.0911
   13CHL1    H3  890   0.205   5.956  10.327 -1.0104 -0.3882  1.6641
   13CHL1    O3  891   0.283   6.083  10.475  0.0792  0.0882  0.5855
   13CHL1   H3'  892   0.194   6.094  10.509 -1.2375 -3.3305 -1.2424
   13CHL1    C4  893   0.403   6.032  10.278  0.2659 -0.4543  0.2424
   13CHL1   H4A  894   0.468   6.118  10.304  1.6591 -1.2879 -0.3875
   13CHL1   H4B  895   0.451   5.944  10.326  2.2281  0.7874  0.6477
   13CHL1    C5  896   0.404   6.019  10.124 -0.2989  0.0023  0.2727
   13CHL1    C6  897   0.461   5.910  10.069 -0.0389  0.0146  0.6852
   13CHL1    H6  898   0.513   5.843  10.139  0.1811 -0.3455  0.1771
   13CHL1    C7  899   0.470   5.878   9.922 -0.6088  0.6892  0.1017
   13CHL1   H7A  900   0.572   5.851   9.886 -0.0454  2.9165 -0.1004
   13CHL1   H7B  901   0.397   5.799   9.894 -0.6748  1.5019 -2.2230
   13CHL1    C8  902   0.414   6.002   9.836 -0.2916 -0.8614 -1.1112
   13CHL1    H8  903   0.501   6.070   9.838  1.7866 -3.3630 -1.0521
   13CHL1   C14  904   0.377   5.949   9.704  0.4680 -0.5750 -0.0580
   13CHL1   H14  905   0.290   5.883   9.726  1.3501 -1.3405  1.2996
   13CHL1   C15  906   0.477   5.849   9.637  0.2972  0.0512  0.2430
   13CHL1  H15A  907   0.582   5.881   9.652  0.7133  0.2322 -2.5538
   13CHL1  H15B  908   0.459   5.743   9.665 -1.5898  0.1123 -0.5249
   13CHL1   C16  909   0.436   5.880   9.490 -0.7019  0.2648  0.7772
   13CHL1  H16A  910   0.520   5.928   9.436  0.3923 -1.4301  0.8763
   13CHL1  H16B  911   0.409   5.779   9.450  0.6086  0.2507 -0.1437
   13CHL1   C17  912   0.315   5.977   9.485  0.7873 -0.2794  0.0821
   13CHL1   H17  913   0.220   5.921   9.502  0.2119  0.0581 -1.8019
   13CHL1   C13  914   0.327   6.059   9.614 -0.1561 -0.2491  0.3323
   13CHL1   C18  915   0.434   6.167   9.587  0.4722  0.4194 -0.3332
   13CHL1  H18A  916   0.531   6.126   9.549  0.0192  0.8931 -2.1004
   13CHL1  H18B  917   0.404   6.249   9.518  0.0014  1.7509  1.3789
   13CHL1  H18C  918   0.465   6.217   9.681 -1.0649  1.3323 -0.2776
   13CHL1   C12  919   0.197   6.125   9.667 -0.3767 -0.2821 -0.1642
   13CHL1  H12A  920   0.184   6.216   9.605 -0.2109  0.3698  0.7389
   13CHL1  H12B  921   0.109   6.056   9.665 -0.6904  0.0876  0.5476
   13CHL1   C11  922   0.218   6.172   9.810  0.1017 -0.1521 -0.4565
   13CHL1  H11A  923   0.282   6.264   9.814 -1.5333  1.1719 -2.4924
   13CHL1  H11B  924   0.123   6.202   9.860  0.5525 -0.2823  0.5087
   13CHL1    C9  925   0.296   6.069   9.903  0.5347  0.1861 -0.5912
   13CHL1    H9  926   0.217   5.990   9.904  0.3320  0.3397  1.9007
   13CHL1   C10  927   0.317   6.121  10.048  0.8131  0.5119 -0.4735
   13CHL1   C19  928   0.391   6.257  10.060 -0.2543 -0.7480  0.7220
   13CHL1  H19A  929   0.403   6.293  10.165  0.0896  0.9639  0.1262
   13CHL1  H19B  930   0.499   6.253  10.033  0.2655 -1.5234  2.7050
   13CHL1  H19C  931   0.337   6.332   9.999  1.1125  0.1376  0.5516
   13CHL1    C1  932   0.171   6.152  10.121 -0.3272  0.2573  0.9814
   13CHL1   H1A  933   0.116   6.236  10.073  0.7838 -1.2425 -3.3378
   13CHL1   H1B  934   0.112   6.065  10.083  0.8836 -0.7814  1.4142
   13CHL1    C2  935   0.178   6.172  10.277 -0.2402 -0.2385 -0.0608
   13CHL1   H2A  936   0.089   6.197  10.340 -0.6364 -0.1768 -0.6408
   13CHL1   H2B  937   0.245   6.261  10.277 -1.0317  0.3765  0.5267
   13CHL1   C20  938   0.288   6.044   9.348  0.2122  0.0544  0.1385
   13CHL1   H20  939   0.351   6.135   9.348  1.1334 -0.5645 -0.2649
   13CHL1   C21  940   0.141   6.070   9.334 -0.1974  0.1272 -0.1777
   13CHL1  H21A  941   0.080   5.981   9.306 -0.8045  0.0130  1.4123
   13CHL1  H21B  942   0.125   6.147   9.256  0.1528  0.6989  0.3052
   13CHL1  H21C  943   0.095   6.112   9.426 -2.2364 -0.1312 -1.0115
   13CHL1   C22  944   0.347   5.970   9.222  0.2895 -0.6460 -0.3478
   13CHL1  H22A  945   0.458   5.978   9.228  0.2552  0.3445 -0.7949
   13CHL1  H22B  946   0.320   5.862   9.225 -1.8786 -0.1848 -1.0659
   13CHL1   C23  947   0.305   6.025   9.088  0.3624 -0.5568 -0.5143
   13CHL1  H23A  948   0.195   6.022   9.076  0.4693  2.4508 -4.1075
   13CHL1  H23B  949   0.337   6.131   9.083 -0.6274 -0.2823 -1.6664
   13CHL1   C24  950   0.362   5.967   8.965 -0.1285  0.0740  0.4494
   13CHL1  H24A  951   0.473   5.969   8.965  0.0724 -3.7000  0.1884
   13CHL1  H24B  952   0.333   5.860   8.966 -0.3398  0.0929  2.7804
   13CHL1   C25  953   0.319   6.021   8.829 -0.2006  0.1290  0.1065
   13CHL1   H25  954   0.365   6.121   8.815  0.8244 -0.5755 -2.0445
   13CHL1   C26  955   0.366   5.929   8.716  0.1285  0.1988  0.4526
   13CHL1  H26A  956   0.475   5.943   8.697  0.0563  0.0632 -0.0610
   13CHL1  H26B  957   0.346   5.824   8.745 -1.2509  0.1578 -0.5827
   13CHL1  H26C  958   0.323   5.946   8.615  0.3154 -0.1965  0.3061
   13CHL1   C27  959   0.167   6.048   8.821 -0.6757  0.6796 -0.0491
   13CHL1  H27A  960   0.154   6.123   8.902  1.1634 -0.2557  1.1737
   13CHL1  H27B  961   0.142   6.095   8.723  2.4581  2.2350 -0.2428
   13CHL1  H27C  962   0.103   5.962   8.849 -1.6175  1.2181 -0.5003
   14CHL1    C3  963   5.190   3.204  10.641 -0.2039  0.1580  0.4603
   14CHL1    H3  964   5.125   3.289  10.670 -2.0281 -0.6124 -1.1536
   14CHL1    O3  965   5.233   3.139  10.757 -0.2846  0.3339  0.6762
   14CHL1   H3'  966   5.281   3.062  10.726  2.3617  2.1896 -0.1959
   14CHL1    C4  967   5.104   3.107  10.559 -0.6930  0.2152  0.0207
   14CHL1   H4A  968   5.157   3.010  10.558 -2.1732 -0.6353 -1.0826
   14CHL1   H4B  969   5.017   3.081  10.624  0.8342  0.2259  2.2049
   14CHL1    C5  970   5.074   3.143  10.416  0.0239 -0.0778  0.0588
   14CHL1    C6  971   4.956   3.134  10.363  0.5651  0.2710 -0.3105
   14CHL1    H6  972   4.871   3.094  10.419  1.4329  0.3205  1.0739
   14CHL1    C7  973   4.927   3.168  10.216 -0.0785 -0.1628 -0.8920
   14CHL1   H7A  974   4.872   3.083  10.171  0.5801 -1.0165 -0.1162
   14CHL1   H7B  975   4.870   3.264  10.215  1.4593  0.7910 -0.5291
   14CHL1    C8  976   5.060   3.179  10.129  0.5645 -0.9312 -0.3691
   14CHL1    H8  977   5.110   3.081  10.133  1.7039 -0.3231  1.3499
   14CHL1   C14  978   5.032   3.231   9.989 -0.4918  0.4992 -0.2427
   14CHL1   H14  979   4.983   3.329  10.006  0.1244  1.1662 -2.0168
   14CHL1   C15  980   4.940   3.145   9.901  0.2664  0.0484 -0.0108
   14CHL1  H15A  981   4.944   3.043   9.944  2.0900 -0.8780 -2.1990
   14CHL1  H15B  982   4.835   3.180   9.905  0.3005  0.6332 -2.6925
   14CHL1   C16  983   4.993   3.152   9.756  1.0170  0.7753  0.8269
   14CHL1  H16A  984   5.032   3.054   9.723  0.3264  0.8726 -0.3542
   14CHL1  H16B  985   4.907   3.177   9.689  0.6351 -1.3286  0.4583
   14CHL1   C17  986   5.096   3.264   9.760 -0.2901  1.6517  0.1337
   14CHL1   H17  987   5.031   3.354   9.756 -2.4288  0.1311 -0.7916
   14CHL1   C13  988   5.161   3.255   9.906  0.8272 -0.0284  0.8477
   14CHL1   C18  989   5.247   3.118   9.904  0.1241  0.0179  0.5981
   14CHL1  H18A  990   5.213   3.040   9.832 -2.3531  1.0522  0.5722
   14CHL1  H18B  991   5.352   3.143   9.874 -0.0446 -1.2779 -1.2316
   14CHL1  H18C  992   5.271   3.077  10.004 -1.3072 -2.4023  0.0309
   14CHL1   C12  993   5.230   3.371   9.976  0.0433 -0.9232  0.7445
   14CHL1  H12A  994   5.326   3.400   9.929 -1.0559 -0.0090 -1.0535
   14CHL1  H12B  995   5.160   3.457   9.967  2.3099  0.8622 -0.9119
   14CHL1   C11  996   5.269   3.331  10.118 -0.6137 -0.0747 -0.7460
   14CHL1  H11A  997   5.350   3.256  10.111  0.3369  0.7369  0.8188
   14CHL1  H11B  998   5.309   3.420  10.172  0.2586  0.6223 -2.4763
   14CHL1    C9  999   5.148   3.273  10.205  0.2270  0.1603  0.6121
   14CHL1    H9 1000   5.093   3.368  10.222 -0.8058 -0.0324 -1.4101
   14CHL1   C10 1001   5.198   3.205  10.337  0.0565 -0.0241 -0.6176
   14CHL1   C19 1002   5.299   3.091  10.316 -0.3375  0.0475 -0.2707
   14CHL1  H19A 1003   5.401   3.121  10.285 -0.2431 -0.9886 -0.9765
   14CHL1  H19B 1004   5.317   3.031  10.408 -1.6015  0.0838  0.0245
   14CHL1  H19C 1005   5.273   3.027  10.229 -0.3559  2.4075 -2.1072
   14CHL1    C1 1006   5.268   3.316  10.428  0.4448  0.3826 -0.9438
   14CHL1   H1A 1007   5.354   3.366  10.378  0.4602 -0.0639 -1.3795
   14CHL1   H1B 1008   5.191   3.391  10.455  0.5821  0.3218 -0.3855
   14CHL1    C2 1009   5.312   3.264  10.564 -0.7518  0.5112  0.1783
   14CHL1   H2A 1010   5.344   3.356  10.616  0.4540  0.3883 -0.3014
   14CHL1   H2B 1011   5.402   3.198  10.565 -1.2847 -0.2276  0.0264
   14CHL1   C20 1012   5.198   3.261   9.643  0.0518  0.6958  0.0230
   14CHL1   H20 1013   5.253   3.165   9.646 -2.3279 -0.7980 -1.0822
   14CHL1   C21 1014   5.305   3.370   9.650  0.0198  0.4637 -0.4453
   14CHL1  H21A 1015   5.375   3.365   9.736  0.9337 -1.0264 -1.2296
   14CHL1  H21B 1016   5.240   3.460   9.648 -2.6691 -1.3978 -1.3797
   14CHL1  H21C 1017   5.374   3.352   9.564  1.1982  1.9176  0.1557
   14CHL1   C22 1018   5.124   3.262   9.497  0.4583  0.2362  0.0999
   14CHL1  H22A 1019   5.024   3.215   9.512  0.9726 -0.5468  1.3132
   14CHL1  H22B 1020   5.107   3.369   9.476  0.0357 -0.0217 -0.9363
   14CHL1   C23 1021   5.206   3.198   9.382 -0.5145  0.2177 -0.7992
   14CHL1  H23A 1022   5.286   3.270   9.353  0.9912  0.0018  2.3421
   14CHL1  H23B 1023   5.263   3.112   9.423 -0.4723 -0.6275 -2.5698
   14CHL1   C24 1024   5.130   3.156   9.252 -0.5497 -0.3047 -0.1433
   14CHL1  H24A 1025   5.077   3.066   9.291  1.8196 -0.3208  3.5486
   14CHL1  H24B 1026   5.053   3.232   9.225 -1.9299 -0.6449  2.4978
   14CHL1   C25 1027   5.217   3.134   9.128  0.5692 -0.2582 -0.2001
   14CHL1   H25 1028   5.292   3.062   9.168 -0.9987 -3.2094 -2.1688
   14CHL1   C26 1029   5.142   3.060   9.021 -0.4019 -0.3751 -0.6433
   14CHL1  H26A 1030   5.098   2.967   9.062 -0.4518 -1.4011 -2.8638
   14CHL1  H26B 1031   5.060   3.118   8.975  0.1177  0.5561 -0.4351
   14CHL1  H26C 1032   5.209   3.025   8.939 -1.4381 -1.0840 -1.1969
   14CHL1   C27 1033   5.287   3.259   9.079  0.4017  0.7143  0.2318
   14CHL1  H27A 1034   5.336   3.319   9.159  2.8689 -0.9573  0.0669
   14CHL1  H27B 1035   5.369   3.225   9.013 -0.8915  0.1775 -1.1495
   14CHL1  H27C 1036   5.219   3.325   9.020 -0.0778  0.1126  0.1060
   15CHL1    C3 1037   5.198   0.883  10.495  0.4181  0.1763  0.0603
   15CHL1    H3 1038   5.217   0.775  10.476  0.6761  0.0369  1.0613
   15CHL1    O3 1039   5.216   0.910  10.634  0.0188 -0.1384  0.7239
   15CHL1   H3' 1040   5.219   1.006  10.633  2.1839 -0.1339 -0.6155
   15CHL1    C4 1041   5.298   0.972  10.420  0.3259 -0.0944  0.4294
   15CHL1   H4A 1042   5.270   1.075  10.448 -1.8384  0.0301 -1.8121
   15CHL1   H4B 1043   5.401   0.948  10.452 -0.0842 -1.2663  0.9447
   15CHL1    C5 1044   5.279   0.962  10.264  0.3162 -0.6452 -0.4263
   15CHL1    C6 1045   5.378   0.926  10.183  0.1762  0.1502  0.6061
   15CHL1    H6 1046   5.474   0.903  10.232  0.5975  2.4463  0.9650
   15CHL1    C7 1047   5.385   0.932  10.031  0.0265  0.2331  0.5255
   15CHL1   H7A 1048   5.472   0.991   9.997 -0.2108  0.4197  0.2356
   15CHL1   H7B 1049   5.391   0.825  10.002  0.1528 -0.4389  2.8478
   15CHL1    C8 1050   5.248   0.994   9.981  0.2639  0.1395  0.0825
   15CHL1    H8 1051   5.259   1.104   9.992 -0.4513  0.3467 -1.0950
   15CHL1   C14 1052   5.238   0.962   9.834  0.6811 -0.1364 -0.0828
   15CHL1   H14 1053   5.222   0.853   9.827  0.2081 -0.1163  0.6090
   15CHL1   C15 1054   5.358   0.980   9.739  0.4222 -0.5509 -0.8863
   15CHL1  H15A 1055   5.416   1.071   9.766 -1.2764  0.1358  0.6557
   15CHL1  H15B 1056   5.421   0.889   9.742  0.5990 -0.4351 -1.0173
   15CHL1   C16 1057   5.295   0.991   9.601 -0.2345 -0.5119 -0.3718
   15CHL1  H16A 1058   5.358   1.063   9.544  1.0278 -0.5887  0.8796
   15CHL1  H16B 1059   5.318   0.890   9.563  0.1918 -1.3143  1.8370
   15CHL1   C17 1060   5.144   0.997   9.620  0.2594 -0.2826 -0.0823
   15CHL1   H17 1061   5.104   0.894   9.609 -0.5929 -0.0581  0.8097
   15CHL1   C13 1062   5.115   1.034   9.770  0.3224  0.3636  0.2050
   15CHL1   C18 1063   5.112   1.184   9.786 -0.4348 -0.1096  0.1345
   15CHL1  H18A 1064   5.033   1.231   9.724 -1.5073 -3.6124 -1.3968
   15CHL1  H18B 1065   5.095   1.220   9.890 -0.9168 -0.9191  0.3406
   15CHL1  H18C 1066   5.214   1.216   9.753 -0.7589  0.3506 -0.4315
   15CHL1   C12 1067   4.996   0.965   9.839  0.1600  0.7398  0.2045
   15CHL1  H12A 1068   4.899   0.997   9.795 -0.6289 -2.7295 -0.8422
   15CHL1  H12B 1069   4.989   0.859   9.806 -0.3548  1.3838 -1.9178
   15CHL1   C11 1070   4.993   0.981   9.991  0.6051  0.3265 -0.5717
   15CHL1  H11A 1071   4.984   1.091  10.003 -2.3370 -0.0068  1.1848
   15CHL1  H11B 1072   4.901   0.942  10.041  0.5445 -0.0168 -0.9491
   15CHL1    C9 1073   5.130   0.945  10.066 -0.1186  0.1571 -0.0210
   15CHL1    H9 1074   5.122   0.835  10.060 -0.9503  0.1652  0.7401
   15CHL1   C10 1075   5.141   0.987  10.217 -0.9684  0.1113 -0.2417
   15CHL1   C19 1076   5.109   1.139  10.223 -0.6430  1.0030 -0.6787
   15CHL1  H19A 1077   5.125   1.173  10.327 -0.5662  1.2381 -0.7658
   15CHL1  H19B 1078   5.187   1.191  10.164  0.9717 -1.7716 -1.1608
   15CHL1  H19C 1079   5.004   1.164  10.194  0.8187  4.9400 -3.5024
   15CHL1    C1 1080   5.036   0.908  10.301  0.1235  0.1009  0.3502
   15CHL1   H1A 1081   4.937   0.949  10.272  1.2423  2.8005  0.0294
   15CHL1   H1B 1082   5.029   0.802  10.271  0.2739  0.8570 -2.7405
   15CHL1    C2 1083   5.056   0.922  10.455  0.1863  0.3048  0.0958
   15CHL1   H2A 1084   4.966   0.877  10.502 -0.3416  0.4301 -0.7794
   15CHL1   H2B 1085   5.043   1.027  10.488  2.3370  0.3780  0.8769
   15CHL1   C20 1086   5.074   1.073   9.504 -0.2804  1.1366 -0.1031
   15CHL1   H20 1087   5.106   1.179   9.503  1.7254  0.5861 -0.1348
   15CHL1   C21 1088   4.913   1.075   9.518  0.4298  0.0815 -0.3073
   15CHL1  H21A 1089   4.896   1.111   9.622  1.3179  0.4313 -0.2725
   15CHL1  H21B 1090   4.865   0.980   9.488  0.3581  0.3673 -1.1379
   15CHL1  H21C 1091   4.873   1.159   9.456 -0.1901 -0.6805 -0.9532
   15CHL1   C22 1092   5.112   1.004   9.371 -0.1209 -0.2336  0.1054
   15CHL1  H22A 1093   5.222   0.992   9.367 -0.0493 -0.0222  1.0278
   15CHL1  H22B 1094   5.062   0.905   9.371  1.2179 -0.9253 -0.1682
   15CHL1   C23 1095   5.078   1.102   9.251  0.3290  0.5143 -0.7303
   15CHL1  H23A 1096   4.967   1.108   9.254  0.3700  1.0060  1.0706
   15CHL1  H23B 1097   5.122   1.197   9.289  1.6489 -1.1632  2.3744
   15CHL1   C24 1098   5.127   1.050   9.116 -0.5124  0.0805  0.4474
   15CHL1  H24A 1099   5.237   1.067   9.111 -0.3189 -0.8039  1.4248
   15CHL1  H24B 1100   5.111   0.941   9.103 -0.7485  0.2397 -0.7311
   15CHL1   C25 1101   5.075   1.132   9.000  0.7090 -0.2311 -0.4485
   15CHL1   H25 1102   5.100   1.236   9.029  1.9486 -1.0865  1.7350
   15CHL1   C26 1103   5.167   1.122   8.872  0.3406 -0.3181 -0.5176
   15CHL1  H26A 1104   5.273   1.131   8.904 -0.2628 -0.4146  1.6392
   15CHL1  H26B 1105   5.150   1.019   8.835 -2.0261  0.4942 -1.8930
   15CHL1  H26C 1106   5.128   1.197   8.800 -2.1783  0.0091  1.0545
   15CHL1   C27 1107   4.930   1.102   8.979  0.9545  0.3681 -0.2291
   15CHL1  H27A 1108   4.893   1.181   8.910  0.4838  0.3002 -0.0604
   15CHL1  H27B 1109   4.912   0.997   8.950  0.6711  0.1191  0.8010
   15CHL1  H27C 1110   4.874   1.116   9.074 -3.2422 -0.4637 -2.3176
   16CHL1    C3 1111   2.002   2.393  10.555  0.2763  0.3613  0.5028
   16CHL1    H3 1112   1.897   2.386  10.520  0.4634  0.1206 -0.0280
   16CHL1    O3 1113   2.014   2.395  10.696 -0.1238  0.3147  0.3209
   16CHL1   H3' 1114   2.110   2.406  10.702 -0.2474  0.7698  3.0107
   16CHL1    C4 1115   2.076   2.280  10.487 -0.9386 -0.1521 -0.4024
   16CHL1   H4A 1116   2.176   2.294  10.533 -1.8678 -0.9464  2.0651
   16CHL1   H4B 1117   2.029   2.187  10.526  0.5663 -1.1407 -0.8490
   16CHL1    C5 1118   2.081   2.289  10.333  0.0446 -0.1278  0.4278
   16CHL1    C6 1119   2.035   2.191  10.251 -0.6843 -0.2489  0.3973
   16CHL1    H6 1120   1.994   2.103  10.302 -0.1405  1.0361  3.2999
   16CHL1    C7 1121   2.032   2.203  10.097  0.1822 -0.0349 -0.8924
   16CHL1   H7A 1122   2.067   2.111  10.046 -2.3980 -1.4576 -0.3270
   16CHL1   H7B 1123   1.928   2.231  10.070 -0.4912 -0.7710  0.7933
   16CHL1    C8 1124   2.131   2.314  10.047  0.5284 -0.3954 -0.9910
   16CHL1    H8 1125   2.236   2.281  10.061  0.1383 -0.6125  2.1414
   16CHL1   C14 1126   2.115   2.333   9.896 -0.1744 -0.2561 -0.0380
   16CHL1   H14 1127   2.012   2.372   9.881  0.3155  0.3009 -2.1728
   16CHL1   C15 1128   2.130   2.204   9.807  0.4596  0.1987 -0.0465
   16CHL1  H15A 1129   2.218   2.162   9.861  0.1150  2.8824  2.9334
   16CHL1  H15B 1130   2.046   2.132   9.821  0.2217  0.5794  0.5547
   16CHL1   C16 1131   2.155   2.254   9.665 -0.1964 -0.2756 -0.1261
   16CHL1  H16A 1132   2.256   2.210   9.646  1.3474  2.3982  1.3166
   16CHL1  H16B 1133   2.092   2.219   9.581 -0.5948  0.7533 -0.2610
   16CHL1   C17 1134   2.164   2.410   9.679  0.9409  0.5442 -0.1072
   16CHL1   H17 1135   2.063   2.454   9.669 -0.0032 -1.5405 -0.4516
   16CHL1   C13 1136   2.205   2.434   9.830 -0.3506 -0.5791 -0.8385
   16CHL1   C18 1137   2.355   2.393   9.860 -0.2148 -0.1243 -0.5039
   16CHL1  H18A 1138   2.388   2.419   9.963 -1.7878 -3.2093  0.9021
   16CHL1  H18B 1139   2.371   2.286   9.835  0.0481 -0.5800  1.4474
   16CHL1  H18C 1140   2.426   2.458   9.805 -0.1993 -0.6205 -1.0772
   16CHL1   C12 1141   2.176   2.573   9.904 -0.0783  0.0013  1.3734
   16CHL1  H12A 1142   2.263   2.637   9.877 -0.0360 -0.4197  0.4484
   16CHL1  H12B 1143   2.075   2.601   9.867 -0.6810  0.8406  3.5395
   16CHL1   C11 1144   2.170   2.569  10.057 -0.6006 -0.8299  0.5622
   16CHL1  H11A 1145   2.271   2.576  10.103 -0.6597 -2.2510  0.9874
   16CHL1  H11B 1146   2.103   2.651  10.088 -0.2152 -0.1213 -0.4390
   16CHL1    C9 1147   2.101   2.444  10.120  0.1504  1.0883 -0.0411
   16CHL1    H9 1148   1.993   2.468  10.106 -0.1672 -1.0216 -1.7993
   16CHL1   C10 1149   2.125   2.425  10.273 -0.2911 -0.5904 -0.2158
   16CHL1   C19 1150   2.278   2.437  10.309 -0.2798 -0.2757  0.4526
   16CHL1  H19A 1151   2.322   2.383  10.396  3.0458  1.1013 -0.1796
   16CHL1  H19B 1152   2.329   2.389  10.222 -0.5392 -0.0986  0.2046
   16CHL1  H19C 1153   2.300   2.546  10.315  0.2770 -0.2877 -0.9537
   16CHL1    C1 1154   2.055   2.537  10.341  0.0788 -0.0165 -1.0006
   16CHL1   H1A 1155   2.089   2.639  10.312  0.0582  1.0696  2.3484
   16CHL1   H1B 1156   1.947   2.528  10.314  0.2600  0.3099 -1.8903
   16CHL1    C2 1157   2.057   2.530  10.502  0.3758  0.5991 -0.1147
   16CHL1   H2A 1158   1.982   2.606  10.534  0.5832  0.7515  0.0085
   16CHL1   H2B 1159   2.157   2.564  10.535  1.2841 -1.5744 -0.4316
   16CHL1   C20 1160   2.255   2.460   9.566 -0.1158  0.1879  0.0625
   16CHL1   H20 1161   2.345   2.396   9.563  0.8442  1.4577 -3.2103
   16CHL1   C21 1162   2.300   2.607   9.596  0.1978  0.1210  0.6668
   16CHL1  H21A 1163   2.209   2.664   9.621 -0.8545 -1.7784  1.3846
   16CHL1  H21B 1164   2.358   2.658   9.516  0.4964 -0.2471  0.6446
   16CHL1  H21C 1165   2.372   2.623   9.679 -0.4629  1.6013  0.9863
   16CHL1   C22 1166   2.186   2.462   9.431 -0.3757 -0.2421  0.4833
   16CHL1  H22A 1167   2.138   2.362   9.419  2.3369 -1.6641  0.6787
   16CHL1  H22B 1168   2.108   2.540   9.443  1.3934  1.1992  3.7318
   16CHL1   C23 1169   2.269   2.485   9.303 -0.0706 -0.1078  0.3488
   16CHL1  H23A 1170   2.341   2.567   9.325  1.1969 -0.6150 -1.6271
   16CHL1  H23B 1171   2.326   2.393   9.280  0.8183  0.3236  0.7742
   16CHL1   C24 1172   2.179   2.523   9.182  0.1297  0.6376 -0.2639
   16CHL1  H24A 1173   2.099   2.446   9.181 -0.3677  1.1485 -0.8114
   16CHL1  H24B 1174   2.129   2.621   9.200 -1.7047 -0.2354 -0.3989
   16CHL1   C25 1175   2.240   2.517   9.038 -1.2832 -0.1330 -0.3371
   16CHL1   H25 1176   2.293   2.422   9.017 -0.1921  0.3340  0.2280
   16CHL1   C26 1177   2.139   2.547   8.935 -0.2322  0.4560 -0.3601
   16CHL1  H26A 1178   2.098   2.645   8.969 -1.8716 -0.3725  0.1907
   16CHL1  H26B 1179   2.186   2.550   8.834  2.1857  0.2305  0.7127
   16CHL1  H26C 1180   2.063   2.466   8.926  2.4012 -2.1715 -0.3405
   16CHL1   C27 1181   2.354   2.630   9.026 -0.0918  0.0805 -0.0908
   16CHL1  H27A 1182   2.400   2.634   8.925 -0.2790  2.2930 -0.1275
   16CHL1  H27B 1183   2.302   2.725   9.047 -0.5708  0.2389 -1.8963
   16CHL1  H27C 1184   2.426   2.606   9.108  0.8891 -1.6667 -1.3986
   17CHL1    C3 1185   4.048   5.439  10.490  0.0424  0.3451  0.6660
   17CHL1    H3 1186   4.013   5.542  10.465 -0.4664  0.1962  0.7399
   17CHL1    O3 1187   4.076   5.428  10.625  0.0497 -0.6080 -0.3101
   17CHL1   H3' 1188   4.130   5.348  10.631  0.4063 -0.3044  0.7577
   17CHL1    C4 1189   3.931   5.346  10.448 -0.6471 -0.6216 -1.2293
   17CHL1   H4A 1190   3.941   5.242  10.485  0.9804  0.1260  0.6484
   17CHL1   H4B 1191   3.844   5.392  10.499 -1.5817 -0.5527 -2.7932
   17CHL1    C5 1192   3.915   5.347  10.299 -0.3176  0.8010 -0.0722
   17CHL1    C6 1193   3.802   5.376  10.227 -0.1390 -0.2331  0.2929
   17CHL1    H6 1194   3.711   5.410  10.278 -1.0779  1.0335 -2.0568
   17CHL1    C7 1195   3.782   5.356  10.083 -0.4508 -0.0423 -0.0119
   17CHL1   H7A 1196   3.682   5.308  10.080  0.0630 -1.2176  0.8510
   17CHL1   H7B 1197   3.760   5.451  10.029  0.5252 -0.5074 -1.2697
   17CHL1    C8 1198   3.896   5.282  10.014 -0.1477 -0.3874 -0.3230
   17CHL1    H8 1199   3.900   5.175  10.044  1.5280 -0.5361 -0.9759
   17CHL1   C14 1200   3.886   5.298   9.862 -0.1073  0.2416  0.5521
   17CHL1   H14 1201   3.908   5.406   9.857  1.2880 -0.0426 -0.0834
   17CHL1   C15 1202   3.758   5.263   9.792 -0.1546  0.3008 -0.0324
   17CHL1  H15A 1203   3.727   5.166   9.838 -2.3821  0.1181 -1.7766
   17CHL1  H15B 1204   3.668   5.321   9.821 -1.7696 -2.3246  0.5781
   17CHL1   C16 1205   3.792   5.269   9.643 -0.4732 -0.2670 -0.1955
   17CHL1  H16A 1206   3.740   5.185   9.592 -0.8212 -0.8312  1.0564
   17CHL1  H16B 1207   3.741   5.353   9.589 -2.7101 -1.4863 -0.1282
   17CHL1   C17 1208   3.955   5.272   9.635  0.2199 -0.1619 -0.1441
   17CHL1   H17 1209   3.983   5.379   9.622  0.6051 -0.0626  1.3640
   17CHL1   C13 1210   3.997   5.235   9.779  0.5997  0.5471  0.0707
   17CHL1   C18 1211   3.999   5.077   9.800  0.8099  0.0397  0.1179
   17CHL1  H18A 1212   4.065   5.028   9.726 -1.8000 -1.1561 -1.5703
   17CHL1  H18B 1213   4.030   5.053   9.904  1.6838 -0.8804 -0.3356
   17CHL1  H18C 1214   3.896   5.037   9.786  0.2666  1.0809  1.0193
   17CHL1   C12 1215   4.131   5.302   9.829 -0.1318  0.1800 -0.6179
   17CHL1  H12A 1216   4.219   5.284   9.764 -1.8234  0.6749 -3.2091
   17CHL1  H12B 1217   4.115   5.412   9.827  1.8396  0.4894 -0.8545
   17CHL1   C11 1218   4.145   5.269   9.982 -0.5815 -0.4386 -0.5935
   17CHL1  H11A 1219   4.160   5.160   9.995 -0.4975 -0.4481 -0.7735
   17CHL1  H11B 1220   4.242   5.318  10.009 -0.6917 -0.8434  0.5962
   17CHL1    C9 1221   4.027   5.330  10.066 -0.0933  0.4423  0.1765
   17CHL1    H9 1222   4.030   5.438  10.041 -0.4195  0.5123  0.4368
   17CHL1   C10 1223   4.046   5.315  10.222 -0.2995 -0.0819  0.2429
   17CHL1   C19 1224   4.080   5.171  10.257  0.1348  0.4464 -0.2302
   17CHL1  H19A 1225   4.183   5.153  10.218  0.7068 -0.6536  1.6749
   17CHL1  H19B 1226   4.092   5.146  10.364 -0.9879  1.2120  0.0974
   17CHL1  H19C 1227   4.016   5.096  10.206  0.0942  1.0625 -1.1216
   17CHL1    C1 1228   4.165   5.405  10.259 -0.3233  0.2746 -0.5596
   17CHL1   H1A 1229   4.262   5.371  10.219 -0.6766 -0.3896 -0.8766
   17CHL1   H1B 1230   4.154   5.513  10.235 -0.7448  0.3661 -0.0011
   17CHL1    C2 1231   4.180   5.409  10.419  0.0932 -0.6187  0.6028
   17CHL1   H2A 1232   4.256   5.485  10.448  1.0157 -1.1175 -0.4604
   17CHL1   H2B 1233   4.222   5.314  10.456 -0.7091 -1.4817 -0.6186
   17CHL1   C20 1234   4.006   5.203   9.507 -0.3022 -0.2992  0.0939
   17CHL1   H20 1235   3.975   5.096   9.514 -2.0295  0.1967  0.4916
   17CHL1   C21 1236   4.159   5.219   9.508  0.2938 -0.2676  0.4085
   17CHL1  H21A 1237   4.201   5.321   9.521 -0.6126 -0.1661  3.4221
   17CHL1  H21B 1238   4.183   5.169   9.412 -2.8878  0.8467 -1.0999
   17CHL1  H21C 1239   4.207   5.163   9.592  3.9652  1.9079 -0.0318
   17CHL1   C22 1240   3.939   5.251   9.377 -0.2609 -0.0659  0.5391
   17CHL1  H22A 1241   3.829   5.239   9.373 -0.3174  0.5340  0.0901
   17CHL1  H22B 1242   3.972   5.355   9.354 -0.3553 -0.2158 -0.3315
   17CHL1   C23 1243   3.974   5.163   9.253  0.2194 -0.4189 -0.2425
   17CHL1  H23A 1244   4.085   5.172   9.248  1.0306 -5.0745  2.9984
   17CHL1  H23B 1245   3.956   5.054   9.266  1.0467 -0.5445 -0.0332
   17CHL1   C24 1246   3.896   5.208   9.128 -1.0856 -0.0701  0.7573
   17CHL1  H24A 1247   3.790   5.175   9.129 -1.0764 -0.1640 -0.2361
   17CHL1  H24B 1248   3.906   5.318   9.140 -0.9656  0.1211 -0.8904
   17CHL1   C25 1249   3.953   5.164   8.994  0.0600 -0.4342  0.5967
   17CHL1   H25 1250   3.987   5.059   9.006 -0.7114 -0.7681 -0.0349
   17CHL1   C26 1251   3.844   5.189   8.886  0.7975  0.0051  0.3931
   17CHL1  H26A 1252   3.855   5.114   8.804  1.7088 -1.0909  1.4857
   17CHL1  H26B 1253   3.744   5.161   8.926  0.0802 -1.0619 -1.9314
   17CHL1  H26C 1254   3.839   5.290   8.841 -0.1877 -1.0035 -1.9449
   17CHL1   C27 1255   4.080   5.247   8.962  0.4307  0.0517 -0.0453
   17CHL1  H27A 1256   4.058   5.356   8.967 -1.2441 -0.1545 -1.6946
   17CHL1  H27B 1257   4.170   5.226   9.023  0.1233  1.6357  1.0344
   17CHL1  H27C 1258   4.110   5.236   8.856  0.4014  1.2283 -0.1899
   18CHL1    C3 1259   2.300   3.424  10.415  0.3420 -0.0495  0.6992
   18CHL1    H3 1260   2.200   3.389  10.382  0.8584  0.8100 -1.9918
   18CHL1    O3 1261   2.310   3.398  10.548  0.2799 -0.0559  0.3247
   18CHL1   H3' 1262   2.364   3.320  10.561 -0.4645 -1.0014 -1.7850
   18CHL1    C4 1263   2.409   3.357  10.333  0.9078  0.1504  0.3990
   18CHL1   H4A 1264   2.510   3.385  10.369  1.5001 -2.1710  0.7433
   18CHL1   H4B 1265   2.393   3.250  10.360  1.0437  0.1841  0.6121
   18CHL1    C5 1266   2.396   3.389  10.184  0.9969  0.6487 -0.5419
   18CHL1    C6 1267   2.361   3.293  10.099  0.1059 -1.2803  0.8988
   18CHL1    H6 1268   2.352   3.188  10.132 -2.1087 -1.7740 -0.9885
   18CHL1    C7 1269   2.334   3.313   9.952 -0.2892  0.2939  0.5766
   18CHL1   H7A 1270   2.377   3.226   9.897 -0.6809  0.3208  0.2205
   18CHL1   H7B 1271   2.226   3.308   9.925 -0.0397  0.7477 -0.5647
   18CHL1    C8 1272   2.394   3.448   9.897 -0.7358  0.2057  0.4914
   18CHL1    H8 1273   2.505   3.455   9.899 -0.6851 -0.5391  2.3340
   18CHL1   C14 1274   2.351   3.474   9.751  0.0965  0.0815 -0.1480
   18CHL1   H14 1275   2.241   3.473   9.757  0.1333 -0.7952  0.5839
   18CHL1   C15 1276   2.388   3.380   9.640  0.7408  0.1596 -0.2086
   18CHL1  H15A 1277   2.496   3.356   9.641  1.3059  1.7143 -4.4208
   18CHL1  H15B 1278   2.326   3.290   9.665  1.8516 -0.3086  0.9925
   18CHL1   C16 1279   2.348   3.458   9.515 -0.2898 -0.1295  0.9793
   18CHL1  H16A 1280   2.440   3.451   9.453 -0.3181  0.7500  0.8212
   18CHL1  H16B 1281   2.258   3.413   9.467 -0.4090  0.2974  0.7969
   18CHL1   C17 1282   2.314   3.603   9.550  0.1182  0.8397 -0.6430
   18CHL1   H17 1283   2.206   3.622   9.567  0.1881  2.0520 -1.4536
   18CHL1   C13 1284   2.376   3.614   9.699 -0.2098  0.1956 -0.3230
   18CHL1   C18 1285   2.536   3.635   9.687  0.6315 -0.3781  0.0503
   18CHL1  H18A 1286   2.579   3.580   9.600 -0.0877  1.4848 -1.5694
   18CHL1  H18B 1287   2.546   3.744   9.664  1.3360 -0.7309 -1.5086
   18CHL1  H18C 1288   2.591   3.606   9.779  0.2963 -0.7807  0.1195
   18CHL1   C12 1289   2.318   3.731   9.792  0.5491  0.3082 -0.1446
   18CHL1  H12A 1290   2.367   3.828   9.767  1.0680  0.1370  0.1841
   18CHL1  H12B 1291   2.208   3.739   9.784  0.5074  0.3451  0.3758
   18CHL1   C11 1292   2.369   3.704   9.937 -0.1798  0.5173 -0.2275
   18CHL1  H11A 1293   2.479   3.715   9.924 -0.0059 -1.3194 -0.4892
   18CHL1  H11B 1294   2.322   3.775  10.009 -1.6855 -1.9681  1.3675
   18CHL1    C9 1295   2.339   3.559   9.991  0.0985  0.6818  0.1802
   18CHL1    H9 1296   2.228   3.553   9.991  0.0901  0.7032 -0.8260
   18CHL1   C10 1297   2.388   3.534  10.144  0.6163 -0.0004  0.4361
   18CHL1   C19 1298   2.533   3.601  10.157  0.1742 -0.5023  0.7073
   18CHL1  H19A 1299   2.519   3.711  10.164 -0.0112 -0.2898 -2.0491
   18CHL1  H19B 1300   2.577   3.565  10.253 -1.7509 -0.0446  1.8189
   18CHL1  H19C 1301   2.594   3.577  10.068 -2.5740  3.2789 -2.5698
   18CHL1    C1 1302   2.290   3.608  10.240  0.6579 -0.3322 -0.5463
   18CHL1   H1A 1303   2.312   3.714  10.214  3.0825 -0.8957 -1.0876
   18CHL1   H1B 1304   2.184   3.584  10.217  0.0388  1.6504  0.0560
   18CHL1    C2 1305   2.308   3.573  10.394  0.1338  0.1511  0.5573
   18CHL1   H2A 1306   2.240   3.638  10.452 -0.3615 -0.5125  0.7435
   18CHL1   H2B 1307   2.408   3.603  10.431  0.3788 -0.2315  0.2149
   18CHL1   C20 1308   2.353   3.706   9.442  0.0302  0.7491 -0.2470
   18CHL1   H20 1309   2.460   3.737   9.435  0.1423  0.4837  0.2720
   18CHL1   C21 1310   2.271   3.832   9.474  0.0261  0.0096 -0.3297
   18CHL1  H21A 1311   2.298   3.884   9.569 -1.3961 -2.2633  1.4216
   18CHL1  H21B 1312   2.160   3.818   9.478 -0.3117  2.3756  0.8875
   18CHL1  H21C 1313   2.296   3.901   9.391  2.6776 -0.6563 -0.1618
   18CHL1   C22 1314   2.315   3.667   9.294  0.6408 -0.0799 -0.3013
   18CHL1  H22A 1315   2.348   3.563   9.273 -2.4555 -1.1228 -0.4014
   18CHL1  H22B 1316   2.205   3.658   9.294  0.7009 -0.9239  0.0796
   18CHL1   C23 1317   2.379   3.761   9.186  0.1382 -0.4477  0.1913
   18CHL1  H23A 1318   2.354   3.869   9.199 -1.0300 -0.8541  1.6242
   18CHL1  H23B 1319   2.488   3.761   9.208  0.1655  0.1224  0.0795
   18CHL1   C24 1320   2.350   3.713   9.047 -0.2092  0.4977 -0.0036
   18CHL1  H24A 1321   2.394   3.613   9.028  1.8222  1.3755 -0.2674
   18CHL1  H24B 1322   2.241   3.711   9.026 -0.2420  0.2881  0.1835
   18CHL1   C25 1323   2.400   3.809   8.938  0.1404 -0.9674  0.1896
   18CHL1   H25 1324   2.379   3.915   8.964  0.0307 -0.8399 -0.4141
   18CHL1   C26 1325   2.549   3.799   8.927 -0.3139  0.7133  0.6518
   18CHL1  H26A 1326   2.580   3.702   8.884  0.2874  1.5949 -0.9850
   18CHL1  H26B 1327   2.579   3.876   8.853 -1.4718 -0.7141 -1.4200
   18CHL1  H26C 1328   2.614   3.822   9.013  1.9454  1.3482 -1.1403
   18CHL1   C27 1329   2.345   3.772   8.803  0.0419  0.3162  0.1394
   18CHL1  H27A 1330   2.408   3.825   8.729  3.0075  3.3025  4.3164
   18CHL1  H27B 1331   2.349   3.663   8.785 -0.2108  0.1874  0.8363
   18CHL1  H27C 1332   2.241   3.810   8.792 -1.5164 -2.9833  2.1001
   19CHL1    C3 1333   2.383   5.719  10.389 -0.4561  0.2042  0.3588
   19CHL1    H3 1334   2.492   5.724  10.410 -0.5072  2.3970  0.3902
   19CHL1    O3 1335   2.306   5.725  10.504  0.1971 -0.1683  0.1102
   19CHL1   H3' 1336   2.344   5.661  10.565  2.3274  1.4106  0.5771
   19CHL1    C4 1337   2.335   5.839  10.305 -0.1186  0.0224  0.1220
   19CHL1   H4A 1338   2.224   5.836  10.305 -0.1313 -0.1153 -1.2198
   19CHL1   H4B 1339   2.358   5.930  10.364 -0.3679  1.1205 -1.3871
   19CHL1    C5 1340   2.397   5.842  10.167  0.4177 -0.1620 -0.4539
   19CHL1    C6 1341   2.456   5.952  10.128 -0.1497 -0.0027  0.0861
   19CHL1    H6 1342   2.464   6.031  10.204  2.0642  1.4245 -1.4997
   19CHL1    C7 1343   2.523   5.965   9.989  0.6676  0.4183 -0.7196
   19CHL1   H7A 1344   2.498   6.059   9.935 -1.4256 -0.5470 -1.5319
   19CHL1   H7B 1345   2.632   5.945   9.994  0.4186 -1.6850 -2.2023
   19CHL1    C8 1346   2.476   5.848   9.890 -0.1457 -0.3428  0.5770
   19CHL1    H8 1347   2.374   5.861   9.846 -0.1830  0.0739  0.7803
   19CHL1   C14 1348   2.569   5.843   9.769 -0.2871  0.8413 -0.2948
   19CHL1   H14 1349   2.676   5.837   9.795 -0.2372  0.7265 -0.5221
   19CHL1   C15 1350   2.568   5.968   9.679 -0.0769  1.0479  0.1568
   19CHL1  H15A 1351   2.468   6.012   9.656 -1.2527 -1.0520  1.0026
   19CHL1  H15B 1352   2.637   6.044   9.722 -0.2349 -0.3847  3.1490
   19CHL1   C16 1353   2.634   5.924   9.545  0.6296  0.6866 -0.4847
   19CHL1  H16A 1354   2.565   5.955   9.463  2.5927  0.7510 -2.1795
   19CHL1  H16B 1355   2.728   5.976   9.520  1.3905  0.3459  1.4996
   19CHL1   C17 1356   2.639   5.764   9.554 -0.8547 -0.1228  0.0749
   19CHL1   H17 1357   2.742   5.755   9.594 -0.4733  0.9117 -0.6410
   19CHL1   C13 1358   2.546   5.726   9.674  0.5358  0.1990 -0.4676
   19CHL1   C18 1359   2.402   5.727   9.623 -0.2520  0.0911  0.2364
   19CHL1  H18A 1360   2.384   5.651   9.545  1.4004 -1.1767  1.0367
   19CHL1  H18B 1361   2.332   5.713   9.708  1.7551 -2.8336  1.5662
   19CHL1  H18C 1362   2.376   5.825   9.576  0.5955 -0.2285 -0.9532
   19CHL1   C12 1363   2.579   5.601   9.757  0.6827  0.7965  0.1244
   19CHL1  H12A 1364   2.555   5.509   9.698  1.7710 -0.8345  2.0759
   19CHL1  H12B 1365   2.685   5.585   9.784  0.3648 -2.5013 -0.1071
   19CHL1   C11 1366   2.491   5.588   9.879  0.0984 -0.0765 -0.9805
   19CHL1  H11A 1367   2.385   5.567   9.855 -0.4005  1.0533  0.1412
   19CHL1  H11B 1368   2.519   5.499   9.941  0.2293 -0.3730 -1.4646
   19CHL1    C9 1369   2.486   5.716   9.969  0.1791 -0.9366 -0.2529
   19CHL1    H9 1370   2.585   5.721  10.021  0.6534 -0.4479 -1.1740
   19CHL1   C10 1371   2.393   5.715  10.090 -0.3418  0.2295  1.0982
   19CHL1   C19 1372   2.247   5.709  10.037  0.5823  0.2734  0.2343
   19CHL1  H19A 1373   2.167   5.717  10.114 -0.5084 -1.7662 -0.5798
   19CHL1  H19B 1374   2.222   5.773   9.949 -1.9435  0.6127  1.0892
   19CHL1  H19C 1375   2.231   5.606   9.999  1.5793  0.5748 -1.0913
   19CHL1    C1 1376   2.429   5.595  10.171 -0.6773  0.8472 -0.1560
   19CHL1   H1A 1377   2.390   5.503  10.123 -2.2104  1.0390  0.6410
   19CHL1   H1B 1378   2.539   5.588  10.188 -0.8597  0.2735  0.8931
   19CHL1    C2 1379   2.360   5.587  10.309 -0.2045 -0.2364  0.6203
   19CHL1   H2A 1380   2.401   5.504  10.370 -0.8113 -2.2043 -1.5078
   19CHL1   H2B 1381   2.251   5.574  10.292 -0.1628  1.5486 -1.4725
   19CHL1   C20 1382   2.637   5.693   9.411  0.1166  0.2096 -0.9621
   19CHL1   H20 1383   2.538   5.720   9.367  0.9557  2.5823 -1.5662
   19CHL1   C21 1384   2.641   5.541   9.414 -0.5209 -0.9057 -0.6214
   19CHL1  H21A 1385   2.540   5.507   9.446  0.1593 -1.0976  1.4497
   19CHL1  H21B 1386   2.721   5.516   9.487  1.2903  1.5642 -1.6200
   19CHL1  H21C 1387   2.666   5.495   9.316 -1.4749 -0.7910 -0.9287
   19CHL1   C22 1388   2.751   5.749   9.327  0.2974 -0.3482 -0.1405
   19CHL1  H22A 1389   2.747   5.860   9.322  0.7123 -0.2767  0.8251
   19CHL1  H22B 1390   2.851   5.726   9.369  0.4835  1.9453  0.8088
   19CHL1   C23 1391   2.747   5.700   9.181  0.5564  0.4526  0.3315
   19CHL1  H23A 1392   2.837   5.742   9.132  0.7691  0.8887  1.0764
   19CHL1  H23B 1393   2.756   5.590   9.171  1.0518  0.6377 -1.4849
   19CHL1   C24 1394   2.617   5.749   9.110  0.7344  0.3252 -0.1151
   19CHL1  H24A 1395   2.537   5.672   9.110 -0.6865  1.5498 -4.2634
   19CHL1  H24B 1396   2.570   5.826   9.176  2.3726  2.0494 -0.8784
   19CHL1   C25 1397   2.621   5.801   8.963 -0.1079  0.1391 -0.6316
   19CHL1   H25 1398   2.519   5.815   8.920  0.3971  4.1304 -0.9366
   19CHL1   C26 1399   2.677   5.942   8.975  0.2804  0.2110 -0.0654
   19CHL1  H26A 1400   2.621   6.006   9.047  0.2245  2.0444 -1.6658
   19CHL1  H26B 1401   2.777   5.935   9.022  0.6212 -1.2576 -0.9346
   19CHL1  H26C 1402   2.673   5.994   8.877  0.7763  0.7802  0.2130
   19CHL1   C27 1403   2.704   5.720   8.869 -0.3619  0.2885  0.2769
   19CHL1  H27A 1404   2.680   5.612   8.859  1.4578 -0.3188  1.7565
   19CHL1  H27B 1405   2.675   5.748   8.766  0.4957 -0.5269 -0.1966
   19CHL1  H27C 1406   2.813   5.734   8.890 -0.3396 -0.1486  0.4539
   20CHL1    C3 1407   1.715   2.851  10.339 -0.9522  0.0971  0.7730
   20CHL1    H3 1408   1.809   2.908  10.321 -1.6373  1.2232  0.6477
   20CHL1    O3 1409   1.672   2.865  10.472 -0.3123 -0.3115  0.0580
   20CHL1   H3' 1410   1.739   2.809  10.512  1.9389  0.9822 -1.5954
   20CHL1    C4 1411   1.607   2.905  10.247  0.4809 -0.2812  0.3064
   20CHL1   H4A 1412   1.511   2.856  10.275  0.4385 -0.4910 -0.1940
   20CHL1   H4B 1413   1.596   3.014  10.263 -0.3877 -0.4934  1.2166
   20CHL1    C5 1414   1.632   2.877  10.103  0.0956  0.1400  0.2211
   20CHL1    C6 1415   1.637   2.975  10.016  0.3032  0.1711 -0.3052
   20CHL1    H6 1416   1.618   3.075  10.058  0.2950 -0.8789  2.4383
   20CHL1    C7 1417   1.663   2.955   9.870 -0.1520 -0.0728 -0.3528
   20CHL1   H7A 1418   1.598   3.016   9.804 -0.6262 -1.5324 -1.2933
   20CHL1   H7B 1419   1.768   2.991   9.860 -0.5366  1.1680 -0.1332
   20CHL1    C8 1420   1.645   2.813   9.822 -0.6197 -0.4673 -0.6808
   20CHL1    H8 1421   1.535   2.794   9.831  0.0034 -5.0990 -0.1845
   20CHL1   C14 1422   1.697   2.798   9.687 -0.5814  0.2986 -0.1482
   20CHL1   H14 1423   1.807   2.815   9.692 -0.7260  2.6681 -2.8081
   20CHL1   C15 1424   1.638   2.894   9.582  0.1995  0.6099 -0.8605
   20CHL1  H15A 1425   1.527   2.903   9.585 -0.1114 -2.5429  1.3229
   20CHL1  H15B 1426   1.684   2.995   9.591  0.9304  0.2725 -0.6924
   20CHL1   C16 1427   1.682   2.826   9.446 -0.4117  0.0092  0.0738
   20CHL1  H16A 1428   1.597   2.823   9.374  0.7999  0.9941 -1.4371
   20CHL1  H16B 1429   1.759   2.889   9.398 -1.2542 -0.8532 -2.6052
   20CHL1   C17 1430   1.738   2.680   9.478 -0.1994  0.0968  0.1893
   20CHL1   H17 1431   1.848   2.692   9.480  0.2203 -1.0533 -4.4741
   20CHL1   C13 1432   1.688   2.654   9.618 -0.3609  0.3744 -0.2949
   20CHL1   C18 1433   1.539   2.613   9.612  0.7533  0.0434  0.4585
   20CHL1  H18A 1434   1.473   2.692   9.570  1.7982  0.4812 -0.3852
   20CHL1  H18B 1435   1.537   2.511   9.567  0.2645 -0.7684  2.2190
   20CHL1  H18C 1436   1.487   2.585   9.706 -0.1211 -1.3695 -0.3830
   20CHL1   C12 1437   1.771   2.563   9.715  0.4153 -0.5287 -0.4381
   20CHL1  H12A 1438   1.773   2.456   9.685 -1.4170 -0.4476 -0.9541
   20CHL1  H12B 1439   1.871   2.612   9.717 -0.4486  1.3083  0.7253
   20CHL1   C11 1440   1.724   2.574   9.861 -0.0276 -0.2602 -0.3086
   20CHL1  H11A 1441   1.620   2.542   9.838 -0.7509  2.5689 -1.4776
   20CHL1  H11B 1442   1.775   2.509   9.934 -0.1415 -0.5078 -0.4497
   20CHL1    C9 1443   1.708   2.717   9.920 -0.1853 -0.1839  0.3058
   20CHL1    H9 1444   1.810   2.761   9.920 -0.0570 -0.4508 -0.8658
   20CHL1   C10 1445   1.658   2.730  10.069 -0.7205  0.8747 -0.4647
   20CHL1   C19 1446   1.516   2.666  10.077 -0.3819  0.0002  0.1518
   20CHL1  H19A 1447   1.535   2.557  10.063 -1.7340 -0.6034  2.6052
   20CHL1  H19B 1448   1.468   2.680  10.175  0.9903  0.8323  0.7357
   20CHL1  H19C 1449   1.443   2.709  10.005  0.0410  1.0516  0.3342
   20CHL1    C1 1450   1.765   2.668  10.164 -0.0002 -0.3011  0.2198
   20CHL1   H1A 1451   1.774   2.559  10.141  2.7839 -0.4605  1.7400
   20CHL1   H1B 1452   1.860   2.721  10.147 -1.3297  1.8746 -0.8554
   20CHL1    C2 1453   1.725   2.700  10.310 -0.8550 -0.2496 -0.6394
   20CHL1   H2A 1454   1.794   2.655  10.384  1.1162  2.4633 -0.6882
   20CHL1   H2B 1455   1.626   2.653  10.328 -1.5734  1.9350  1.7578
   20CHL1   C20 1456   1.721   2.584   9.363  0.0525  0.3454  0.5273
   20CHL1   H20 1457   1.611   2.578   9.354 -0.3258  1.2451  3.3665
   20CHL1   C21 1458   1.780   2.440   9.394  0.1252 -0.1376 -0.3216
   20CHL1  H21A 1459   1.731   2.397   9.484  3.2279  1.5636  2.3934
   20CHL1  H21B 1460   1.884   2.444   9.433 -0.4427  1.6262  1.1637
   20CHL1  H21C 1461   1.761   2.365   9.314 -0.4697 -0.1442 -0.1806
   20CHL1   C22 1462   1.787   2.640   9.228  0.6634  0.0807  0.4338
   20CHL1  H22A 1463   1.774   2.751   9.227  1.5522  0.1963 -0.6967
   20CHL1  H22B 1464   1.897   2.629   9.226  0.5300 -1.3172 -0.6077
   20CHL1   C23 1465   1.727   2.585   9.097 -0.0795  0.0882  0.2615
   20CHL1  H23A 1466   1.764   2.481   9.082 -0.3085  0.3040 -2.0904
   20CHL1  H23B 1467   1.621   2.582   9.130 -0.0102 -1.8431  0.4405
   20CHL1   C24 1468   1.766   2.653   8.965 -0.0012 -0.6012 -0.1752
   20CHL1  H24A 1469   1.736   2.760   8.969 -2.2075 -1.1779  0.5303
   20CHL1  H24B 1470   1.876   2.669   8.964 -0.1743  0.6765 -0.9080
   20CHL1   C25 1471   1.718   2.566   8.848 -0.7988  0.4424  0.2026
   20CHL1   H25 1472   1.747   2.462   8.871 -0.8354  0.6958  1.4352
   20CHL1   C26 1473   1.565   2.585   8.823 -0.5877  0.5392  0.0421
   20CHL1  H26A 1474   1.508   2.547   8.910  1.8795  0.3399  1.6940
   20CHL1  H26B 1475   1.532   2.690   8.804 -0.4536  0.6137  0.2121
   20CHL1  H26C 1476   1.539   2.521   8.736  4.6009  1.1255 -2.3432
   20CHL1   C27 1477   1.797   2.601   8.722  0.2253 -0.1644  0.3384
   20CHL1  H27A 1478   1.784   2.704   8.684 -0.4138 -0.5782 -0.6182
   20CHL1  H27B 1479   1.904   2.578   8.739  0.3500  0.0851 -0.1024
   20CHL1  H27C 1480   1.748   2.548   8.638 -2.9038  1.1198  1.2081
   21CHL1    C3 1481   1.668   3.843  10.583 -0.2234  0.2110  0.1398
   21CHL1    H3 1482   1.726   3.748  10.584 -0.5041  0.0100 -0.8822
   21CHL1    O3 1483   1.627   3.862  10.720 -0.3647  0.0887 -0.4304
   21CHL1   H3' 1484   1.571   3.940  10.720  0.3376  0.6169  0.7766
   21CHL1    C4 1485   1.757   3.950  10.532  0.1601 -0.1998 -0.3438
   21CHL1   H4A 1486   1.714   4.050  10.555  1.8855  0.5102  0.0009
   21CHL1   H4B 1487   1.848   3.945  10.596  1.3000 -0.5424 -1.9143
   21CHL1    C5 1488   1.801   3.928  10.388  0.3154 -0.5037 -0.3081
   21CHL1    C6 1489   1.925   3.912  10.354 -0.6146  0.3933 -0.2087
   21CHL1    H6 1490   2.006   3.923  10.427  1.8586 -2.1578 -2.3492
   21CHL1    C7 1491   1.958   3.920  10.208 -0.4968 -0.0973 -0.4113
   21CHL1   H7A 1492   2.046   3.987  10.199 -1.0592  1.3241  2.9953
   21CHL1   H7B 1493   1.978   3.819  10.168  1.0213  0.4409 -1.0676
   21CHL1    C8 1494   1.856   3.982  10.111  0.8904  0.5681 -0.0431
   21CHL1    H8 1495   1.844   4.092  10.120  1.0087  0.6034 -0.3233
   21CHL1   C14 1496   1.900   3.958   9.968  0.2792 -0.6717  0.9238
   21CHL1   H14 1497   1.898   3.849   9.948  1.5145 -0.5960  0.2411
   21CHL1   C15 1498   2.035   4.008   9.915 -0.5139 -0.2287  0.5452
   21CHL1  H15A 1499   2.053   4.109   9.958  0.3679 -0.7624  1.4882
   21CHL1  H15B 1500   2.116   3.940   9.949 -1.9051 -2.2957 -0.0847
   21CHL1   C16 1501   2.029   4.023   9.768  0.0146  0.6929  0.9869
   21CHL1  H16A 1502   2.036   4.127   9.729 -0.4208 -0.8140 -3.6561
   21CHL1  H16B 1503   2.093   3.950   9.714 -0.5191  1.4405 -0.7219
   21CHL1   C17 1504   1.883   3.994   9.735  0.2791  0.3555 -0.3769
   21CHL1   H17 1505   1.888   3.884   9.730  1.3657  0.3025  1.3123
   21CHL1   C13 1506   1.798   4.014   9.862  0.2326  0.4356 -0.5806
   21CHL1   C18 1507   1.780   4.172   9.879 -0.4205 -0.2084  0.1046
   21CHL1  H18A 1508   1.732   4.192   9.978  2.9632  1.5705  1.5581
   21CHL1  H18B 1509   1.878   4.223   9.884 -0.4910 -0.0717  0.0911
   21CHL1  H18C 1510   1.722   4.213   9.794  0.4113 -0.4742 -0.5985
   21CHL1   C12 1511   1.662   3.943   9.887  0.2470 -0.2202 -0.1387
   21CHL1  H12A 1512   1.584   4.001   9.835  1.1347 -0.3196 -1.6383
   21CHL1  H12B 1513   1.672   3.835   9.866  0.5226 -0.0168 -1.0903
   21CHL1   C11 1514   1.611   3.953  10.033  0.6968  0.3710 -0.1404
   21CHL1  H11A 1515   1.566   4.055  10.033 -0.1300  0.0428  2.0328
   21CHL1  H11B 1516   1.518   3.896  10.053  0.7235  0.0552 -0.8638
   21CHL1    C9 1517   1.721   3.918  10.136 -0.3520  0.2604  0.8031
   21CHL1    H9 1518   1.738   3.810  10.117 -0.2194  0.7865 -2.7837
   21CHL1   C10 1519   1.690   3.938  10.286 -0.1047  0.5818 -0.0996
   21CHL1   C19 1520   1.604   4.074  10.299  0.5510  0.3384  0.1884
   21CHL1  H19A 1521   1.572   4.087  10.404 -2.8171 -0.6293 -0.6160
   21CHL1  H19B 1522   1.666   4.164  10.277 -0.0976  0.3571 -1.7402
   21CHL1  H19C 1523   1.513   4.062  10.237  0.9277 -0.2321 -0.2668
   21CHL1    C1 1524   1.596   3.813  10.329  0.9116 -0.5590 -0.4087
   21CHL1   H1A 1525   1.505   3.796  10.266 -2.3560  0.2421  3.6335
   21CHL1   H1B 1526   1.659   3.721  10.325  0.4457 -0.9392  0.6067
   21CHL1    C2 1527   1.553   3.814  10.480  0.1057  0.4471 -0.2213
   21CHL1   H2A 1528   1.489   3.728  10.508 -0.7071  0.2059 -2.6040
   21CHL1   H2B 1529   1.480   3.897  10.473  0.6816  0.9301 -0.5931
   21CHL1   C20 1530   1.841   4.046   9.592 -0.3034  0.9618 -0.2101
   21CHL1   H20 1531   1.843   4.156   9.581 -2.1911  1.0157 -0.2367
   21CHL1   C21 1532   1.707   3.985   9.573  0.3608 -0.0381  0.3746
   21CHL1  H21A 1533   1.669   4.021   9.475 -0.1273 -1.0693  0.1760
   21CHL1  H21B 1534   1.621   4.012   9.639  0.0815 -1.3176  0.5588
   21CHL1  H21C 1535   1.709   3.874   9.577 -1.7178 -0.1641 -0.8600
   21CHL1   C22 1536   1.934   3.996   9.481 -0.0073 -0.2113  0.0946
   21CHL1  H22A 1537   2.027   4.056   9.495  0.1156 -0.1029 -1.0952
   21CHL1  H22B 1538   1.958   3.888   9.481  1.5024  0.0993  0.0674
   21CHL1   C23 1539   1.875   4.023   9.340 -0.1860 -0.2459 -0.4075
   21CHL1  H23A 1540   1.788   3.959   9.315 -0.4612 -0.1363  0.2384
   21CHL1  H23B 1541   1.843   4.129   9.334 -0.6226 -0.3701 -0.3202
   21CHL1   C24 1542   1.983   3.998   9.229 -0.0613 -0.0671 -0.2289
   21CHL1  H24A 1543   2.083   4.041   9.252 -0.8053  2.1901 -0.9289
   21CHL1  H24B 1544   2.003   3.892   9.205  1.4335  0.1387  0.0217
   21CHL1   C25 1545   1.937   4.070   9.098 -0.4184  0.4428 -0.7426
   21CHL1   H25 1546   1.890   4.170   9.109  0.3720  0.9719 -1.9906
   21CHL1   C26 1547   2.065   4.092   9.012  0.4777  0.6016 -0.2031
   21CHL1  H26A 1548   2.122   4.178   9.052 -1.4406  1.6406  0.4306
   21CHL1  H26B 1549   2.112   3.992   9.022 -0.6034  0.1824  1.0415
   21CHL1  H26C 1550   2.040   4.126   8.909  1.6799  2.1038 -0.0423
   21CHL1   C27 1551   1.832   3.992   9.016 -0.5428 -0.0574 -0.3042
   21CHL1  H27A 1552   1.744   3.965   9.077 -0.8522  2.2059  0.3611
   21CHL1  H27B 1553   1.795   4.056   8.933 -2.6886  0.8384  1.2676
   21CHL1  H27C 1554   1.861   3.896   8.970 -1.1278  0.9240 -2.8934
   22CHL1    C3 1555   2.027   0.112  10.126 -0.9389 -0.4918  0.2907
   22CHL1    H3 1556   1.933   0.171  10.128 -0.5304  0.3788 -2.6023
   22CHL1    O3 1557   2.096   0.127  10.246 -0.1262 -0.6147 -0.3809
   22CHL1   H3' 1558   2.114   0.041  10.284  0.4955 -0.2973  0.0706
   22CHL1    C4 1559   1.998  -0.038  10.106  1.0605  0.2392  0.2924
   22CHL1   H4A 1560   2.098  -0.084  10.124  1.8333  0.8020 -2.1953
   22CHL1   H4B 1561   1.926  -0.071  10.184 -0.8456  0.7381 -1.1769
   22CHL1    C5 1562   1.933  -0.059   9.967 -0.2512 -0.0806 -0.7700
   22CHL1    C6 1563   1.818  -0.117   9.959  0.2586  0.2108  0.1539
   22CHL1    H6 1564   1.776  -0.165  10.049  1.9163 -1.7878 -0.0819
   22CHL1    C7 1565   1.754  -0.141   9.829  0.0790  0.4135 -0.4528
   22CHL1   H7A 1566   1.706  -0.240   9.816 -0.1652  0.5188 -0.3493
   22CHL1   H7B 1567   1.678  -0.062   9.810 -1.1958 -1.0465 -1.6426
   22CHL1    C8 1568   1.848  -0.124   9.710 -0.4452  0.6801  0.1420
   22CHL1    H8 1569   1.918  -0.209   9.724 -0.2578  0.8491  0.2376
   22CHL1   C14 1570   1.769  -0.124   9.578  0.3744 -0.0731  0.8684
   22CHL1   H14 1571   1.708  -0.031   9.583 -0.5120 -0.6437  1.0143
   22CHL1   C15 1572   1.669  -0.239   9.553  0.1880 -0.6364  0.4209
   22CHL1  H15A 1573   1.703  -0.325   9.616  0.5095  0.8827  2.4240
   22CHL1  H15B 1574   1.566  -0.227   9.594 -0.3892 -0.8536 -0.9038
   22CHL1   C16 1575   1.658  -0.250   9.401 -0.0473 -0.2415  0.0164
   22CHL1  H16A 1576   1.688  -0.349   9.358 -0.4010 -0.6516  0.7023
   22CHL1  H16B 1577   1.550  -0.231   9.383  0.1725  0.1643 -0.9785
   22CHL1   C17 1578   1.748  -0.136   9.343  0.1238  0.5782 -0.8797
   22CHL1   H17 1579   1.689  -0.043   9.331  0.7551  0.8299 -2.2734
   22CHL1   C13 1580   1.855  -0.114   9.451  0.8454 -0.3921  0.3840
   22CHL1   C18 1581   1.962  -0.226   9.437  0.1736  1.2757  0.0301
   22CHL1  H18A 1582   2.014  -0.236   9.534 -1.8893 -0.1707  1.0722
   22CHL1  H18B 1583   1.912  -0.323   9.417  1.2239  0.8659 -0.6595
   22CHL1  H18C 1584   2.033  -0.201   9.355  0.4334  0.9800  0.1641
   22CHL1   C12 1585   1.915   0.025   9.461 -0.7434  0.1495 -0.2960
   22CHL1  H12A 1586   1.971   0.044   9.367 -2.0590 -0.5992 -1.2620
   22CHL1  H12B 1587   1.837   0.103   9.450 -1.3114  0.0244  2.1912
   22CHL1   C11 1588   1.994   0.039   9.590 -0.5194  0.2082 -0.3382
   22CHL1  H11A 1589   2.076  -0.035   9.576 -1.7520 -1.2844  0.0985
   22CHL1  H11B 1590   2.035   0.143   9.591  0.0921 -0.0207 -1.1459
   22CHL1    C9 1591   1.924   0.005   9.725 -0.1094 -0.4526 -0.0690
   22CHL1    H9 1592   1.850   0.088   9.733  0.0128 -0.2271 -1.0377
   22CHL1   C10 1593   2.014   0.007   9.853 -0.4079  0.1478  0.5266
   22CHL1   C19 1594   2.137  -0.080   9.825  0.0334  0.0024  0.0040
   22CHL1  H19A 1595   2.122  -0.187   9.798  2.6926 -0.1858 -1.0018
   22CHL1  H19B 1596   2.194  -0.030   9.745 -1.4152 -0.4728 -1.3795
   22CHL1  H19C 1597   2.199  -0.082   9.918  1.3583 -2.2928 -0.8448
   22CHL1    C1 1598   2.050   0.150   9.882  0.0969 -0.2039  0.3319
   22CHL1   H1A 1599   2.119   0.183   9.801  2.8871  1.2557  3.0808
   22CHL1   H1B 1600   1.962   0.217   9.869  0.3720 -0.2220 -2.0003
   22CHL1    C2 1601   2.115   0.169  10.015 -0.0022  0.5499  0.2269
   22CHL1   H2A 1602   2.126   0.278  10.031 -2.4883  0.8958 -0.0497
   22CHL1   H2B 1603   2.214   0.118  10.026 -0.4421 -0.1055  1.2141
   22CHL1   C20 1604   1.788  -0.171   9.200  1.5566 -0.5902 -0.3314
   22CHL1   H20 1605   1.852  -0.261   9.193  2.7683 -0.1577  3.0694
   22CHL1   C21 1606   1.871  -0.058   9.134 -0.0168  0.0247 -0.2965
   22CHL1  H21A 1607   1.843   0.037   9.185  0.8199 -0.0211  0.2626
   22CHL1  H21B 1608   1.865  -0.062   9.023  2.6793  0.0442 -0.4964
   22CHL1  H21C 1609   1.979  -0.075   9.151 -0.3682 -0.6049  1.4397
   22CHL1   C22 1610   1.671  -0.199   9.105 -0.1321 -0.1272  0.6817
   22CHL1  H22A 1611   1.715  -0.215   9.004 -0.7701 -2.3098  0.6882
   22CHL1  H22B 1612   1.624  -0.299   9.113 -1.3323  0.2412 -1.1446
   22CHL1   C23 1613   1.557  -0.090   9.096 -0.3632 -0.6607 -0.1408
   22CHL1  H23A 1614   1.518  -0.075   9.199  0.5468  1.5119 -0.0754
   22CHL1  H23B 1615   1.606   0.003   9.061 -1.2608 -0.2196 -0.2656
   22CHL1   C24 1616   1.429  -0.125   9.014 -0.5047  0.0420 -0.5041
   22CHL1  H24A 1617   1.462  -0.163   8.915  1.1268  1.9754 -0.7610
   22CHL1  H24B 1618   1.390  -0.212   9.071  2.9004 -0.2299  1.6839
   22CHL1   C25 1619   1.325  -0.017   8.986 -0.0464  0.6748  0.2759
   22CHL1   H25 1620   1.377   0.075   8.951 -2.6055  1.9476 -0.4225
   22CHL1   C26 1621   1.211  -0.035   8.881  1.2157 -0.2628  0.0978
   22CHL1  H26A 1622   1.140  -0.120   8.886  2.0452 -0.9219  0.9258
   22CHL1  H26B 1623   1.154   0.061   8.880  0.3712 -0.7406 -1.3372
   22CHL1  H26C 1624   1.265  -0.043   8.784 -0.7545 -0.2090 -1.0538
   22CHL1   C27 1625   1.267   0.024   9.126  0.1677  0.6710 -0.2777
   22CHL1  H27A 1626   1.205   0.116   9.116 -4.4064 -2.2777 -1.9805
   22CHL1  H27B 1627   1.201  -0.050   9.174 -0.8957  1.3439 -0.6563
   22CHL1  H27C 1628   1.356   0.052   9.187  1.3312  2.8169 -2.7488
   23CHL1    C3 1629   4.437   0.467  10.287 -0.3495  0.8007 -0.3637
   23CHL1    H3 1630   4.356   0.542  10.279 -1.2529 -0.0484  0.5532
   23CHL1    O3 1631   4.491   0.454  10.420  0.5262 -0.4397  0.3529
   23CHL1   H3' 1632   4.415   0.471  10.476  0.0875 -0.7213 -0.1477
   23CHL1    C4 1633   4.401   0.331  10.241  0.6908 -0.3240 -0.2628
   23CHL1   H4A 1634   4.487   0.262  10.254  0.4103 -0.4604  1.0092
   23CHL1   H4B 1635   4.319   0.296  10.308  1.1398 -1.4889 -0.2957
   23CHL1    C5 1636   4.352   0.337  10.092 -0.2260  0.1535  0.2131
   23CHL1    C6 1637   4.227   0.303  10.069  0.0526 -0.2098 -0.1255
   23CHL1    H6 1638   4.166   0.266  10.153 -0.3008  1.0840  0.2214
   23CHL1    C7 1639   4.174   0.310   9.928  0.5789 -0.1000 -0.1890
   23CHL1   H7A 1640   4.115   0.220   9.899 -0.7143 -0.8074  3.9628
   23CHL1   H7B 1641   4.109   0.400   9.921 -0.9923 -1.2097 -0.3745
   23CHL1    C8 1642   4.277   0.330   9.819  0.2818  0.1333  0.4191
   23CHL1    H8 1643   4.325   0.231   9.807  1.7708  0.8309  0.3214
   23CHL1   C14 1644   4.220   0.377   9.683  0.9319  0.2333 -0.1999
   23CHL1   H14 1645   4.179   0.478   9.702  2.4568  0.9936 -0.7857
   23CHL1   C15 1646   4.107   0.291   9.620 -0.0423 -0.7157 -0.1569
   23CHL1  H15A 1647   4.114   0.182   9.634 -2.6384 -0.7173  1.9310
   23CHL1  H15B 1648   4.008   0.327   9.656 -0.1107  0.8397 -1.7756
   23CHL1   C16 1649   4.113   0.330   9.466  0.4234  0.1629 -0.5323
   23CHL1  H16A 1650   4.128   0.238   9.406 -1.5157  0.1087 -0.9745
   23CHL1  H16B 1651   4.014   0.374   9.440  0.4285  0.1331 -0.6019
   23CHL1   C17 1652   4.232   0.437   9.455 -0.2917  0.3246 -0.0443
   23CHL1   H17 1653   4.195   0.540   9.472  0.5604  0.9202 -1.5944
   23CHL1   C13 1654   4.320   0.403   9.573  0.2005 -0.9066 -0.5277
   23CHL1   C18 1655   4.401   0.273   9.536 -0.3910  0.0375  0.6948
   23CHL1  H18A 1656   4.447   0.221   9.622  1.3215  2.6415  1.4644
   23CHL1  H18B 1657   4.330   0.196   9.499 -0.8891  0.1542  1.3872
   23CHL1  H18C 1658   4.475   0.293   9.455 -1.3088  0.7966  0.0104
   23CHL1   C12 1659   4.410   0.511   9.626  0.6406 -0.0106 -0.1042
   23CHL1  H12A 1660   4.487   0.550   9.555 -0.0177  2.0745  0.2492
   23CHL1  H12B 1661   4.351   0.599   9.658  0.5466 -0.0248 -0.2408
   23CHL1   C11 1662   4.488   0.456   9.745 -0.5829 -0.0977 -0.1863
   23CHL1  H11A 1663   4.555   0.370   9.721  2.0010  1.2805  1.6203
   23CHL1  H11B 1664   4.554   0.537   9.782 -1.0672  0.5397 -0.7088
   23CHL1    C9 1665   4.383   0.425   9.860 -0.3282 -0.5809 -0.6193
   23CHL1    H9 1666   4.322   0.515   9.882 -1.5554 -1.6983  0.7680
   23CHL1   C10 1667   4.460   0.391   9.991 -0.1622 -0.1983  1.0689
   23CHL1   C19 1668   4.568   0.281   9.963 -0.5405  0.4143 -0.5674
   23CHL1  H19A 1669   4.628   0.267  10.056  1.5294  0.2809 -1.8663
   23CHL1  H19B 1670   4.521   0.187   9.928  0.9873 -0.0922 -1.3612
   23CHL1  H19C 1671   4.648   0.315   9.894  0.4629 -0.8041 -0.0435
   23CHL1    C1 1672   4.512   0.524  10.058 -0.4051  0.3382  1.0991
   23CHL1   H1A 1673   4.601   0.555   9.999 -1.7034 -0.8613 -1.6573
   23CHL1   H1B 1674   4.432   0.601  10.053  1.5954  2.4513 -0.9253
   23CHL1    C2 1675   4.553   0.517  10.200 -0.0092  0.4340  0.3530
   23CHL1   H2A 1676   4.582   0.617  10.239 -0.4260 -0.0555  1.9994
   23CHL1   H2B 1677   4.638   0.446  10.203 -0.9106 -1.2278 -4.6528
   23CHL1   C20 1678   4.288   0.434   9.312 -0.2001  0.1433 -0.0104
   23CHL1   H20 1679   4.332   0.332   9.308 -0.9162 -0.2077  0.8676
   23CHL1   C21 1680   4.406   0.533   9.276  0.0591 -1.0360  0.0121
   23CHL1  H21A 1681   4.431   0.521   9.168 -1.9651 -0.2314 -0.6092
   23CHL1  H21B 1682   4.497   0.504   9.332  0.4956 -0.9288 -0.6408
   23CHL1  H21C 1683   4.388   0.640   9.303  0.1300 -0.9517 -0.2643
   23CHL1   C22 1684   4.177   0.442   9.201  0.7612 -0.5337 -0.3243
   23CHL1  H22A 1685   4.213   0.423   9.097 -2.6079 -3.4883 -1.1866
   23CHL1  H22B 1686   4.107   0.356   9.212  1.6924 -1.2441  0.1668
   23CHL1   C23 1687   4.106   0.579   9.198  0.5353 -0.6044 -0.2802
   23CHL1  H23A 1688   4.051   0.593   9.294 -3.0153  1.5503 -2.4081
   23CHL1  H23B 1689   4.168   0.669   9.185  0.3186 -0.2310  1.0816
   23CHL1   C24 1690   4.018   0.578   9.076  0.2565 -0.0608  0.0632
   23CHL1  H24A 1691   4.086   0.559   8.990 -1.0899 -0.4681 -0.9405
   23CHL1  H24B 1692   3.935   0.505   9.091 -0.1074  0.5085  0.9524
   23CHL1   C25 1693   3.953   0.716   9.039  0.3546 -0.0913 -0.3075
   23CHL1   H25 1694   4.036   0.780   9.003  2.1443 -2.0348  0.1637
   23CHL1   C26 1695   3.865   0.700   8.913  0.3195 -0.3426 -0.4219
   23CHL1  H26A 1696   3.788   0.781   8.914  1.6270  0.9652  2.1291
   23CHL1  H26B 1697   3.932   0.695   8.824  0.7857  0.1931 -0.1054
   23CHL1  H26C 1698   3.796   0.614   8.924 -0.6429  0.5500  0.8341
   23CHL1   C27 1699   3.887   0.782   9.160  0.0508  0.3679 -0.0627
   23CHL1  H27A 1700   3.841   0.879   9.132 -3.7905 -0.6803  1.8994
   23CHL1  H27B 1701   3.803   0.717   9.192 -0.6829 -0.0975 -2.6672
   23CHL1  H27C 1702   3.964   0.793   9.238 -0.3151  0.5792  0.2746
   24CHL1    C3 1703   0.343   0.228  10.305 -1.0672  0.3918 -0.3497
   24CHL1    H3 1704   0.367   0.126  10.268 -0.4833  0.7761 -1.0692
   24CHL1    O3 1705   0.308   0.228  10.443  0.4301 -0.0555  0.0498
   24CHL1   H3' 1706   0.238   0.295  10.441  1.3057  0.8817 -0.1706
   24CHL1    C4 1707   0.460   0.317  10.283 -0.2130 -0.5322  1.0022
   24CHL1   H4A 1708   0.442   0.419  10.323 -1.0448 -0.4797  0.4958
   24CHL1   H4B 1709   0.541   0.278  10.348  0.5325  0.6733  0.8446
   24CHL1    C5 1710   0.506   0.324  10.134 -0.4676 -0.1417 -0.2380
   24CHL1    C6 1711   0.634   0.306  10.103 -0.2108 -0.7890 -0.1437
   24CHL1    H6 1712   0.711   0.285  10.179  1.9412 -0.6111 -2.1510
   24CHL1    C7 1713   0.688   0.304   9.962 -0.2460 -0.0753 -0.0639
   24CHL1   H7A 1714   0.777   0.370   9.961  0.5052 -0.9734  2.2602
   24CHL1   H7B 1715   0.716   0.198   9.944 -1.0913 -0.6140  1.5478
   24CHL1    C8 1716   0.579   0.357   9.862 -0.0759 -0.5687  0.2011
   24CHL1    H8 1717   0.588   0.467   9.863 -0.2672 -0.5406  1.4303
   24CHL1   C14 1718   0.611   0.323   9.722  0.8388  0.3238  0.0444
   24CHL1   H14 1719   0.601   0.213   9.724 -0.2891  0.3996  2.6594
   24CHL1   C15 1720   0.752   0.357   9.674 -0.7009 -0.3651  0.0904
   24CHL1  H15A 1721   0.786   0.450   9.725  2.2098 -0.4890 -1.4256
   24CHL1  H15B 1722   0.823   0.276   9.704 -0.5827 -1.1015 -2.0085
   24CHL1   C16 1723   0.746   0.370   9.521 -0.7715 -0.1781  0.2529
   24CHL1  H16A 1724   0.765   0.477   9.497 -1.2578  0.0797  0.9898
   24CHL1  H16B 1725   0.814   0.304   9.464  0.2172 -0.4202  1.6705
   24CHL1   C17 1726   0.593   0.348   9.485 -0.1636 -0.0311  0.4903
   24CHL1   H17 1727   0.586   0.238   9.469  1.3268 -0.5051  2.7008
   24CHL1   C13 1728   0.513   0.378   9.608 -0.3143  0.2293 -0.1188
   24CHL1   C18 1729   0.496   0.536   9.611 -0.1032  0.9025 -0.2079
   24CHL1  H18A 1730   0.422   0.570   9.536 -1.1674  0.6772  0.7190
   24CHL1  H18B 1731   0.460   0.566   9.712 -0.2169  2.1153 -0.5953
   24CHL1  H18C 1732   0.598   0.579   9.596 -0.0574  0.0810 -2.7274
   24CHL1   C12 1733   0.377   0.312   9.636  0.7740 -0.5007  0.7112
   24CHL1  H12A 1734   0.298   0.354   9.571  1.0061 -0.6854  0.3025
   24CHL1  H12B 1735   0.389   0.202   9.623 -1.6634 -0.8971  1.4597
   24CHL1   C11 1736   0.329   0.338   9.776  0.6328 -0.3996  0.3714
   24CHL1  H11A 1737   0.292   0.443   9.779 -0.8405 -0.8878  0.0428
   24CHL1  H11B 1738   0.250   0.262   9.794 -0.0810 -0.4909 -2.6448
   24CHL1    C9 1739   0.430   0.314   9.893  0.1394 -0.0499  1.3099
   24CHL1    H9 1740   0.445   0.204   9.900  0.5668  0.0933  3.2260
   24CHL1   C10 1741   0.393   0.351  10.038 -0.1132  0.5083 -0.1896
   24CHL1   C19 1742   0.360   0.505  10.053  0.4936 -0.2554 -0.3150
   24CHL1  H19A 1743   0.335   0.536  10.157  0.7048  0.5845 -0.5089
   24CHL1  H19B 1744   0.448   0.564  10.019 -0.1818 -0.2092 -2.0911
   24CHL1  H19C 1745   0.279   0.530   9.982 -0.0780 -0.2519  0.3335
   24CHL1    C1 1746   0.258   0.276  10.079  0.5788  0.7968  0.3561
   24CHL1   H1A 1747   0.174   0.327  10.028 -0.4435  0.3021  1.4859
   24CHL1   H1B 1748   0.273   0.168  10.055 -0.7990  1.0157 -1.8365
   24CHL1    C2 1749   0.222   0.289  10.226  0.9293  0.5093 -0.5656
   24CHL1   H2A 1750   0.132   0.230  10.253  2.2993 -0.8738  1.2700
   24CHL1   H2B 1751   0.200   0.395  10.250 -0.8465  0.4214 -1.6700
   24CHL1   C20 1752   0.560   0.416   9.358 -0.6616 -0.5124  0.1875
   24CHL1   H20 1753   0.559   0.527   9.364  0.5895 -0.4501 -0.3908
   24CHL1   C21 1754   0.421   0.373   9.313  0.5488 -0.5844  0.3846
   24CHL1  H21A 1755   0.349   0.416   9.385  2.0161 -0.0806  1.5908
   24CHL1  H21B 1756   0.422   0.262   9.321 -1.5783 -0.6305  0.4886
   24CHL1  H21C 1757   0.398   0.415   9.213  2.9464  0.0364  0.0245
   24CHL1   C22 1758   0.669   0.395   9.242 -0.3087  0.5817 -0.7259
   24CHL1  H22A 1759   0.762   0.438   9.286 -0.6560 -0.9756  1.7300
   24CHL1  H22B 1760   0.691   0.288   9.220 -3.8629 -0.2038 -0.9543
   24CHL1   C23 1761   0.637   0.469   9.109  0.2094 -0.3150  0.3843
   24CHL1  H23A 1762   0.567   0.411   9.046 -1.6157  1.0193  1.0765
   24CHL1  H23B 1763   0.595   0.571   9.120 -0.3460 -0.1959 -2.1983
   24CHL1   C24 1764   0.760   0.503   9.024 -0.0508 -0.5630 -0.0184
   24CHL1  H24A 1765   0.721   0.586   8.961  0.5177  0.4554  0.9462
   24CHL1  H24B 1766   0.831   0.556   9.090  0.1736 -0.9050  0.0192
   24CHL1   C25 1767   0.800   0.398   8.925 -0.5068  0.1352 -0.0201
   24CHL1   H25 1768   0.731   0.312   8.941 -0.8744  0.5716  0.7996
   24CHL1   C26 1769   0.798   0.441   8.777  0.0219  0.2408  0.1362
   24CHL1  H26A 1770   0.694   0.474   8.754 -0.0215 -0.2195 -0.3527
   24CHL1  H26B 1771   0.867   0.528   8.774  0.1428  0.1697  0.6431
   24CHL1  H26C 1772   0.825   0.353   8.715 -0.4529 -1.5641  2.3559
   24CHL1   C27 1773   0.945   0.361   8.961 -0.1054 -0.2774  0.2542
   24CHL1  H27A 1774   0.964   0.312   9.059  1.0769 -0.7521 -0.1848
   24CHL1  H27B 1775   0.978   0.295   8.877 -1.6845  1.4304 -1.8306
   24CHL1  H27C 1776   0.993   0.460   8.947 -0.7815  0.3580  2.2112
   25CHL1    C3 1777   0.190   1.796  10.681 -0.0351 -0.2453 -0.2564
   25CHL1    H3 1778   0.093   1.747  10.658  0.5763 -0.6148 -2.2688
   25CHL1    O3 1779   0.179   1.855  10.807 -0.1835  0.4104 -0.0307
   25CHL1   H3' 1780   0.256   1.826  10.857 -0.3830  1.2431  0.7880
   25CHL1    C4 1781   0.315   1.709  10.665 -0.4156  0.2375 -0.3802
   25CHL1   H4A 1782   0.408   1.758  10.701 -0.2915 -0.3128  0.0616
   25CHL1   H4B 1783   0.284   1.626  10.733 -0.9309 -0.5064 -1.4899
   25CHL1    C5 1784   0.346   1.659  10.528  0.2260  0.1828  0.1738
   25CHL1    C6 1785   0.358   1.526  10.504 -0.1642 -0.3139  0.2891
   25CHL1    H6 1786   0.354   1.456  10.589  0.4227 -0.3140  0.3273
   25CHL1    C7 1787   0.364   1.455  10.370 -0.3811  0.0142  0.1918
   25CHL1   H7A 1788   0.436   1.371  10.375  0.9370  1.1448  1.1986
   25CHL1   H7B 1789   0.264   1.413  10.346 -0.2070  0.7934 -2.1705
   25CHL1    C8 1790   0.396   1.559  10.254 -0.1546  0.1454 -0.3885
   25CHL1    H8 1791   0.505   1.575  10.271  0.1497 -3.2160  1.9754
   25CHL1   C14 1792   0.356   1.496  10.122  0.4398  0.1980  0.0341
   25CHL1   H14 1793   0.245   1.491  10.128  0.5015  0.0466  4.6588
   25CHL1   C15 1794   0.410   1.359  10.072 -0.4374  0.3208 -0.3382
   25CHL1  H15A 1795   0.510   1.348  10.119 -0.5850 -0.9217 -0.2708
   25CHL1  H15B 1796   0.346   1.273  10.103 -0.6479 -0.0004 -1.6124
   25CHL1   C16 1797   0.401   1.362   9.920  0.3767 -0.0371  0.0147
   25CHL1  H16A 1798   0.507   1.368   9.885  0.2167  1.2051 -0.2988
   25CHL1  H16B 1799   0.334   1.293   9.865 -0.0310  0.7628 -0.5035
   25CHL1   C17 1800   0.347   1.505   9.881 -0.1021 -0.4223 -0.1485
   25CHL1   H17 1801   0.236   1.503   9.887 -0.1357  1.5591  0.7338
   25CHL1   C13 1802   0.379   1.589  10.005  0.2555  0.1284  0.2062
   25CHL1   C18 1803   0.531   1.627   9.989  0.7309  0.1706  0.1333
   25CHL1  H18A 1804   0.554   1.698   9.906  1.2915 -0.6319 -0.4134
   25CHL1  H18B 1805   0.566   1.675  10.082 -1.0445  0.6258  0.6063
   25CHL1  H18C 1806   0.592   1.537   9.968 -0.3014 -0.3640 -0.6608
   25CHL1   C12 1807   0.294   1.719  10.021 -0.3668  0.3275  0.3803
   25CHL1  H12A 1808   0.306   1.791   9.938 -1.2074  0.6875  0.5611
   25CHL1  H12B 1809   0.184   1.701  10.027 -0.3489  0.6473  2.6227
   25CHL1   C11 1810   0.337   1.777  10.154  0.7125  0.1011  0.1347
   25CHL1  H11A 1811   0.444   1.805  10.149  0.8710  0.0473  2.3199
   25CHL1  H11B 1812   0.283   1.874  10.167  0.3770  0.0962 -1.1407
   25CHL1    C9 1813   0.319   1.682  10.277 -0.5130 -0.0356  0.3703
   25CHL1    H9 1814   0.213   1.651  10.285 -0.6650  0.2832 -0.3022
   25CHL1   C10 1815   0.341   1.758  10.410 -0.0199 -0.1697 -0.1583
   25CHL1   C19 1816   0.473   1.846  10.406  0.2888  0.4094  0.5202
   25CHL1  H19A 1817   0.563   1.793  10.367 -0.5548  0.6382 -1.9198
   25CHL1  H19B 1818   0.454   1.931  10.338  0.3016 -0.0157 -0.0200
   25CHL1  H19C 1819   0.502   1.884  10.506 -1.1242  0.2211  1.0133
   25CHL1    C1 1820   0.216   1.854  10.434  0.2910 -0.3472  0.6105
   25CHL1   H1A 1821   0.231   1.940  10.366  0.9405 -0.2045  0.9281
   25CHL1   H1B 1822   0.118   1.806  10.410 -0.7236  1.2162  1.4864
   25CHL1    C2 1823   0.200   1.915  10.574 -0.3280  0.4143 -0.6374
   25CHL1   H2A 1824   0.116   1.985  10.558 -1.2912 -1.2759 -3.9427
   25CHL1   H2B 1825   0.297   1.966  10.589  1.6157 -2.9365 -0.6705
   25CHL1   C20 1826   0.401   1.547   9.741  0.0194 -0.1276 -0.3975
   25CHL1   H20 1827   0.511   1.536   9.751 -0.0879 -0.4091  0.5472
   25CHL1   C21 1828   0.357   1.691   9.701  0.4084 -0.0918 -0.4363
   25CHL1  H21A 1829   0.388   1.702   9.595 -0.4621  0.7549 -0.6107
   25CHL1  H21B 1830   0.401   1.780   9.751 -0.5597 -0.9446  2.0596
   25CHL1  H21C 1831   0.247   1.706   9.706  0.1694 -1.6704 -0.6123
   25CHL1   C22 1832   0.363   1.449   9.629  0.4024  0.3408 -0.1646
   25CHL1  H22A 1833   0.384   1.349   9.673  0.3313  0.3767 -0.0483
   25CHL1  H22B 1834   0.253   1.445   9.617  0.2491  1.9683  0.3752
   25CHL1   C23 1835   0.445   1.468   9.500  0.2061 -0.2632  0.0541
   25CHL1  H23A 1836   0.415   1.550   9.433 -2.1943 -2.9221 -2.4009
   25CHL1  H23B 1837   0.552   1.481   9.527 -0.1809  1.0903  1.0239
   25CHL1   C24 1838   0.445   1.342   9.409  0.1052  0.5250  0.7506
   25CHL1  H24A 1839   0.490   1.257   9.464  0.2343 -0.0111 -0.1523
   25CHL1  H24B 1840   0.341   1.323   9.377 -0.6276  3.2394  1.2756
   25CHL1   C25 1841   0.516   1.367   9.277 -0.2510  0.5367  0.0582
   25CHL1   H25 1842   0.515   1.476   9.254  0.6154  0.1452 -2.0289
   25CHL1   C26 1843   0.662   1.327   9.287  0.1463  0.5943 -0.0693
   25CHL1  H26A 1844   0.659   1.225   9.331 -1.5411  0.7407  0.2323
   25CHL1  H26B 1845   0.707   1.321   9.185 -0.1014  0.3658 -0.1662
   25CHL1  H26C 1846   0.725   1.388   9.355  0.8520  0.0480 -0.2192
   25CHL1   C27 1847   0.449   1.282   9.167 -0.3388 -0.1662  0.1180
   25CHL1  H27A 1848   0.504   1.289   9.071 -0.0870  0.2062  0.2840
   25CHL1  H27B 1849   0.452   1.177   9.203 -1.4752  0.5169  2.4030
   25CHL1  H27C 1850   0.349   1.325   9.149  1.2898  4.6378  1.0337
   26CHL1    C3 1851   2.047   4.318  10.683 -0.4630  0.4252 -0.3721
   26CHL1    H3 1852   2.153   4.344  10.704  0.3717 -3.1215  0.5419
   26CHL1    O3 1853   1.999   4.266  10.804  0.5205  0.1774  0.1919
   26CHL1   H3' 1854   1.905   4.263  10.781  0.5950  1.3027 -0.3189
   26CHL1    C4 1855   1.969   4.441  10.638 -1.2906 -0.0281  0.1572
   26CHL1   H4A 1856   1.862   4.415  10.632 -1.4274  0.7450 -1.1355
   26CHL1   H4B 1857   1.986   4.508  10.725  0.6674 -0.0753 -0.1278
   26CHL1    C5 1858   2.022   4.486  10.500  0.2082  0.3053 -0.4271
   26CHL1    C6 1859   2.067   4.610  10.481  0.3952 -0.7946 -0.1623
   26CHL1    H6 1860   2.072   4.679  10.567  2.6830 -1.0363 -0.0466
   26CHL1    C7 1861   2.110   4.674  10.351  0.2228  0.0191  0.3798
   26CHL1   H7A 1862   2.072   4.778  10.340  0.1553 -0.2054 -1.9028
   26CHL1   H7B 1863   2.221   4.665  10.347  0.0592 -2.9773 -0.0052
   26CHL1    C8 1864   2.061   4.585  10.231 -0.0142 -0.1982 -0.3617
   26CHL1    H8 1865   1.952   4.597  10.216 -0.2079 -2.7830 -1.4951
   26CHL1   C14 1866   2.131   4.631  10.104 -0.2731  0.4904  0.4695
   26CHL1   H14 1867   2.240   4.620  10.124 -0.3518 -0.4575  0.3976
   26CHL1   C15 1868   2.119   4.779  10.062 -0.2422 -0.1519 -0.0390
   26CHL1  H15A 1869   2.021   4.829  10.048  0.0085  0.6099  0.8534
   26CHL1  H15B 1870   2.181   4.833  10.137  3.3529  1.0460 -3.5694
   26CHL1   C16 1871   2.195   4.782   9.920  0.0450  0.0286 -0.7999
   26CHL1  H16A 1872   2.144   4.857   9.856 -0.7600  1.0180  0.9363
   26CHL1  H16B 1873   2.295   4.828   9.934 -0.3658  0.2890  1.6979
   26CHL1   C17 1874   2.193   4.631   9.871  0.4224  0.6128 -0.7358
   26CHL1   H17 1875   2.298   4.598   9.890  0.4747  1.3613  0.3265
   26CHL1   C13 1876   2.111   4.552   9.977  0.5579 -0.1406  0.1176
   26CHL1   C18 1877   1.966   4.569   9.937 -0.4967  0.5896  0.3729
   26CHL1  H18A 1878   1.929   4.521   9.844 -1.5952  0.4987  0.8453
   26CHL1  H18B 1879   1.903   4.533  10.022 -0.3121 -0.6919 -0.0001
   26CHL1  H18C 1880   1.936   4.674   9.921 -1.5571  0.1579 -0.6062
   26CHL1   C12 1881   2.153   4.401  10.017  0.5814 -0.0627 -0.2716
   26CHL1  H12A 1882   2.151   4.335   9.927 -0.1295 -3.0343  1.7697
   26CHL1  H12B 1883   2.261   4.419  10.037  1.1141 -0.0900 -2.7436
   26CHL1   C11 1884   2.070   4.354  10.138 -0.5569 -0.1783 -1.0011
   26CHL1  H11A 1885   1.963   4.365  10.109 -0.3835 -0.5381 -1.7913
   26CHL1  H11B 1886   2.081   4.246  10.162 -1.2644 -0.0859 -0.1955
   26CHL1    C9 1887   2.094   4.438  10.263  0.1052  0.2246 -0.2618
   26CHL1    H9 1888   2.203   4.433  10.287 -0.1347  0.8413  1.0511
   26CHL1   C10 1889   2.024   4.386  10.389 -0.5895 -0.1307 -0.1653
   26CHL1   C19 1890   1.880   4.346  10.351  0.4865  0.6996  0.5620
   26CHL1  H19A 1891   1.868   4.247  10.301 -3.3226  0.8807  0.7696
   26CHL1  H19B 1892   1.812   4.345  10.439  0.2498  1.1838  0.3907
   26CHL1  H19C 1893   1.842   4.425  10.283 -0.0676 -0.1181 -0.1103
   26CHL1    C1 1894   2.097   4.253  10.446 -0.3758  0.0526 -0.2323
   26CHL1   H1A 1895   2.093   4.173  10.368 -0.5499  0.3653 -0.5433
   26CHL1   H1B 1896   2.201   4.288  10.464  0.0173 -0.6947 -0.9397
   26CHL1    C2 1897   2.042   4.208  10.584 -0.3319 -0.1896  0.1587
   26CHL1   H2A 1898   2.102   4.119  10.611 -1.3660 -1.2083 -0.7609
   26CHL1   H2B 1899   1.937   4.172  10.573 -0.7215  1.6075 -2.7745
   26CHL1   C20 1900   2.145   4.618   9.728 -0.0230  0.4819 -0.2831
   26CHL1   H20 1901   2.045   4.665   9.713  1.0596  2.5741 -1.3365
   26CHL1   C21 1902   2.136   4.475   9.679 -0.5419  0.3668 -0.5221
   26CHL1  H21A 1903   2.068   4.409   9.737  1.5278 -1.7877 -0.3574
   26CHL1  H21B 1904   2.241   4.437   9.679 -0.6130  0.0513 -2.7996
   26CHL1  H21C 1905   2.109   4.469   9.572  0.3085 -0.7393 -0.6932
   26CHL1   C22 1906   2.251   4.689   9.633 -1.1234 -0.3259  0.2210
   26CHL1  H22A 1907   2.254   4.793   9.670 -0.2733 -0.0022 -0.7166
   26CHL1  H22B 1908   2.352   4.644   9.646  0.6116  2.7800 -1.4959
   26CHL1   C23 1909   2.223   4.708   9.482 -0.6796  0.0916 -1.3119
   26CHL1  H23A 1910   2.288   4.785   9.437  0.1676  1.2434  1.6639
   26CHL1  H23B 1911   2.246   4.611   9.433 -1.2384  0.5394 -2.4986
   26CHL1   C24 1912   2.074   4.729   9.448  0.2964 -0.4282  0.1471
   26CHL1  H24A 1913   2.024   4.631   9.456 -0.5577  0.0936  1.5574
   26CHL1  H24B 1914   2.022   4.796   9.519  1.7090  0.1536  0.6682
   26CHL1   C25 1915   2.065   4.788   9.300  0.1850  0.0818 -0.7354
   26CHL1   H25 1916   2.146   4.864   9.291  2.0814 -1.5243  1.3000
   26CHL1   C26 1917   2.078   4.667   9.206  0.8627 -0.7684  0.1578
   26CHL1  H26A 1918   2.041   4.705   9.109 -0.7105  2.0069  1.6898
   26CHL1  H26B 1919   2.183   4.634   9.193  1.4295  0.9984 -0.0838
   26CHL1  H26C 1920   2.012   4.585   9.241 -1.6082  1.4110  0.9367
   26CHL1   C27 1921   1.927   4.862   9.282  0.2952  0.0263  0.2796
   26CHL1  H27A 1922   1.895   4.858   9.175  0.5387  1.3270  0.1391
   26CHL1  H27B 1923   1.850   4.803   9.337 -1.1912  2.2423  0.6942
   26CHL1  H27C 1924   1.938   4.961   9.331 -1.3015  0.5187 -0.2896
   27CHL1    C3 1925   1.542   2.274  10.604 -1.0635  0.2987 -0.1011
   27CHL1    H3 1926   1.564   2.382  10.595  0.8344 -0.1903 -2.4861
   27CHL1    O3 1927   1.536   2.252  10.743  0.2001 -0.9715 -0.3434
   27CHL1   H3' 1928   1.536   2.157  10.757 -0.2775 -1.0816 -1.0503
   27CHL1    C4 1929   1.401   2.249  10.537  0.4204 -0.6260 -0.5456
   27CHL1   H4A 1930   1.359   2.152  10.572  0.8650 -1.0338 -1.1262
   27CHL1   H4B 1931   1.336   2.332  10.573 -0.2080 -1.3072 -0.0866
   27CHL1    C5 1932   1.396   2.264  10.390 -0.2451  0.0535  0.2549
   27CHL1    C6 1933   1.312   2.336  10.313  0.6512 -0.1755 -0.6033
   27CHL1    H6 1934   1.238   2.399  10.365  2.6622  2.3107 -0.6064
   27CHL1    C7 1935   1.314   2.354  10.163 -0.1586  0.4191 -0.3895
   27CHL1   H7A 1936   1.210   2.356  10.122 -0.6257  1.0654  0.7894
   27CHL1   H7B 1937   1.355   2.455  10.144 -1.0784  0.6931 -0.9731
   27CHL1    C8 1938   1.404   2.250  10.097  0.2169  0.0145  0.0241
   27CHL1    H8 1939   1.338   2.160  10.101  0.8692 -0.4949 -0.4407
   27CHL1   C14 1940   1.429   2.290   9.952 -0.0595  0.4758 -0.2996
   27CHL1   H14 1941   1.480   2.388   9.942 -0.1111  0.3872 -1.7058
   27CHL1   C15 1942   1.306   2.303   9.858 -0.0673 -0.0453  0.1222
   27CHL1  H15A 1943   1.243   2.213   9.874  0.1718 -0.0275  1.3130
   27CHL1  H15B 1944   1.251   2.398   9.870 -0.2055 -0.2654  1.3870
   27CHL1   C16 1945   1.366   2.308   9.720 -0.5793 -0.2623  0.1034
   27CHL1  H16A 1946   1.299   2.252   9.651  0.1216 -2.7630  1.3536
   27CHL1  H16B 1947   1.378   2.413   9.684  1.4751 -0.4762  0.0614
   27CHL1   C17 1948   1.511   2.250   9.727 -0.6617  0.0216  0.0579
   27CHL1   H17 1949   1.587   2.330   9.722 -1.5684  0.9182  0.3441
   27CHL1   C13 1950   1.522   2.193   9.873  0.2217 -0.4310  0.1510
   27CHL1   C18 1951   1.471   2.045   9.881  0.2349 -0.2937  0.0663
   27CHL1  H18A 1952   1.546   1.971   9.847  1.6165  2.0842 -2.4791
   27CHL1  H18B 1953   1.447   2.021   9.986 -0.1145  0.5895  0.2022
   27CHL1  H18C 1954   1.386   2.027   9.812 -0.5241  0.3923  0.7996
   27CHL1   C12 1955   1.659   2.209   9.945 -0.3620 -0.7054 -0.0465
   27CHL1  H12A 1956   1.734   2.138   9.904  1.3392  1.0489 -0.0985
   27CHL1  H12B 1957   1.687   2.316   9.937 -2.6028  0.0957  1.6437
   27CHL1   C11 1958   1.646   2.167  10.095 -0.6717 -0.0197 -0.0162
   27CHL1  H11A 1959   1.637   2.057  10.090 -2.6315  0.1654 -2.0089
   27CHL1  H11B 1960   1.746   2.179  10.142  0.6452 -1.0949 -2.3393
   27CHL1    C9 1961   1.536   2.230  10.182  0.6030 -0.0065  0.2101
   27CHL1    H9 1962   1.571   2.334  10.199  0.9929 -0.2930  1.2683
   27CHL1   C10 1963   1.511   2.177  10.326  0.2581  0.4674  0.5578
   27CHL1   C19 1964   1.486   2.030  10.319 -0.2527  0.8239  0.8457
   27CHL1  H19A 1965   1.459   1.988  10.419  0.0390 -1.0914  0.1560
   27CHL1  H19B 1966   1.396   2.008  10.257 -0.0344 -0.3895  0.9474
   27CHL1  H19C 1967   1.573   1.970  10.286 -0.1573  1.7515 -0.6805
   27CHL1    C1 1968   1.648   2.196  10.394 -0.2215  0.4837  0.2302
   27CHL1   H1A 1969   1.719   2.118  10.359 -0.6898  0.2553 -0.2291
   27CHL1   H1B 1970   1.695   2.295  10.374  2.5288 -1.2734 -2.9014
   27CHL1    C2 1971   1.649   2.183  10.545 -0.2446  0.3399 -0.0098
   27CHL1   H2A 1972   1.745   2.210  10.594  1.2977 -0.3345 -2.4675
   27CHL1   H2B 1973   1.626   2.077  10.571 -0.8372  0.5218  0.2016
   27CHL1   C20 1974   1.531   2.165   9.600  0.6236 -0.1955 -0.2337
   27CHL1   H20 1975   1.470   2.072   9.608 -1.7223  1.3013  0.2851
   27CHL1   C21 1976   1.687   2.129   9.609  0.3391 -0.1428  0.0471
   27CHL1  H21A 1977   1.708   2.056   9.528  0.8836  1.3720 -1.2199
   27CHL1  H21B 1978   1.726   2.080   9.700  1.1730 -1.6647 -1.0838
   27CHL1  H21C 1979   1.746   2.220   9.586  0.3434  0.0958  0.9764
   27CHL1   C22 1980   1.485   2.231   9.473  0.1414 -0.6487  0.3198
   27CHL1  H22A 1981   1.375   2.235   9.460  0.3405  1.8092 -1.2114
   27CHL1  H22B 1982   1.518   2.337   9.468 -0.8661 -0.3053  0.6939
   27CHL1   C23 1983   1.548   2.150   9.356 -0.2304  0.5759  0.7481
   27CHL1  H23A 1984   1.657   2.169   9.346  0.1162  0.1410  3.0346
   27CHL1  H23B 1985   1.542   2.039   9.363  3.9182  0.2905  2.0619
   27CHL1   C24 1986   1.498   2.194   9.216  0.4814  0.4154 -0.0333
   27CHL1  H24A 1987   1.393   2.160   9.206  0.6069 -0.2126  0.7188
   27CHL1  H24B 1988   1.504   2.305   9.220 -1.1212  0.4952  2.5693
   27CHL1   C25 1989   1.592   2.158   9.106 -0.5648  0.4477  0.4342
   27CHL1   H25 1990   1.697   2.174   9.137  0.0736 -0.0202 -1.3366
   27CHL1   C26 1991   1.589   2.015   9.056  0.1629  1.1606 -0.3185
   27CHL1  H26A 1992   1.670   1.989   8.984 -0.2245 -2.0597  0.2739
   27CHL1  H26B 1993   1.606   1.946   9.142  0.2568  3.1289  1.3074
   27CHL1  H26C 1994   1.492   1.985   9.009  0.0542  0.6245  0.2385
   27CHL1   C27 1995   1.561   2.245   8.985  0.2126 -0.1717 -0.4814
   27CHL1  H27A 1996   1.644   2.238   8.911 -0.5029 -1.2818 -1.2104
   27CHL1  H27B 1997   1.466   2.215   8.935  0.8427 -1.6103 -0.8761
   27CHL1  H27C 1998   1.564   2.353   9.012  2.9867 -0.4711  0.7366
   28CHL1    C3 1999   0.058   0.981  10.448 -0.4191 -0.3313  0.0870
   28CHL1    H3 2000  -0.006   1.071  10.432  1.2240  1.2887  2.0684
   28CHL1    O3 2001   0.059   0.946  10.584 -0.3369 -0.1372 -0.4426
   28CHL1   H3' 2002   0.090   1.024  10.631  0.7396 -0.7235 -0.1403
   28CHL1    C4 2003   0.007   0.870  10.360 -0.1156 -0.4319  0.2138
   28CHL1   H4A 2004   0.062   0.775  10.377  1.0455 -0.2791 -2.2551
   28CHL1   H4B 2005  -0.095   0.845  10.398  0.5753 -1.2302  1.6374
   28CHL1    C5 2006   0.013   0.898  10.215 -0.3330 -0.3684 -0.2647
   28CHL1    C6 2007  -0.099   0.899  10.142  0.4489  0.5112 -0.3217
   28CHL1    H6 2008  -0.196   0.868  10.185  0.8767 -0.1270  0.2019
   28CHL1    C7 2009  -0.105   0.915   9.989 -0.1523  0.1972  0.1912
   28CHL1   H7A 2010  -0.164   0.843   9.929 -1.2751  0.9669  0.3503
   28CHL1   H7B 2011  -0.138   1.020   9.975 -2.3351 -0.6823 -1.8819
   28CHL1    C8 2012   0.045   0.896   9.942  0.0939  0.3428  0.9161
   28CHL1    H8 2013   0.081   0.792   9.957 -1.1320 -0.5999 -1.9389
   28CHL1   C14 2014   0.057   0.925   9.791  0.1336 -0.0852  0.0130
   28CHL1   H14 2015   0.026   1.030   9.777  1.3910  0.0093 -2.5122
   28CHL1   C15 2016  -0.034   0.832   9.703  0.0931  0.1976  0.0967
   28CHL1  H15A 2017  -0.016   0.726   9.732  1.0815  0.7806  1.8099
   28CHL1  H15B 2018  -0.142   0.850   9.687 -0.4295 -1.4404  1.4284
   28CHL1   C16 2019   0.031   0.848   9.564  0.1550  0.2535  0.4819
   28CHL1  H16A 2020   0.058   0.750   9.517  1.5291  0.0363  1.6508
   28CHL1  H16B 2021  -0.042   0.902   9.500  2.4609  1.2927 -1.4219
   28CHL1   C17 2022   0.161   0.923   9.579 -0.5373  0.5224  0.4345
   28CHL1   H17 2023   0.130   1.028   9.561 -0.1852  0.6639  0.6373
   28CHL1   C13 2024   0.198   0.909   9.726  0.5328 -0.3177 -0.1878
   28CHL1   C18 2025   0.258   0.767   9.748 -1.1105  0.3668  0.3432
   28CHL1  H18A 2026   0.365   0.759   9.718 -1.4771 -1.7200 -0.5730
   28CHL1  H18B 2027   0.260   0.737   9.855  1.6028 -1.2857 -0.0666
   28CHL1  H18C 2028   0.196   0.687   9.702 -1.7654  0.9923  0.1127
   28CHL1   C12 2029   0.274   1.019   9.797  0.1267 -0.2081 -0.4720
   28CHL1  H12A 2030   0.379   1.026   9.761  0.6528  2.3820  1.3132
   28CHL1  H12B 2031   0.219   1.111   9.770 -1.4046 -0.8081  0.4470
   28CHL1   C11 2032   0.287   1.003   9.952  0.0947  0.0520 -0.1729
   28CHL1  H11A 2033   0.339   0.905   9.963 -1.6629 -0.8931  0.1152
   28CHL1  H11B 2034   0.347   1.080  10.004 -2.2596  1.6538  0.3151
   28CHL1    C9 2035   0.148   0.981  10.021 -0.2125  0.0973 -0.4097
   28CHL1    H9 2036   0.105   1.084  10.029  0.9398  0.4369  2.9590
   28CHL1   C10 2037   0.152   0.936  10.172 -0.1755 -0.6682 -1.3188
   28CHL1   C19 2038   0.234   0.797  10.186  0.0775  0.1745  0.1161
   28CHL1  H19A 2039   0.254   0.765  10.291  0.3271  0.9562  0.3141
   28CHL1  H19B 2040   0.181   0.715  10.133 -1.3688 -1.6628  3.9751
   28CHL1  H19C 2041   0.334   0.816  10.141 -1.1224 -0.3020 -3.0118
   28CHL1    C1 2042   0.219   1.043  10.263 -0.0209  0.1024 -0.0688
   28CHL1   H1A 2043   0.325   1.064  10.239 -0.3909  1.2899 -0.8159
   28CHL1   H1B 2044   0.156   1.134  10.252 -1.2118 -0.7016 -0.0647
   28CHL1    C2 2045   0.201   1.006  10.413 -0.6847 -0.6905  0.1109
   28CHL1   H2A 2046   0.252   1.086  10.470 -0.7718 -1.0936  0.7559
   28CHL1   H2B 2047   0.252   0.912  10.440  0.5555  0.3623  1.5616
   28CHL1   C20 2048   0.262   0.877   9.467  0.3866  0.2096 -0.9498
   28CHL1   H20 2049   0.287   0.769   9.478  0.5108  0.3411  0.0949
   28CHL1   C21 2050   0.388   0.952   9.476  0.3650  0.5430 -0.0509
   28CHL1  H21A 2051   0.361   1.059   9.461  1.0937  0.4764 -2.1538
   28CHL1  H21B 2052   0.453   0.923   9.391  0.5747  1.0042 -0.0512
   28CHL1  H21C 2053   0.444   0.931   9.569  0.5825  0.3777 -0.2186
   28CHL1   C22 2054   0.204   0.878   9.325  0.6214 -0.4834  0.0834
   28CHL1  H22A 2055   0.104   0.831   9.329  0.3085  0.0729 -0.9282
   28CHL1  H22B 2056   0.179   0.981   9.292  0.2165 -0.3765  0.7092
   28CHL1   C23 2057   0.282   0.811   9.214 -0.8664  0.1836  0.3778
   28CHL1  H23A 2058   0.386   0.850   9.207 -1.3681  1.5664  0.3994
   28CHL1  H23B 2059   0.293   0.702   9.232 -1.3412  0.1935  0.7294
   28CHL1   C24 2060   0.225   0.837   9.072 -0.1203 -0.2709  1.0854
   28CHL1  H24A 2061   0.231   0.747   9.007  0.5050  1.0053 -0.7063
   28CHL1  H24B 2062   0.115   0.847   9.089 -0.5898 -0.4582 -1.4027
   28CHL1   C25 2063   0.277   0.969   9.006 -0.0482 -0.1239  0.2603
   28CHL1   H25 2064   0.250   1.058   9.066 -2.7481  0.2560 -1.3927
   28CHL1   C26 2065   0.431   0.962   8.967  0.3700  0.0695 -0.6308
   28CHL1  H26A 2066   0.462   1.059   8.924 -0.6276  1.1544  0.9790
   28CHL1  H26B 2067   0.507   0.944   9.046  0.6490 -2.5940 -1.4239
   28CHL1  H26C 2068   0.445   0.889   8.885  0.8430 -0.0530 -0.4480
   28CHL1   C27 2069   0.187   0.988   8.884 -0.4501 -0.0790  0.4560
   28CHL1  H27A 2070   0.083   1.006   8.916 -0.5859 -2.9040  1.8710
   28CHL1  H27B 2071   0.226   1.079   8.832  1.7769 -1.2038  0.0219
   28CHL1  H27C 2072   0.196   0.902   8.814  1.4028 -0.8891  1.6248
   29CHL1    C3 2073   1.572   6.428   6.877 -0.1396 -0.3132 -0.5166
   29CHL1    H3 2074   1.680   6.402   6.870 -0.0804  0.1843 -1.8172
   29CHL1    O3 2075   1.526   6.422   6.741 -0.6100 -0.1298 -0.3312
   29CHL1   H3' 2076   1.537   6.510   6.703  1.2270 -0.1669  0.0263
   29CHL1    C4 2077   1.498   6.337   6.978  0.3116  0.3552 -0.2823
   29CHL1   H4A 2078   1.388   6.352   6.972 -0.2821 -2.7343  0.9020
   29CHL1   H4B 2079   1.513   6.235   6.937  0.0601  0.2537 -0.1238
   29CHL1    C5 2080   1.541   6.365   7.121  0.3334 -0.7818  0.2528
   29CHL1    C6 2081   1.583   6.259   7.195 -0.7995 -0.8894  0.0624
   29CHL1    H6 2082   1.571   6.154   7.164  1.8002 -2.2528  3.0240
   29CHL1    C7 2083   1.628   6.274   7.336  0.1907 -0.6924 -0.3785
   29CHL1   H7A 2084   1.576   6.202   7.403  0.9935  0.4048  1.5274
   29CHL1   H7B 2085   1.738   6.257   7.339  0.7944  2.7317  0.9162
   29CHL1    C8 2086   1.599   6.417   7.402 -0.4856 -0.2452 -0.2205
   29CHL1    H8 2087   1.491   6.417   7.426 -0.2437  2.4228  1.2435
   29CHL1   C14 2088   1.698   6.432   7.522  0.5677  0.3813 -0.2554
   29CHL1   H14 2089   1.805   6.433   7.489  0.6269  3.8745 -0.3110
   29CHL1   C15 2090   1.691   6.325   7.630 -0.4073  0.0279  0.5517
   29CHL1  H15A 2091   1.585   6.296   7.648 -0.3952  0.1094  0.7538
   29CHL1  H15B 2092   1.752   6.237   7.603 -0.3404  0.4005 -0.5983
   29CHL1   C16 2093   1.745   6.382   7.758  0.8930  0.3515 -0.2534
   29CHL1  H16A 2094   1.670   6.363   7.838  0.9299 -0.5716 -0.4385
   29CHL1  H16B 2095   1.849   6.349   7.780  2.6130  6.2730  2.7092
   29CHL1   C17 2096   1.762   6.534   7.726  0.1423  0.0100  0.6314
   29CHL1   H17 2097   1.867   6.531   7.691 -0.3075 -1.2572 -0.7070
   29CHL1   C13 2098   1.678   6.567   7.598 -0.6386  0.8539  0.1129
   29CHL1   C18 2099   1.527   6.589   7.641 -0.2329 -0.0192  0.1415
   29CHL1  H18A 2100   1.502   6.685   7.692 -0.9651 -0.7367  1.1638
   29CHL1  H18B 2101   1.466   6.614   7.552  0.2739  1.2281  0.1188
   29CHL1  H18C 2102   1.476   6.503   7.689 -2.3270  0.6240 -0.8084
   29CHL1   C12 2103   1.727   6.669   7.497 -0.4780 -0.2622 -0.2350
   29CHL1  H12A 2104   1.718   6.772   7.538 -1.4765 -0.5574  0.3178
   29CHL1  H12B 2105   1.834   6.651   7.471 -0.1174  1.2655  0.0940
   29CHL1   C11 2106   1.645   6.669   7.363 -0.5604 -1.0666 -0.2444
   29CHL1  H11A 2107   1.542   6.699   7.391 -0.4679 -0.7384 -0.2522
   29CHL1  H11B 2108   1.692   6.739   7.291  0.8470 -0.9622  0.7362
   29CHL1    C9 2109   1.638   6.527   7.299 -0.4233  0.2164  0.0746
   29CHL1    H9 2110   1.741   6.507   7.263 -0.5858 -1.1461  0.3187
   29CHL1   C10 2111   1.552   6.514   7.167  0.1720  0.2609 -0.4557
   29CHL1   C19 2112   1.413   6.570   7.198  0.0933  0.2087 -0.1644
   29CHL1  H19A 2113   1.375   6.539   7.298  1.9697 -0.7976  0.2867
   29CHL1  H19B 2114   1.425   6.680   7.186  4.0729 -0.1492 -0.6307
   29CHL1  H19C 2115   1.346   6.555   7.110  2.0673 -0.5252 -1.6017
   29CHL1    C1 2116   1.617   6.592   7.056 -0.1816  0.7436  0.2886
   29CHL1   H1A 2117   1.628   6.699   7.082 -2.3919  0.8537  0.9827
   29CHL1   H1B 2118   1.722   6.555   7.049  0.1261  1.7290 -0.5436
   29CHL1    C2 2119   1.560   6.576   6.916  0.9705  0.2680 -0.1021
   29CHL1   H2A 2120   1.613   6.636   6.840  0.3537  1.1053  0.1161
   29CHL1   H2B 2121   1.451   6.597   6.919  0.1520 -3.3567  0.4608
   29CHL1   C20 2122   1.775   6.622   7.849  0.6344  0.2675 -0.5379
   29CHL1   H20 2123   1.673   6.663   7.868  1.4079  0.8349  3.2967
   29CHL1   C21 2124   1.861   6.744   7.821 -1.1050  0.0861  0.3416
   29CHL1  H21A 2125   1.822   6.806   7.738  3.5494  2.2383 -0.5887
   29CHL1  H21B 2126   1.964   6.709   7.797 -1.2994  0.2483 -0.8162
   29CHL1  H21C 2127   1.869   6.808   7.911  0.5873 -2.0653  1.8322
   29CHL1   C22 2128   1.813   6.541   7.983 -0.4061  0.3165 -0.1820
   29CHL1  H22A 2129   1.724   6.479   8.007  1.5979 -2.0145  1.7832
   29CHL1  H22B 2130   1.897   6.469   7.979  0.1552  0.6771  2.8071
   29CHL1   C23 2131   1.830   6.631   8.110  0.3202  0.4722  0.2409
   29CHL1  H23A 2132   1.756   6.714   8.108 -1.0306 -0.6892  0.4037
   29CHL1  H23B 2133   1.811   6.563   8.196  2.2706  0.3326  0.5992
   29CHL1   C24 2134   1.972   6.687   8.145  0.0968 -0.3437  0.8082
   29CHL1  H24A 2135   2.027   6.599   8.182  1.2468  0.4426  0.9982
   29CHL1  H24B 2136   2.028   6.740   8.065 -0.9725 -0.0779  0.2022
   29CHL1   C25 2137   1.983   6.780   8.266 -0.3585 -0.2541 -0.2100
   29CHL1   H25 2138   1.946   6.724   8.354  0.8031 -0.9438 -0.1421
   29CHL1   C26 2139   2.131   6.800   8.297 -0.2109 -1.0413 -0.3027
   29CHL1  H26A 2140   2.185   6.853   8.215 -0.6965 -1.8269 -1.1427
   29CHL1  H26B 2141   2.146   6.854   8.393 -1.2544 -2.2048  0.5293
   29CHL1  H26C 2142   2.189   6.706   8.305  0.3139 -0.5520  2.9035
   29CHL1   C27 2143   1.909   6.917   8.249 -0.2490 -0.3142 -0.2492
   29CHL1  H27A 2144   1.956   6.989   8.179  2.1871 -0.2111  1.3810
   29CHL1  H27B 2145   1.806   6.900   8.211  0.2570 -1.5213 -1.1456
   29CHL1  H27C 2146   1.905   6.964   8.349 -0.2373 -0.2113 -0.2973
   30CHL1    C3 2147   5.895   5.247   7.519 -0.2654  0.3680 -1.2305
   30CHL1    H3 2148   6.006   5.252   7.524 -0.2090 -0.2402 -1.7372
   30CHL1    O3 2149   5.861   5.241   7.384 -0.2636  0.4108 -0.3556
   30CHL1   H3' 2150   5.765   5.253   7.381 -0.0883  1.8063 -1.0628
   30CHL1    C4 2151   5.856   5.113   7.598  0.8121 -0.2768  0.3496
   30CHL1   H4A 2152   5.759   5.068   7.568 -0.0777 -0.8792  3.7172
   30CHL1   H4B 2153   5.923   5.033   7.558  2.7163  1.7796 -0.7726
   30CHL1    C5 2154   5.865   5.123   7.750 -0.3777  0.0070 -0.0914
   30CHL1    C6 2155   5.938   5.035   7.825 -0.0324  0.0447  0.2029
   30CHL1    H6 2156   5.992   4.956   7.771 -0.9818  1.0808 -2.4730
   30CHL1    C7 2157   5.946   5.035   7.978 -0.0211 -0.2004 -0.5120
   30CHL1   H7A 2158   5.937   4.938   8.033 -1.3559  0.8487  1.2387
   30CHL1   H7B 2159   6.039   5.093   7.991 -0.1773  0.2998 -1.5398
   30CHL1    C8 2160   5.829   5.119   8.039 -0.0405  0.2564 -0.4874
   30CHL1    H8 2161   5.732   5.064   8.028 -0.8263  1.6540 -0.8213
   30CHL1   C14 2162   5.861   5.142   8.184 -0.1955  0.0438 -0.8428
   30CHL1   H14 2163   5.952   5.206   8.187  0.5930 -1.0132  2.7537
   30CHL1   C15 2164   5.892   5.021   8.276 -0.4011 -0.0711 -0.0343
   30CHL1  H15A 2165   5.845   4.924   8.249 -0.7022  0.5011 -1.6089
   30CHL1  H15B 2166   6.001   5.003   8.261 -0.4913 -2.1262  1.3348
   30CHL1   C16 2167   5.861   5.073   8.418  0.0340 -0.0236  0.5183
   30CHL1  H16A 2168   5.780   5.007   8.455 -0.8243 -0.2913 -1.7014
   30CHL1  H16B 2169   5.945   5.054   8.489 -0.4078 -2.5012  0.4683
   30CHL1   C17 2170   5.826   5.218   8.407  0.6883 -0.1920 -0.1524
   30CHL1   H17 2171   5.924   5.270   8.404  1.9256 -2.3861 -0.0517
   30CHL1   C13 2172   5.757   5.223   8.269 -0.3216  0.5429  0.1344
   30CHL1   C18 2173   5.611   5.154   8.271 -0.0387  0.2094 -0.3184
   30CHL1  H18A 2174   5.534   5.203   8.334 -0.6973 -0.9992 -0.1521
   30CHL1  H18B 2175   5.574   5.162   8.167  0.2860  0.7222 -0.3950
   30CHL1  H18C 2176   5.611   5.046   8.296  0.6561  0.5754  1.4502
   30CHL1   C12 2177   5.757   5.358   8.200 -0.2124  0.5784 -0.4063
   30CHL1  H12A 2178   5.682   5.421   8.253 -0.2307  1.9290 -1.9641
   30CHL1  H12B 2179   5.857   5.403   8.217  1.6610 -3.4689  0.5841
   30CHL1   C11 2180   5.721   5.352   8.051 -0.2859 -0.1584  0.9122
   30CHL1  H11A 2181   5.615   5.325   8.028 -0.1166 -0.0858  0.0050
   30CHL1  H11B 2182   5.740   5.447   7.997 -1.6760 -0.6418 -0.5164
   30CHL1    C9 2183   5.809   5.256   7.966 -0.0670  0.6921  0.3269
   30CHL1    H9 2184   5.913   5.294   7.975  0.0726  0.4289 -0.1327
   30CHL1   C10 2185   5.786   5.237   7.815 -0.0474 -1.0963 -0.0559
   30CHL1   C19 2186   5.632   5.210   7.797  0.1515  0.1629  0.2504
   30CHL1  H19A 2187   5.588   5.186   7.698  0.1615 -1.4709  0.6071
   30CHL1  H19B 2188   5.603   5.129   7.868 -0.2479  2.4223  2.8522
   30CHL1  H19C 2189   5.593   5.310   7.825  0.6159  0.0586  1.3169
   30CHL1    C1 2190   5.840   5.359   7.739 -0.9769 -0.2081 -0.4304
   30CHL1   H1A 2191   5.786   5.443   7.787 -1.7026 -1.7721  1.6371
   30CHL1   H1B 2192   5.943   5.370   7.778 -0.8751  1.1849 -1.0223
   30CHL1    C2 2193   5.833   5.368   7.588 -0.2300  0.4079 -0.5955
   30CHL1   H2A 2194   5.875   5.460   7.542 -1.3814  1.1249 -0.2358
   30CHL1   H2B 2195   5.727   5.369   7.556 -1.1226  1.0269  2.1581
   30CHL1   C20 2196   5.749   5.270   8.534  0.4658  0.3890 -0.1555
   30CHL1   H20 2197   5.659   5.207   8.551  1.1630 -0.8936 -1.0529
   30CHL1   C21 2198   5.691   5.414   8.523 -0.3097 -0.6169 -0.0018
   30CHL1  H21A 2199   5.606   5.430   8.453  1.2466  0.5220 -1.7192
   30CHL1  H21B 2200   5.770   5.489   8.499 -0.1165 -0.9124 -0.2977
   30CHL1  H21C 2201   5.646   5.455   8.616 -1.3645 -2.0377  0.1433
   30CHL1   C22 2202   5.844   5.261   8.656 -0.0463 -0.2575 -0.3759
   30CHL1  H22A 2203   5.947   5.294   8.628 -0.6048  0.6824 -1.3914
   30CHL1  H22B 2204   5.813   5.342   8.725  1.1704  0.5448 -0.7254
   30CHL1   C23 2205   5.834   5.127   8.737  0.1784 -1.1185 -0.6551
   30CHL1  H23A 2206   5.786   5.050   8.672 -1.0636 -0.2125 -0.8544
   30CHL1  H23B 2207   5.937   5.092   8.759 -0.3376 -4.2053 -2.4947
   30CHL1   C24 2208   5.746   5.146   8.864  0.3759 -0.1166  0.6535
   30CHL1  H24A 2209   5.800   5.219   8.927 -0.2926  1.8740 -1.0035
   30CHL1  H24B 2210   5.648   5.191   8.840  1.2003  1.5281  0.2659
   30CHL1   C25 2211   5.719   5.023   8.951  0.1298 -0.4571 -0.5376
   30CHL1   H25 2212   5.651   4.950   8.901 -2.6993 -0.7082  3.2359
   30CHL1   C26 2213   5.849   4.953   8.989 -0.2008 -0.5978 -0.8932
   30CHL1  H26A 2214   5.833   4.854   9.036  2.2977  0.4586  2.5829
   30CHL1  H26B 2215   5.909   4.939   8.896  3.2036  1.5474  0.8110
   30CHL1  H26C 2216   5.921   5.007   9.053 -0.4064 -2.4580  1.0203
   30CHL1   C27 2217   5.637   5.058   9.082 -0.2206 -0.0010  0.0597
   30CHL1  H27A 2218   5.546   5.113   9.053 -2.1281 -1.1926  3.2510
   30CHL1  H27B 2219   5.604   4.974   9.147  0.0208 -1.1968 -1.2935
   30CHL1  H27C 2220   5.697   5.124   9.148 -0.9817 -0.4899  1.2751
   31CHL1    C3 2221   1.416   4.486   7.013 -0.2866 -0.0597  0.6504
   31CHL1    H3 2222   1.332   4.414   7.023  1.8527 -2.6242  1.4838
   31CHL1    O3 2223   1.459   4.471   6.876  0.0803  0.5248 -0.5486
   31CHL1   H3' 2224   1.451   4.375   6.868  1.1086  0.3387  0.4408
   31CHL1    C4 2225   1.382   4.636   7.035 -0.2778 -0.8179  0.4742
   31CHL1   H4A 2226   1.472   4.692   7.003 -1.1587 -0.2827 -1.2421
   31CHL1   H4B 2227   1.295   4.667   6.972 -0.1025 -0.9964  0.1438
   31CHL1    C5 2228   1.350   4.657   7.182  0.3071  0.3508 -0.8981
   31CHL1    C6 2229   1.229   4.708   7.228 -0.5396 -0.2910  0.4380
   31CHL1    H6 2230   1.144   4.729   7.161 -0.8146  0.6545  1.0593
   31CHL1    C7 2231   1.196   4.738   7.372 -0.7744 -0.1394 -0.2517
   31CHL1   H7A 2232   1.164   4.843   7.388  0.9747  0.0768  2.5264
   31CHL1   H7B 2233   1.110   4.676   7.406 -0.5219 -0.0346  0.5879
   31CHL1    C8 2234   1.311   4.726   7.473  0.1561 -0.6008  0.3490
   31CHL1    H8 2235   1.370   4.820   7.465 -1.5603  0.3433 -2.3528
   31CHL1   C14 2236   1.255   4.712   7.608 -0.7308 -0.8018  0.5073
   31CHL1   H14 2237   1.196   4.618   7.604  0.3829 -1.5826  1.7162
   31CHL1   C15 2238   1.162   4.819   7.659  0.5469 -0.3425  0.6257
   31CHL1  H15A 2239   1.209   4.917   7.636 -1.0456  0.1721 -0.6355
   31CHL1  H15B 2240   1.066   4.824   7.604  1.3393  0.0985 -0.7684
   31CHL1   C16 2241   1.141   4.791   7.804 -0.0336  0.0389  1.0634
   31CHL1  H16A 2242   1.128   4.888   7.857 -2.4812 -0.2614  1.1239
   31CHL1  H16B 2243   1.046   4.737   7.824 -0.6176  1.0886  1.1934
   31CHL1   C17 2244   1.259   4.693   7.849  1.1946 -0.8682  0.2644
   31CHL1   H17 2245   1.214   4.591   7.851  2.3854 -1.4480  3.0231
   31CHL1   C13 2246   1.353   4.689   7.720  0.3400 -0.8583  0.1988
   31CHL1   C18 2247   1.449   4.816   7.720  0.5377  0.7194 -0.1240
   31CHL1  H18A 2248   1.402   4.909   7.758 -1.6424 -0.7156  0.9826
   31CHL1  H18B 2249   1.538   4.797   7.783  0.7092 -2.1083 -1.0553
   31CHL1  H18C 2250   1.502   4.842   7.627 -0.4256  0.9981 -0.6127
   31CHL1   C12 2251   1.431   4.561   7.699  0.0194  0.9257 -0.1822
   31CHL1  H12A 2252   1.517   4.548   7.768 -0.8692 -0.1116  0.7517
   31CHL1  H12B 2253   1.379   4.464   7.710  0.0290  0.7689 -1.3572
   31CHL1   C11 2254   1.492   4.569   7.555 -0.2261 -0.9810 -0.0010
   31CHL1  H11A 2255   1.574   4.644   7.553 -0.0296 -0.9741  3.1185
   31CHL1  H11B 2256   1.540   4.469   7.552 -0.0162 -0.9548  1.5832
   31CHL1    C9 2257   1.394   4.603   7.439 -0.1578  0.4898 -0.2829
   31CHL1    H9 2258   1.323   4.517   7.440 -0.7766  0.9891  0.2312
   31CHL1   C10 2259   1.449   4.604   7.293  0.0456  0.8160  0.3105
   31CHL1   C19 2260   1.573   4.689   7.296 -0.1775 -0.4598 -0.1416
   31CHL1  H19A 2261   1.654   4.635   7.350 -0.5654 -1.5254 -0.5936
   31CHL1  H19B 2262   1.610   4.714   7.195 -0.9180  2.6662  0.2578
   31CHL1  H19C 2263   1.556   4.784   7.351  1.5399 -1.0023  1.4381
   31CHL1    C1 2264   1.487   4.453   7.254  0.0131 -0.2396 -0.1611
   31CHL1   H1A 2265   1.567   4.425   7.326  0.1439  0.6821  0.0554
   31CHL1   H1B 2266   1.404   4.384   7.279 -0.7051  0.1498 -1.3940
   31CHL1    C2 2267   1.529   4.434   7.103  0.1014  0.2134  0.2510
   31CHL1   H2A 2268   1.534   4.325   7.083  0.0896  0.5654 -1.8684
   31CHL1   H2B 2269   1.623   4.490   7.088 -0.1907  0.7940  0.5134
   31CHL1   C20 2270   1.313   4.726   7.990 -0.2722  0.7893 -1.0143
   31CHL1   H20 2271   1.352   4.830   7.997  0.3250  0.6096 -1.5541
   31CHL1   C21 2272   1.428   4.623   8.039  0.1390 -0.2908  0.9587
   31CHL1  H21A 2273   1.377   4.524   8.038  0.5447 -0.4998  0.8943
   31CHL1  H21B 2274   1.455   4.632   8.147  0.5844 -0.1821  0.8395
   31CHL1  H21C 2275   1.516   4.628   7.973 -1.6708  0.2400 -1.5597
   31CHL1   C22 2276   1.190   4.724   8.080  1.0127  0.4011  0.2394
   31CHL1  H22A 2277   1.118   4.801   8.046 -0.2231 -0.6095  0.4744
   31CHL1  H22B 2278   1.124   4.634   8.076  0.1697  0.8009  3.1068
   31CHL1   C23 2279   1.223   4.749   8.229  0.3179 -0.3208  0.0319
   31CHL1  H23A 2280   1.266   4.657   8.273 -0.7709 -0.3419  1.0837
   31CHL1  H23B 2281   1.289   4.837   8.246 -1.7942  1.2431  0.4279
   31CHL1   C24 2282   1.091   4.779   8.311  0.4471 -0.3146 -0.8360
   31CHL1  H24A 2283   1.032   4.870   8.284  1.6931  1.0723  0.8747
   31CHL1  H24B 2284   1.019   4.696   8.303 -2.7540  1.7561  2.9232
   31CHL1   C25 2285   1.129   4.798   8.464 -0.5216  0.4615  0.5050
   31CHL1   H25 2286   1.182   4.703   8.486 -1.4732 -0.8250 -2.2546
   31CHL1   C26 2287   1.209   4.920   8.486  0.3020  0.5046 -0.3047
   31CHL1  H26A 2288   1.304   4.923   8.429 -0.4220  1.2505 -1.5262
   31CHL1  H26B 2289   1.146   5.003   8.446  2.1034  1.6380 -0.9043
   31CHL1  H26C 2290   1.232   4.934   8.593 -1.2039 -1.1106  0.2742
   31CHL1   C27 2291   0.994   4.799   8.536  0.4829 -0.3323 -0.0631
   31CHL1  H27A 2292   0.938   4.711   8.500  1.8772 -1.9125  1.4646
   31CHL1  H27B 2293   0.947   4.895   8.503  1.2687  0.4906  1.1295
   31CHL1  H27C 2294   1.006   4.808   8.646 -2.5717 -0.6330  0.3603
   32CHL1    C3 2295   6.502   5.102   7.273 -0.4471 -0.1494  0.1336
   32CHL1    H3 2296   6.607   5.124   7.298 -0.2091 -3.4297  2.6674
   32CHL1    O3 2297   6.466   5.085   7.137 -0.0370  0.5178 -0.6159
   32CHL1   H3' 2298   6.372   5.069   7.149  0.2602 -0.6434  0.3630
   32CHL1    C4 2299   6.462   4.968   7.340  0.3676 -0.0001  0.3811
   32CHL1   H4A 2300   6.355   4.939   7.330  0.4978 -0.1171 -0.7167
   32CHL1   H4B 2301   6.527   4.887   7.300 -0.5206 -0.4502 -0.1924
   32CHL1    C5 2302   6.487   4.979   7.492  0.4385 -0.5210 -0.7187
   32CHL1    C6 2303   6.579   4.903   7.548  0.8174 -0.0354 -0.0404
   32CHL1    H6 2304   6.620   4.828   7.479 -0.5813 -1.2955  0.4517
   32CHL1    C7 2305   6.602   4.893   7.696  0.2751  0.1259 -0.4892
   32CHL1   H7A 2306   6.598   4.787   7.730  1.0464 -0.1860 -1.3403
   32CHL1   H7B 2307   6.700   4.936   7.723 -0.4615  1.9562 -0.5711
   32CHL1    C8 2308   6.493   4.973   7.771  0.2845 -0.0979  0.0451
   32CHL1    H8 2309   6.401   4.912   7.780 -2.6962  4.2291  3.3589
   32CHL1   C14 2310   6.550   4.999   7.909 -0.7280 -0.3280  0.4407
   32CHL1   H14 2311   6.646   5.054   7.897 -2.0421  1.9246 -0.4161
   32CHL1   C15 2312   6.595   4.867   7.993  0.5074 -0.3557 -0.7060
   32CHL1  H15A 2313   6.510   4.796   7.989 -1.0033  1.4379 -2.0046
   32CHL1  H15B 2314   6.685   4.815   7.952  0.9137 -0.5834  0.4498
   32CHL1   C16 2315   6.596   4.929   8.137  0.0258  0.4103 -0.4022
   32CHL1  H16A 2316   6.545   4.855   8.203 -1.2423  1.0810 -0.5947
   32CHL1  H16B 2317   6.699   4.929   8.177  0.9456  0.1613 -2.6034
   32CHL1   C17 2318   6.539   5.073   8.134  0.4476 -0.6763 -0.4856
   32CHL1   H17 2319   6.635   5.129   8.126  0.8905 -1.2992  0.3115
   32CHL1   C13 2320   6.457   5.080   8.004 -0.2235  1.0629 -0.2916
   32CHL1   C18 2321   6.316   5.008   8.024  0.0205  0.9987 -0.0162
   32CHL1  H18A 2322   6.254   5.086   8.073 -4.2386  0.4735 -3.9518
   32CHL1  H18B 2323   6.261   4.994   7.929  0.2268 -0.0101  0.0014
   32CHL1  H18C 2324   6.325   4.913   8.080 -2.1818  0.8304  0.1175
   32CHL1   C12 2325   6.439   5.217   7.945  0.9384 -0.6000 -0.2197
   32CHL1  H12A 2326   6.353   5.267   7.994  1.4891 -2.7570  3.3045
   32CHL1  H12B 2327   6.529   5.281   7.934  0.9564  0.1002  2.9066
   32CHL1   C11 2328   6.385   5.198   7.800  0.8018 -0.2965  0.0968
   32CHL1  H11A 2329   6.277   5.171   7.804  1.2088 -1.9075  1.3264
   32CHL1  H11B 2330   6.386   5.300   7.756 -0.8643  0.0364  0.7825
   32CHL1    C9 2331   6.461   5.111   7.706  0.3813  0.3362 -0.7276
   32CHL1    H9 2332   6.560   5.161   7.705  0.5363  0.2152  2.0328
   32CHL1   C10 2333   6.407   5.094   7.558 -0.8361  0.1802  0.1345
   32CHL1   C19 2334   6.265   5.047   7.568  0.4321  0.3168 -0.2186
   32CHL1  H19A 2335   6.216   5.021   7.472  0.8641 -0.7048 -0.1829
   32CHL1  H19B 2336   6.253   4.966   7.643 -1.2550  0.1428 -0.6333
   32CHL1  H19C 2337   6.202   5.129   7.606 -2.8128 -1.0077 -2.2934
   32CHL1    C1 2338   6.430   5.229   7.482  0.2390  0.2881  0.3864
   32CHL1   H1A 2339   6.357   5.299   7.529 -1.8090 -2.0811  0.9043
   32CHL1   H1B 2340   6.527   5.281   7.501 -0.4272  2.3859 -1.5655
   32CHL1    C2 2341   6.410   5.216   7.331  0.0242 -0.9088 -0.2226
   32CHL1   H2A 2342   6.448   5.309   7.285  1.9897 -0.9960  1.0997
   32CHL1   H2B 2343   6.305   5.189   7.305 -0.2060  0.4736 -0.8197
   32CHL1   C20 2344   6.473   5.126   8.264 -0.1939 -0.4691  0.1765
   32CHL1   H20 2345   6.398   5.202   8.234  1.4534  1.7344  1.3432
   32CHL1   C21 2346   6.575   5.193   8.358 -0.1720  0.5739  0.7861
   32CHL1  H21A 2347   6.644   5.114   8.396 -1.3006 -0.5286  0.6173
   32CHL1  H21B 2348   6.526   5.240   8.446 -0.6497 -0.4904  1.1183
   32CHL1  H21C 2349   6.636   5.263   8.298 -0.9187  0.2968 -0.3147
   32CHL1   C22 2350   6.399   5.010   8.347 -0.5879  0.4711  0.1626
   32CHL1  H22A 2351   6.340   4.941   8.283 -0.9461 -2.2019  3.1295
   32CHL1  H22B 2352   6.474   4.948   8.402 -0.2892  1.3687  0.7944
   32CHL1   C23 2353   6.293   5.066   8.437  0.1377 -0.0383  0.1912
   32CHL1  H23A 2354   6.333   5.137   8.512  0.5231  2.3376 -2.1007
   32CHL1  H23B 2355   6.223   5.135   8.386 -1.1785 -0.3105  1.5507
   32CHL1   C24 2356   6.214   4.961   8.516 -0.8214  0.4291 -0.0503
   32CHL1  H24A 2357   6.141   4.998   8.591 -1.0709  1.8451 -0.9577
   32CHL1  H24B 2358   6.167   4.898   8.437 -0.5979 -2.6051  2.0729
   32CHL1   C25 2359   6.314   4.871   8.605 -0.1735  0.1416 -0.2600
   32CHL1   H25 2360   6.386   4.808   8.549 -1.0618  0.2866 -1.6065
   32CHL1   C26 2361   6.393   4.965   8.700 -0.7838  0.6411  0.5478
   32CHL1  H26A 2362   6.331   5.033   8.762 -0.0438  1.1434  0.7560
   32CHL1  H26B 2363   6.465   4.911   8.765  0.1686  1.0711 -0.1283
   32CHL1  H26C 2364   6.449   5.029   8.628  0.8735 -2.7210 -1.4208
   32CHL1   C27 2365   6.238   4.758   8.692  0.2153  0.3028  0.7494
   32CHL1  H27A 2366   6.306   4.711   8.766 -0.4597 -1.2655  0.4168
   32CHL1  H27B 2367   6.154   4.796   8.755 -0.1782  0.4551  0.1451
   32CHL1  H27C 2368   6.201   4.682   8.619 -0.8016  0.4515  1.0834
   33CHL1    C3 2369   0.486   5.602   6.888  0.1247  0.1521  0.3755
   33CHL1    H3 2370   0.588   5.640   6.863  0.7724 -1.2843  0.7635
   33CHL1    O3 2371   0.437   5.554   6.762 -0.2924  0.8903 -0.6782
   33CHL1   H3' 2372   0.357   5.506   6.787  1.1440 -0.9927  0.5310
   33CHL1    C4 2373   0.505   5.499   6.996  0.0862  0.4938  0.2376
   33CHL1   H4A 2374   0.407   5.448   7.004 -0.4620  1.4079 -0.5028
   33CHL1   H4B 2375   0.581   5.427   6.957 -1.6469 -1.0744 -0.3896
   33CHL1    C5 2376   0.541   5.545   7.132  0.1566 -0.6125 -0.5458
   33CHL1    C6 2377   0.649   5.494   7.199 -0.1913 -1.0619 -0.1865
   33CHL1    H6 2378   0.722   5.415   7.175 -0.8476 -2.0183  0.8581
   33CHL1    C7 2379   0.666   5.546   7.341  0.0641  0.3982  0.0499
   33CHL1   H7A 2380   0.681   5.454   7.402 -0.8460 -0.8299 -1.5142
   33CHL1   H7B 2381   0.760   5.604   7.350  0.2026  0.2614 -0.4987
   33CHL1    C8 2382   0.545   5.606   7.415 -0.9166 -0.3998 -0.9672
   33CHL1    H8 2383   0.459   5.537   7.426 -0.0076 -1.3977  0.1080
   33CHL1   C14 2384   0.585   5.662   7.549  0.2675 -0.6645 -0.0013
   33CHL1   H14 2385   0.673   5.728   7.533  0.1234 -0.7902 -1.4307
   33CHL1   C15 2386   0.637   5.556   7.647 -0.8743  0.4262  0.5342
   33CHL1  H15A 2387   0.568   5.469   7.650  0.2596 -0.5026  0.3410
   33CHL1  H15B 2388   0.738   5.528   7.609  0.8202  4.0011  2.0275
   33CHL1   C16 2389   0.626   5.630   7.781 -0.1295 -0.5402 -1.0627
   33CHL1  H16A 2390   0.559   5.576   7.851 -1.2948  1.0949 -0.8361
   33CHL1  H16B 2391   0.723   5.663   7.826  0.3791 -1.3365 -1.5665
   33CHL1   C17 2392   0.548   5.758   7.757  0.3665 -0.4220  0.1311
   33CHL1   H17 2393   0.624   5.832   7.724 -1.5640  1.7919  0.3815
   33CHL1   C13 2394   0.477   5.736   7.626  0.1346 -0.0565  0.2522
   33CHL1   C18 2395   0.345   5.650   7.650 -0.9903  0.6644  0.1198
   33CHL1  H18A 2396   0.375   5.561   7.710 -1.7649 -0.2666 -0.8228
   33CHL1  H18B 2397   0.273   5.720   7.698  0.4165  1.8277  0.5815
   33CHL1  H18C 2398   0.311   5.599   7.557  0.2158 -3.3580  1.6648
   33CHL1   C12 2399   0.448   5.856   7.542 -0.6345  1.1449 -0.6647
   33CHL1  H12A 2400   0.370   5.922   7.584 -2.5450 -0.3353 -1.7352
   33CHL1  H12B 2401   0.545   5.910   7.530  1.0687 -1.1121  1.8346
   33CHL1   C11 2402   0.397   5.816   7.402  0.2914 -0.1180 -0.2097
   33CHL1  H11A 2403   0.297   5.771   7.418 -0.0586  1.3132  2.0814
   33CHL1  H11B 2404   0.388   5.914   7.350  2.0761  0.9903  1.4325
   33CHL1    C9 2405   0.493   5.723   7.319 -0.5336  0.5979 -0.5811
   33CHL1    H9 2406   0.585   5.780   7.293  0.7337 -1.5888 -1.1004
   33CHL1   C10 2407   0.453   5.662   7.181  0.9070  0.5362  0.4360
   33CHL1   C19 2408   0.310   5.614   7.208 -0.0889  0.0525 -1.0797
   33CHL1  H19A 2409   0.297   5.547   7.295 -1.3609 -0.2392 -1.4743
   33CHL1  H19B 2410   0.255   5.707   7.236  0.3015 -0.2792  0.9425
   33CHL1  H19C 2411   0.261   5.574   7.117 -0.8939  0.6760 -0.9286
   33CHL1    C1 2412   0.444   5.767   7.077 -0.6121  0.1274 -0.0092
   33CHL1   H1A 2413   0.378   5.851   7.110 -0.4222 -0.3918  1.8294
   33CHL1   H1B 2414   0.546   5.807   7.058 -0.7514  1.8644  2.3964
   33CHL1    C2 2415   0.395   5.716   6.941 -0.2133  0.3089 -0.3406
   33CHL1   H2A 2416   0.407   5.800   6.870 -1.0389  0.7220 -0.0088
   33CHL1   H2B 2417   0.288   5.685   6.941 -1.0266  2.8717  0.7486
   33CHL1   C20 2418   0.486   5.824   7.885 -0.0370 -0.0080  0.0282
   33CHL1   H20 2419   0.408   5.759   7.930 -0.2729  0.7987  0.8060
   33CHL1   C21 2420   0.423   5.954   7.856  0.5300  0.0413 -0.6623
   33CHL1  H21A 2421   0.352   5.937   7.773 -0.1309  1.2692 -0.3747
   33CHL1  H21B 2422   0.501   6.033   7.843  1.1090 -0.7312 -2.1395
   33CHL1  H21C 2423   0.352   5.977   7.937 -0.1944 -1.3133 -0.8883
   33CHL1   C22 2424   0.584   5.837   8.003  0.0314 -0.1042  0.2594
   33CHL1  H22A 2425   0.619   5.733   8.023 -0.4388 -0.0843  1.2854
   33CHL1  H22B 2426   0.673   5.894   7.969 -0.4954  0.8646  0.4588
   33CHL1   C23 2427   0.527   5.898   8.132  0.2569  0.1613 -0.2953
   33CHL1  H23A 2428   0.546   6.008   8.141 -1.5596  0.3983  1.4595
   33CHL1  H23B 2429   0.419   5.875   8.126  0.5301 -0.7248 -3.0393
   33CHL1   C24 2430   0.585   5.836   8.256 -0.1657  0.2813  1.1259
   33CHL1  H24A 2431   0.696   5.837   8.255 -0.1646  0.8480 -0.1927
   33CHL1  H24B 2432   0.548   5.897   8.341  0.1220  1.1276  0.6558
   33CHL1   C25 2433   0.547   5.690   8.282  0.3679 -0.3938 -0.1731
   33CHL1   H25 2434   0.568   5.626   8.193  2.1827 -0.9060  0.5829
   33CHL1   C26 2435   0.624   5.619   8.400 -0.8132 -0.4260  0.6299
   33CHL1  H26A 2436   0.618   5.676   8.495 -2.7268  1.1139 -0.3603
   33CHL1  H26B 2437   0.596   5.513   8.419 -0.4007 -0.3032  2.1238
   33CHL1  H26C 2438   0.732   5.618   8.372 -1.1126  1.5000 -0.7555
   33CHL1   C27 2439   0.397   5.663   8.311 -0.9579 -0.3705  0.4007
   33CHL1  H27A 2440   0.367   5.556   8.312 -1.6714 -0.2842 -2.6407
   33CHL1  H27B 2441   0.366   5.709   8.407 -1.9630 -0.3075  0.0528
   33CHL1  H27C 2442   0.340   5.709   8.227  2.7135  2.2308 -0.9687
   34CHL1    C3 2443   6.444   2.747   7.296 -0.2567 -0.1810 -0.4003
   34CHL1    H3 2444   6.512   2.660   7.282  0.5508  0.7034 -2.2005
   34CHL1    O3 2445   6.399   2.790   7.170  0.1989  0.1185 -0.4688
   34CHL1   H3' 2446   6.332   2.855   7.190  0.6595  0.3573  0.3237
   34CHL1    C4 2447   6.320   2.714   7.380 -0.0030 -0.2265 -0.6235
   34CHL1   H4A 2448   6.255   2.803   7.385  0.8248  0.6033 -2.9225
   34CHL1   H4B 2449   6.270   2.637   7.316 -0.6674  0.6876 -1.2357
   34CHL1    C5 2450   6.352   2.677   7.521 -0.0290 -0.4735 -0.3840
   34CHL1    C6 2451   6.310   2.560   7.572  0.1282  0.3486  0.5698
   34CHL1    H6 2452   6.239   2.493   7.520  0.5191  0.8491 -0.6316
   34CHL1    C7 2453   6.337   2.522   7.713 -0.1306 -0.6137 -0.5548
   34CHL1   H7A 2454   6.246   2.484   7.764 -0.0438 -1.9596 -1.3438
   34CHL1   H7B 2455   6.423   2.453   7.727  0.3190  0.0069 -0.2154
   34CHL1    C8 2456   6.367   2.649   7.795 -0.2847  0.0085  0.3959
   34CHL1    H8 2457   6.274   2.709   7.799  1.5700  3.0372  1.1164
   34CHL1   C14 2458   6.410   2.595   7.936  0.2578  0.1505 -0.4101
   34CHL1   H14 2459   6.502   2.541   7.906 -0.8196 -0.8237 -2.1427
   34CHL1   C15 2460   6.321   2.510   8.022 -0.3932 -0.1324  0.8360
   34CHL1  H15A 2461   6.219   2.552   8.006 -0.5456 -0.6439  0.4195
   34CHL1  H15B 2462   6.322   2.402   7.997 -1.8401 -0.3562  1.6227
   34CHL1   C16 2463   6.373   2.525   8.169  0.8193  0.3272 -0.5216
   34CHL1  H16A 2464   6.291   2.533   8.243  1.8596  1.7197  0.5552
   34CHL1  H16B 2465   6.431   2.432   8.186  3.1811  1.4797 -1.7059
   34CHL1   C17 2466   6.475   2.642   8.157  0.8063  0.0972 -0.2395
   34CHL1   H17 2467   6.570   2.590   8.135  1.9498  1.8247  0.4415
   34CHL1   C13 2468   6.454   2.715   8.023  0.1935  0.3456 -0.0024
   34CHL1   C18 2469   6.336   2.815   8.047  0.1530 -0.2827 -0.7226
   34CHL1  H18A 2470   6.239   2.772   8.080  0.5119 -1.7355 -1.4685
   34CHL1  H18B 2471   6.356   2.896   8.121 -2.2611  0.6551 -1.0158
   34CHL1  H18C 2472   6.308   2.873   7.957 -0.0266  1.1372  0.2009
   34CHL1   C12 2473   6.575   2.781   7.964 -0.1248  0.2292  0.5442
   34CHL1  H12A 2474   6.598   2.872   8.024  3.5984  0.7141 -1.3283
   34CHL1  H12B 2475   6.657   2.707   7.973 -0.9413 -0.7999 -0.2987
   34CHL1   C11 2476   6.554   2.826   7.823  0.1789  0.3715  0.2434
   34CHL1  H11A 2477   6.468   2.896   7.832 -1.2048 -1.3694  1.1346
   34CHL1  H11B 2478   6.641   2.875   7.772  0.2176 -2.1358 -2.3350
   34CHL1    C9 2479   6.493   2.718   7.724 -0.2415 -0.3945 -0.2151
   34CHL1    H9 2480   6.573   2.644   7.703  2.5467  1.8636  1.6602
   34CHL1   C10 2481   6.446   2.773   7.590  1.5579 -0.2613 -0.9294
   34CHL1   C19 2482   6.353   2.896   7.613  0.0125  0.7821  0.1184
   34CHL1  H19A 2483   6.409   2.985   7.649  0.8664  0.3493 -0.1271
   34CHL1  H19B 2484   6.310   2.942   7.521 -0.4941  2.7981  1.2890
   34CHL1  H19C 2485   6.278   2.860   7.687  2.2448 -1.6277  1.3932
   34CHL1    C1 2486   6.568   2.821   7.503 -0.3738  0.5676  0.4422
   34CHL1   H1A 2487   6.620   2.908   7.547 -2.3234  1.8583  0.3433
   34CHL1   H1B 2488   6.636   2.733   7.499  1.2604  1.7427  1.3206
   34CHL1    C2 2489   6.527   2.862   7.361  0.1634 -0.5595 -0.2613
   34CHL1   H2A 2490   6.619   2.866   7.298  1.7056  0.7937  1.9636
   34CHL1   H2B 2491   6.474   2.959   7.354  0.1266 -0.4438  1.3627
   34CHL1   C20 2492   6.497   2.717   8.288  0.4593  0.2397 -0.1155
   34CHL1   H20 2493   6.537   2.815   8.253  1.6389 -0.5230 -0.9662
   34CHL1   C21 2494   6.594   2.638   8.376 -0.1926  0.4955  0.4581
   34CHL1  H21A 2495   6.608   2.686   8.476  2.1822 -0.8524  0.8697
   34CHL1  H21B 2496   6.697   2.640   8.333 -0.7246  1.5964 -0.8454
   34CHL1  H21C 2497   6.563   2.535   8.404 -0.0663  0.6287  1.1247
   34CHL1   C22 2498   6.368   2.749   8.371 -0.6236 -0.7384 -0.0896
   34CHL1  H22A 2499   6.300   2.814   8.313  0.8074  0.7359 -0.1806
   34CHL1  H22B 2500   6.322   2.652   8.402  0.8804 -1.2886  0.5243
   34CHL1   C23 2501   6.392   2.835   8.504  0.7806  0.1260 -0.0740
   34CHL1  H23A 2502   6.444   2.776   8.582  1.6710  0.2822 -0.5423
   34CHL1  H23B 2503   6.464   2.914   8.472 -1.6992  2.8232  0.5726
   34CHL1   C24 2504   6.277   2.909   8.570  0.1794  0.4751 -0.5978
   34CHL1  H24A 2505   6.208   2.966   8.504  1.2185  2.5001 -0.0072
   34CHL1  H24B 2506   6.214   2.833   8.621  0.6334 -0.7241 -1.7982
   34CHL1   C25 2507   6.315   2.994   8.703  0.0048 -0.3834  0.0488
   34CHL1   H25 2508   6.372   3.086   8.677 -1.6450  2.0002  3.9078
   34CHL1   C26 2509   6.184   3.036   8.774 -0.2493  0.1778 -0.0275
   34CHL1  H26A 2510   6.142   2.937   8.802  1.7483  0.1864  3.6403
   34CHL1  H26B 2511   6.205   3.094   8.866  1.6023  1.7802 -1.3716
   34CHL1  H26C 2512   6.112   3.098   8.716 -1.9075 -1.9004 -0.3127
   34CHL1   C27 2513   6.408   2.916   8.803 -0.0056 -0.5214  0.2059
   34CHL1  H27A 2514   6.356   2.824   8.838 -0.0612  0.1855  2.0957
   34CHL1  H27B 2515   6.504   2.891   8.755 -0.3869 -0.4506 -0.6134
   34CHL1  H27C 2516   6.424   2.981   8.892 -0.7147  1.2282 -0.8855
   35CHL1    C3 2517   5.069   5.122   7.597 -0.0989 -0.4638 -0.6647
   35CHL1    H3 2518   5.009   5.039   7.640 -0.7123  0.7677  0.9545
   35CHL1    O3 2519   5.069   5.122   7.455  0.5521 -0.4639  0.1307
   35CHL1   H3' 2520   4.993   5.171   7.424 -0.1846 -2.3531 -1.2688
   35CHL1    C4 2521   4.997   5.245   7.647 -0.4069 -0.1959  0.2210
   35CHL1   H4A 2522   5.049   5.326   7.591 -1.7670  0.2044 -0.5209
   35CHL1   H4B 2523   4.893   5.241   7.606  0.5264 -2.6896 -2.1996
   35CHL1    C5 2524   5.003   5.259   7.795 -0.7369 -0.1286 -0.1722
   35CHL1    C6 2525   4.897   5.292   7.866  0.9788 -0.1789 -0.6069
   35CHL1    H6 2526   4.800   5.304   7.817  0.3396  1.9063  1.0319
   35CHL1    C7 2527   4.894   5.327   8.012 -0.3127  0.0329  0.5419
   35CHL1   H7A 2528   4.850   5.428   8.028 -1.3469 -0.3455  0.1522
   35CHL1   H7B 2529   4.822   5.256   8.057  0.5190 -0.1293  1.6574
   35CHL1    C8 2530   5.030   5.317   8.083  0.2865  0.2402 -0.6611
   35CHL1    H8 2531   5.085   5.412   8.066  1.0946 -0.0147  0.3974
   35CHL1   C14 2532   5.012   5.284   8.230  0.5543 -0.6146 -0.0111
   35CHL1   H14 2533   4.975   5.179   8.230 -0.6254 -0.2530 -1.9640
   35CHL1   C15 2534   4.918   5.374   8.313 -0.6979 -0.1758  0.2503
   35CHL1  H15A 2535   4.937   5.482   8.295 -0.6518 -0.4108 -1.2246
   35CHL1  H15B 2536   4.811   5.365   8.286 -0.6809  2.5963 -1.1794
   35CHL1   C16 2537   4.959   5.342   8.458 -0.7076 -0.1248  0.3234
   35CHL1  H16A 2538   4.985   5.433   8.517 -1.5090 -0.6165  1.4793
   35CHL1  H16B 2539   4.889   5.273   8.511  1.9756 -1.3196  2.5602
   35CHL1   C17 2540   5.089   5.257   8.446 -0.5866 -0.1586  1.0153
   35CHL1   H17 2541   5.058   5.151   8.460 -1.3196 -0.0986 -0.0070
   35CHL1   C13 2542   5.145   5.272   8.302 -0.0277 -0.5640 -0.3698
   35CHL1   C18 2543   5.229   5.402   8.294  0.7333 -0.1615 -0.1450
   35CHL1  H18A 2544   5.315   5.401   8.363  0.0889  0.6770  0.7042
   35CHL1  H18B 2545   5.255   5.424   8.188 -0.2966 -0.3892 -0.4668
   35CHL1  H18C 2546   5.166   5.488   8.327  0.4697 -0.6170  0.5646
   35CHL1   C12 2547   5.223   5.152   8.242  0.7088  0.3573 -0.1119
   35CHL1  H12A 2548   5.319   5.130   8.294  0.8060 -0.7523 -0.7164
   35CHL1  H12B 2549   5.150   5.070   8.257 -0.4379  0.5630 -3.5819
   35CHL1   C11 2550   5.241   5.175   8.094 -0.1361  0.1229 -0.8176
   35CHL1  H11A 2551   5.316   5.257   8.086 -0.4902  0.6588  0.8757
   35CHL1  H11B 2552   5.280   5.081   8.049 -1.2305 -1.3322  1.1368
   35CHL1    C9 2553   5.112   5.210   8.012 -0.0051 -0.3462 -0.0662
   35CHL1    H9 2554   5.051   5.117   8.022 -0.7969  0.2916  1.4539
   35CHL1   C10 2555   5.140   5.243   7.861 -0.0144 -0.5475 -0.0191
   35CHL1   C19 2556   5.232   5.372   7.847 -0.8418  0.0403 -0.2524
   35CHL1  H19A 2557   5.197   5.469   7.888  0.3889 -0.2503  1.6228
   35CHL1  H19B 2558   5.325   5.360   7.907 -0.7357  2.0224  0.0313
   35CHL1  H19C 2559   5.266   5.393   7.743 -2.1770  0.7747 -0.5545
   35CHL1    C1 2560   5.216   5.120   7.798 -0.5496 -0.3211  0.0773
   35CHL1   H1A 2561   5.317   5.118   7.846 -1.2992 -1.1456  1.7046
   35CHL1   H1B 2562   5.165   5.030   7.838 -0.9544  0.1661  0.6960
   35CHL1    C2 2563   5.212   5.124   7.645  0.6952 -0.7341  0.8068
   35CHL1   H2A 2564   5.260   5.032   7.605  0.8566 -0.0883 -0.5329
   35CHL1   H2B 2565   5.268   5.208   7.600  0.6273 -0.8071  0.5828
   35CHL1   C20 2566   5.182   5.284   8.567 -0.0274 -0.1505  0.2200
   35CHL1   H20 2567   5.205   5.392   8.561  0.4966 -0.3207 -1.4957
   35CHL1   C21 2568   5.309   5.209   8.554 -0.7563  0.3573  0.2116
   35CHL1  H21A 2569   5.309   5.100   8.529  1.2858  0.4606 -0.4160
   35CHL1  H21B 2570   5.380   5.232   8.635 -0.8699  1.1640  0.0910
   35CHL1  H21C 2571   5.373   5.253   8.475  0.9330  2.7100  2.7105
   35CHL1   C22 2572   5.113   5.260   8.707  0.8642  0.3123  0.6858
   35CHL1  H22A 2573   5.013   5.307   8.720  0.8913  0.9291 -1.0935
   35CHL1  H22B 2574   5.091   5.152   8.720 -3.6587  0.4288 -3.1492
   35CHL1   C23 2575   5.190   5.319   8.832  0.2927  0.5837 -0.1313
   35CHL1  H23A 2576   5.279   5.257   8.858  0.1198 -0.2729 -1.4646
   35CHL1  H23B 2577   5.223   5.419   8.798 -0.5599  0.2797 -1.9922
   35CHL1   C24 2578   5.096   5.331   8.949  0.7094  0.1940 -0.4335
   35CHL1  H24A 2579   5.002   5.384   8.919 -0.4313 -0.7115  1.3329
   35CHL1  H24B 2580   5.056   5.233   8.985 -1.4120  0.7369 -1.1457
   35CHL1   C25 2581   5.148   5.404   9.075  0.2566  0.6585 -0.7296
   35CHL1   H25 2582   5.183   5.497   9.025  0.0982  0.7396 -0.6906
   35CHL1   C26 2583   5.038   5.431   9.181 -0.0500  0.5404 -0.4657
   35CHL1  H26A 2584   5.013   5.333   9.227 -2.3476  0.9769 -0.6499
   35CHL1  H26B 2585   5.068   5.494   9.268 -0.5516  1.1477 -0.7193
   35CHL1  H26C 2586   4.938   5.455   9.137 -0.4966  0.3220  0.4010
   35CHL1   C27 2587   5.261   5.333   9.141 -0.5079  0.2512 -0.0675
   35CHL1  H27A 2588   5.347   5.305   9.077  1.4086  1.1421  1.9643
   35CHL1  H27B 2589   5.224   5.243   9.195  0.9685  0.5806  1.6100
   35CHL1  H27C 2590   5.299   5.391   9.228 -1.2561 -0.1675  0.5557
   36CHL1    C3 2591   0.625   3.954   7.103 -0.2576  0.0351  0.6340
   36CHL1    H3 2592   0.730   3.921   7.117 -0.3353 -0.8999 -0.7707
   36CHL1    O3 2593   0.590   3.942   6.967  0.0539 -0.0499  0.1911
   36CHL1   H3' 2594   0.496   3.957   6.971 -0.1258 -1.0054 -0.0671
   36CHL1    C4 2595   0.527   3.876   7.195  0.7811 -0.3019  0.0655
   36CHL1   H4A 2596   0.421   3.890   7.165  0.8872  0.5998  0.0716
   36CHL1   H4B 2597   0.546   3.769   7.176  0.2424 -0.3770 -0.0732
   36CHL1    C5 2598   0.555   3.900   7.343  0.1186  0.5399  0.7797
   36CHL1    C6 2599   0.571   3.797   7.426 -0.0777 -0.2546 -0.5429
   36CHL1    H6 2600   0.553   3.693   7.395 -1.2527 -1.3575  3.3449
   36CHL1    C7 2601   0.585   3.806   7.575  0.0980 -0.0339  0.2525
   36CHL1   H7A 2602   0.509   3.742   7.623 -0.8592 -0.2160 -1.4401
   36CHL1   H7B 2603   0.687   3.774   7.607 -0.4069 -2.1982 -0.1775
   36CHL1    C8 2604   0.556   3.950   7.622 -0.5927  0.0562 -0.0061
   36CHL1    H8 2605   0.446   3.964   7.618 -0.5375  0.6323  0.3799
   36CHL1   C14 2606   0.605   3.964   7.762 -0.9412 -0.5990 -0.3478
   36CHL1   H14 2607   0.715   3.954   7.751 -0.4012  3.4138  0.0119
   36CHL1   C15 2608   0.568   3.857   7.864  0.3902 -0.6522  0.4174
   36CHL1  H15A 2609   0.467   3.818   7.838 -0.7375  2.2694  0.0488
   36CHL1  H15B 2610   0.644   3.775   7.858  1.2570  0.1190  0.6044
   36CHL1   C16 2611   0.559   3.925   8.000 -0.1490  0.8636 -0.1198
   36CHL1  H16A 2612   0.456   3.932   8.042  0.5167  3.2068  1.3285
   36CHL1  H16B 2613   0.622   3.875   8.076 -2.2753  0.4669  1.4774
   36CHL1   C17 2614   0.611   4.070   7.979 -0.2547  0.6178  0.6782
   36CHL1   H17 2615   0.721   4.059   7.988 -0.1167  1.9151  0.7057
   36CHL1   C13 2616   0.571   4.095   7.830 -0.2376  0.4349 -0.3259
   36CHL1   C18 2617   0.417   4.130   7.832  0.3684  0.4856 -0.2557
   36CHL1  H18A 2618   0.379   4.132   7.727 -0.8898  2.9581  0.1834
   36CHL1  H18B 2619   0.357   4.066   7.900 -0.5323  1.3871 -0.1912
   36CHL1  H18C 2620   0.396   4.236   7.855  0.6612  1.1925 -2.9142
   36CHL1   C12 2621   0.644   4.205   7.753 -0.6964 -0.7361  0.0168
   36CHL1  H12A 2622   0.628   4.307   7.792 -1.4319 -1.2320  1.0530
   36CHL1  H12B 2623   0.753   4.194   7.770 -1.3761 -2.7672  4.1541
   36CHL1   C11 2624   0.614   4.204   7.598 -0.7060 -0.1796 -0.7767
   36CHL1  H11A 2625   0.516   4.257   7.599 -0.1415  0.8888 -0.3901
   36CHL1  H11B 2626   0.686   4.270   7.546 -0.7642  0.8710  0.4187
   36CHL1    C9 2627   0.616   4.061   7.528 -0.8916  0.5001  0.1514
   36CHL1    H9 2628   0.722   4.027   7.524 -1.3864 -1.0975 -0.1561
   36CHL1   C10 2629   0.566   4.050   7.384 -0.3245  0.2078  0.6657
   36CHL1   C19 2630   0.426   4.117   7.374  0.6695 -0.2265  0.0939
   36CHL1  H19A 2631   0.378   4.095   7.472  3.0979 -2.4718  0.8867
   36CHL1  H19B 2632   0.434   4.227   7.365  0.4174 -0.1292  0.8911
   36CHL1  H19C 2633   0.359   4.101   7.287 -0.3684 -0.5466  0.9259
   36CHL1    C1 2634   0.659   4.112   7.280 -0.0167 -1.0922  0.2992
   36CHL1   H1A 2635   0.688   4.216   7.304  2.5910 -1.2232 -1.8413
   36CHL1   H1B 2636   0.754   4.056   7.290  0.6007  0.0484  1.0208
   36CHL1    C2 2637   0.619   4.103   7.133 -0.6563  0.0154  0.5786
   36CHL1   H2A 2638   0.698   4.155   7.074  1.1632 -1.1830  1.8534
   36CHL1   H2B 2639   0.524   4.154   7.106  0.3284  0.4111 -2.5531
   36CHL1   C20 2640   0.572   4.164   8.096 -0.1284  0.0069 -0.4654
   36CHL1   H20 2641   0.462   4.163   8.083  0.0621 -1.4884 -2.2513
   36CHL1   C21 2642   0.638   4.301   8.071 -0.4189  0.1212  0.0029
   36CHL1  H21A 2643   0.743   4.277   8.043  0.2781  3.1013 -0.3307
   36CHL1  H21B 2644   0.639   4.367   8.160  1.3291  1.3624 -0.8696
   36CHL1  H21C 2645   0.587   4.357   7.990  0.3858  0.9066  0.0152
   36CHL1   C22 2646   0.604   4.103   8.231  0.4400  0.0104 -0.8688
   36CHL1  H22A 2647   0.556   4.004   8.245 -0.2280  0.3263 -0.9101
   36CHL1  H22B 2648   0.712   4.078   8.226  0.0710 -2.0765  0.3859
   36CHL1   C23 2649   0.578   4.186   8.363  0.5707  0.1519  0.3566
   36CHL1  H23A 2650   0.618   4.287   8.339  0.1706 -0.0965 -1.5171
   36CHL1  H23B 2651   0.469   4.206   8.375  0.5167 -0.5144  1.0943
   36CHL1   C24 2652   0.634   4.113   8.487  0.7248 -0.3699  0.6700
   36CHL1  H24A 2653   0.596   4.009   8.473  2.5269 -0.9171 -0.5068
   36CHL1  H24B 2654   0.745   4.115   8.480  0.8164 -1.9569  1.2172
   36CHL1   C25 2655   0.589   4.182   8.621  0.1563 -0.1519 -0.2443
   36CHL1   H25 2656   0.641   4.123   8.700  1.3341  0.1592 -0.7786
   36CHL1   C26 2657   0.635   4.328   8.630  0.0202 -0.4747  0.0040
   36CHL1  H26A 2658   0.741   4.336   8.596  0.0952 -1.0862  0.0897
   36CHL1  H26B 2659   0.571   4.387   8.561 -1.4263  0.4961  2.0796
   36CHL1  H26C 2660   0.635   4.376   8.730 -0.9862  0.3913 -0.3887
   36CHL1   C27 2661   0.443   4.165   8.662  0.0723  0.3777  0.0730
   36CHL1  H27A 2662   0.378   4.082   8.628  0.8327  0.2023 -1.0049
   36CHL1  H27B 2663   0.453   4.157   8.772 -0.2604  1.7745  0.2276
   36CHL1  H27C 2664   0.387   4.260   8.646 -0.5862 -0.4045 -2.8296
   37CHL1    C3 2665   3.118   4.947   7.167 -0.5156  0.2847 -0.1714
   37CHL1    H3 2666   3.013   4.913   7.183 -0.6566  1.4733  1.7272
   37CHL1    O3 2667   3.149   4.952   7.027 -0.3550  0.1937 -0.4081
   37CHL1   H3' 2668   3.187   4.866   7.008  0.9305  0.1041  2.2410
   37CHL1    C4 2669   3.151   5.080   7.231 -0.0717 -0.1827  0.0593
   37CHL1   H4A 2670   3.256   5.109   7.210 -0.8383  1.1293 -2.3687
   37CHL1   H4B 2671   3.097   5.165   7.183  1.8309  1.6840  1.0519
   37CHL1    C5 2672   3.125   5.072   7.377 -0.3074 -0.3273 -0.1082
   37CHL1    C6 2673   3.035   5.148   7.438 -0.5407 -0.4574 -0.0236
   37CHL1    H6 2674   2.970   5.215   7.380 -1.8594 -0.1188  1.7615
   37CHL1    C7 2675   2.998   5.144   7.582  0.0783 -0.5389 -0.1183
   37CHL1   H7A 2676   2.966   5.244   7.621 -0.0384 -0.8383  0.5753
   37CHL1   H7B 2677   2.902   5.090   7.595 -0.3390  0.7595  3.0991
   37CHL1    C8 2678   3.113   5.077   7.667  0.6213  0.6953 -0.5112
   37CHL1    H8 2679   3.193   5.153   7.679 -1.3442  2.4993  2.5173
   37CHL1   C14 2680   3.062   5.039   7.806 -0.0127  0.3139  0.9869
   37CHL1   H14 2681   2.985   4.959   7.799  0.5985 -0.3568  1.6848
   37CHL1   C15 2682   2.998   5.149   7.885  0.1905 -0.2136  0.5368
   37CHL1  H15A 2683   3.062   5.241   7.886 -2.2275  1.5672  1.6856
   37CHL1  H15B 2684   2.897   5.181   7.852  1.5713  3.4792 -0.6354
   37CHL1   C16 2685   3.000   5.093   8.031 -1.4451  0.6504  0.1493
   37CHL1  H16A 2686   3.049   5.170   8.094  0.9357 -1.2232  0.7477
   37CHL1  H16B 2687   2.897   5.065   8.063 -1.2789 -0.5999 -0.3290
   37CHL1   C17 2688   3.083   4.958   8.025 -0.0526  0.0655 -0.4665
   37CHL1   H17 2689   3.014   4.873   8.013  0.6897 -0.5828 -0.2687
   37CHL1   C13 2690   3.171   4.966   7.898  0.3374  0.0178 -0.5296
   37CHL1   C18 2691   3.290   5.060   7.927 -0.4318 -0.2700  0.1756
   37CHL1  H18A 2692   3.355   5.086   7.840  0.7690 -0.5296  0.9745
   37CHL1  H18B 2693   3.249   5.151   7.976 -0.1186  0.4033 -0.7793
   37CHL1  H18C 2694   3.370   5.029   7.998  0.7015 -0.5643 -1.1764
   37CHL1   C12 2695   3.210   4.843   7.820 -0.0642  1.5412 -0.1143
   37CHL1  H12A 2696   3.302   4.798   7.860 -0.2264  1.2667 -0.0493
   37CHL1  H12B 2697   3.129   4.768   7.808 -1.6879  2.9602  1.3144
   37CHL1   C11 2698   3.267   4.872   7.679  1.1384 -0.8047  0.7084
   37CHL1  H11A 2699   3.372   4.908   7.681  1.3966 -1.5583  2.3486
   37CHL1  H11B 2700   3.275   4.775   7.627  1.7741  0.1952 -1.1539
   37CHL1    C9 2701   3.166   4.954   7.594  0.1010 -0.5411 -0.5683
   37CHL1    H9 2702   3.072   4.897   7.582  0.0743 -0.2604 -1.7537
   37CHL1   C10 2703   3.213   4.971   7.454 -0.0561 -0.0532 -0.0938
   37CHL1   C19 2704   3.355   5.025   7.451 -0.0847 -0.0237 -0.2740
   37CHL1  H19A 2705   3.363   5.125   7.498 -3.1234 -0.1514  0.7166
   37CHL1  H19B 2706   3.433   4.953   7.484  1.4196  1.6917  0.0635
   37CHL1  H19C 2707   3.382   5.047   7.346 -2.7621 -1.0347 -1.2422
   37CHL1    C1 2708   3.200   4.841   7.371 -0.3107  0.3291 -0.1125
   37CHL1   H1A 2709   3.275   4.766   7.404 -0.2020  0.7892  0.7143
   37CHL1   H1B 2710   3.108   4.783   7.392 -0.3365  0.7669  1.0991
   37CHL1    C2 2711   3.217   4.845   7.219 -0.1755 -0.3603 -0.0161
   37CHL1   H2A 2712   3.190   4.747   7.176  1.6274 -1.9810  2.2719
   37CHL1   H2B 2713   3.317   4.874   7.179  0.7454 -0.3374  2.1548
   37CHL1   C20 2714   3.157   4.926   8.159  0.2107  0.1135  0.4784
   37CHL1   H20 2715   3.241   4.996   8.181 -0.5763  1.4615 -0.6573
   37CHL1   C21 2716   3.204   4.782   8.136 -0.2013  0.3138 -0.4818
   37CHL1  H21A 2717   3.262   4.755   8.045  1.0580 -1.4305  0.7649
   37CHL1  H21B 2718   3.124   4.706   8.147  0.4903 -0.2212  1.3800
   37CHL1  H21C 2719   3.278   4.753   8.214 -1.6365 -1.0258  0.4611
   37CHL1   C22 2720   3.064   4.930   8.279  0.0208 -0.5914  1.0198
   37CHL1  H22A 2721   3.010   5.027   8.274  3.7119  1.6112 -0.8977
   37CHL1  H22B 2722   2.992   4.847   8.270 -1.1339  0.5180 -0.7675
   37CHL1   C23 2723   3.132   4.935   8.422  0.8477  0.6038  0.3068
   37CHL1  H23A 2724   3.198   4.845   8.424 -0.3509 -0.3384 -0.7223
   37CHL1  H23B 2725   3.173   5.038   8.428 -0.2677  0.9875  1.5551
   37CHL1   C24 2726   3.029   4.933   8.528 -0.2883 -0.4297  0.1222
   37CHL1  H24A 2727   2.977   5.031   8.521  0.1627 -0.0916  1.3485
   37CHL1  H24B 2728   2.950   4.856   8.508  1.5704 -1.8910 -2.1668
   37CHL1   C25 2729   3.085   4.925   8.676 -0.4351  0.0401  0.0477
   37CHL1   H25 2730   3.156   4.841   8.683 -0.7086 -0.2063 -0.1069
   37CHL1   C26 2731   3.161   5.054   8.713 -0.6519  0.8360  0.2092
   37CHL1  H26A 2732   3.200   5.055   8.817 -0.0607 -2.6901  0.1182
   37CHL1  H26B 2733   3.247   5.063   8.643 -0.8405  0.5761 -0.0612
   37CHL1  H26C 2734   3.100   5.146   8.696 -0.6047  0.5040 -2.0712
   37CHL1   C27 2735   2.964   4.906   8.767  0.6562 -0.0815 -0.4153
   37CHL1  H27A 2736   2.990   4.861   8.865  3.6006 -0.5300 -1.2955
   37CHL1  H27B 2737   2.915   5.005   8.775  1.9124  0.4623  0.7922
   37CHL1  H27C 2738   2.889   4.838   8.721  0.6180 -0.5155  0.2796
   38CHL1    C3 2739   5.052   0.683   6.999 -0.2643  0.1735 -0.2990
   38CHL1    H3 2740   5.159   0.700   6.972  0.3920 -0.3582  1.8023
   38CHL1    O3 2741   4.989   0.640   6.878 -0.3725  0.4750  0.3323
   38CHL1   H3' 2742   4.898   0.632   6.907 -0.7440 -1.2942 -1.0744
   38CHL1    C4 2743   5.032   0.575   7.109  0.8118 -0.2334  0.0394
   38CHL1   H4A 2744   4.922   0.555   7.108  0.4780  1.3435  0.9983
   38CHL1   H4B 2745   5.072   0.479   7.071  1.1411 -1.4449  3.1352
   38CHL1    C5 2746   5.076   0.619   7.246 -0.0948  0.3433  0.1956
   38CHL1    C6 2747   5.148   0.531   7.324  0.4775 -0.3101  0.1510
   38CHL1    H6 2748   5.178   0.436   7.277  1.2572  0.2843 -0.5761
   38CHL1    C7 2749   5.184   0.564   7.465 -0.4774 -0.5326 -0.0574
   38CHL1   H7A 2750   5.166   0.478   7.532  2.3830  0.3314  2.0203
   38CHL1   H7B 2751   5.291   0.591   7.474 -0.0094 -2.5894  1.0313
   38CHL1    C8 2752   5.094   0.669   7.531 -0.2211  0.4944 -0.1430
   38CHL1    H8 2753   5.002   0.614   7.559  1.1678 -2.9836 -1.8784
   38CHL1   C14 2754   5.156   0.722   7.661  0.2753 -0.4784  0.1629
   38CHL1   H14 2755   5.248   0.780   7.638  0.4880 -1.4189 -1.5401
   38CHL1   C15 2756   5.209   0.628   7.771  0.4723 -0.1279 -0.2980
   38CHL1  H15A 2757   5.135   0.545   7.774  0.8414 -0.4451  0.1003
   38CHL1  H15B 2758   5.310   0.589   7.749  0.4995  0.0772 -0.5380
   38CHL1   C16 2759   5.206   0.707   7.898 -0.0626  0.7937 -0.0437
   38CHL1  H16A 2760   5.135   0.661   7.970 -0.8565  1.7366 -0.2003
   38CHL1  H16B 2761   5.307   0.713   7.943  0.0028  0.6245 -0.1677
   38CHL1   C17 2762   5.161   0.853   7.862  0.0532 -1.1061  0.3301
   38CHL1   H17 2763   5.256   0.902   7.830 -0.3290 -1.0117 -0.7312
   38CHL1   C13 2764   5.075   0.831   7.732 -0.2960 -0.6911  0.5781
   38CHL1   C18 2765   4.935   0.793   7.779  0.3633 -1.1103  0.1163
   38CHL1  H18A 2766   4.876   0.882   7.809 -1.0102 -0.3996 -4.0776
   38CHL1  H18B 2767   4.873   0.750   7.698 -0.6709 -0.7971  0.7277
   38CHL1  H18C 2768   4.947   0.735   7.873 -3.2636  0.0892  1.4747
   38CHL1   C12 2769   5.076   0.955   7.634 -0.3418  0.6137  0.2266
   38CHL1  H12A 2770   5.020   1.039   7.680  1.1940  2.4170 -1.0791
   38CHL1  H12B 2771   5.182   0.978   7.614 -0.1470 -0.5155 -0.1294
   38CHL1   C11 2772   5.006   0.914   7.507 -0.1070  0.2204 -0.0611
   38CHL1  H11A 2773   4.897   0.897   7.523 -0.2486 -0.2015 -1.3139
   38CHL1  H11B 2774   5.014   1.003   7.440 -0.2951  0.1532 -0.1761
   38CHL1    C9 2775   5.075   0.791   7.437 -0.8156  0.2988  0.5322
   38CHL1    H9 2776   5.174   0.827   7.402 -0.5730 -0.8439  0.0166
   38CHL1   C10 2777   5.016   0.743   7.305 -0.0389 -0.5282  0.6534
   38CHL1   C19 2778   4.864   0.698   7.324 -0.1352  0.0654  0.3811
   38CHL1  H19A 2779   4.808   0.685   7.229  0.6556  1.8982 -0.3886
   38CHL1  H19B 2780   4.851   0.602   7.378 -0.7882 -1.2728 -1.9899
   38CHL1  H19C 2781   4.810   0.775   7.383  1.0802  1.8741 -0.7313
   38CHL1    C1 2782   5.028   0.855   7.191 -0.3089 -0.1926 -0.7660
   38CHL1   H1A 2783   4.958   0.930   7.234  1.4530  1.0662  0.0127
   38CHL1   H1B 2784   5.131   0.895   7.195  0.3749 -1.9151  1.5039
   38CHL1    C2 2785   4.982   0.815   7.046 -0.2541 -0.0430  0.3089
   38CHL1   H2A 2786   5.000   0.909   6.988 -0.0078  0.6661  1.5028
   38CHL1   H2B 2787   4.874   0.790   7.045  0.0563 -1.8027 -3.0396
   38CHL1   C20 2788   5.111   0.947   7.978  1.2710 -0.2143 -0.4014
   38CHL1   H20 2789   5.009   0.915   8.006  1.5126  0.1019  0.8879
   38CHL1   C21 2790   5.087   1.098   7.942 -0.8537 -0.2590 -0.3696
   38CHL1  H21A 2791   5.052   1.145   8.037 -1.1123 -1.7975  0.3226
   38CHL1  H21B 2792   5.002   1.103   7.870 -0.4476  0.4526 -0.8186
   38CHL1  H21C 2793   5.181   1.151   7.916  0.6250 -0.6568  3.4884
   38CHL1   C22 2794   5.200   0.934   8.106 -0.2956  0.0817  0.1493
   38CHL1  H22A 2795   5.245   0.833   8.113  0.4978  0.2641 -1.6117
   38CHL1  H22B 2796   5.288   0.994   8.073  0.9078 -2.2864 -1.2048
   38CHL1   C23 2797   5.151   0.980   8.240  0.1333  0.5868 -0.0796
   38CHL1  H23A 2798   5.159   1.091   8.234 -0.8627  0.7120  0.6040
   38CHL1  H23B 2799   5.043   0.952   8.240  0.2585  0.0561 -1.2701
   38CHL1   C24 2800   5.231   0.930   8.361  0.7602  0.1636  0.7985
   38CHL1  H24A 2801   5.228   0.819   8.363  0.4348  0.0450 -2.0077
   38CHL1  H24B 2802   5.338   0.947   8.333  0.1772  0.3818 -1.5222
   38CHL1   C25 2803   5.201   0.995   8.493 -0.1536  0.2849  0.3113
   38CHL1   H25 2804   5.096   0.969   8.518 -0.1621 -0.0674 -0.0766
   38CHL1   C26 2805   5.302   0.946   8.596  0.8533  0.2181  0.4143
   38CHL1  H26A 2806   5.376   1.025   8.620 -0.9247  1.6106  1.6895
   38CHL1  H26B 2807   5.244   0.917   8.686 -2.2912  0.7809 -1.2697
   38CHL1  H26C 2808   5.358   0.858   8.560 -2.1758 -1.3244 -0.8831
   38CHL1   C27 2809   5.206   1.154   8.484  0.3495  1.0675 -0.1674
   38CHL1  H27A 2810   5.192   1.200   8.584 -0.2868  1.4396 -0.4221
   38CHL1  H27B 2811   5.307   1.187   8.453  0.8351  0.1419  0.3597
   38CHL1  H27C 2812   5.129   1.185   8.411 -2.1230  0.2536  1.9561
   39CHL1    C3 2813   5.873   6.416   6.939  0.5864 -0.1598 -0.3374
   39CHL1    H3 2814   5.763   6.430   6.950  0.5594 -1.7023  2.2820
   39CHL1    O3 2815   5.898   6.348   6.815  0.1945 -0.3219 -0.4685
   39CHL1   H3' 2816   5.980   6.299   6.827  1.3672  1.5728 -0.2489
   39CHL1    C4 2817   5.953   6.547   6.954  0.7487  0.4956  0.3360
   39CHL1   H4A 2818   6.058   6.521   6.930  0.3427  0.8500 -2.1280
   39CHL1   H4B 2819   5.918   6.616   6.874  3.4235  0.7000 -0.7514
   39CHL1    C5 2820   5.922   6.618   7.088  0.2809  0.3017 -0.6401
   39CHL1    C6 2821   5.877   6.740   7.092  0.6926 -0.9574 -0.6948
   39CHL1    H6 2822   5.859   6.801   7.002 -1.7921 -0.6532 -0.0606
   39CHL1    C7 2823   5.851   6.825   7.214  0.5480 -0.4746  0.0255
   39CHL1   H7A 2824   5.907   6.921   7.208  1.4025 -0.9312  0.4434
   39CHL1   H7B 2825   5.743   6.849   7.225  0.7489 -0.3749  2.1982
   39CHL1    C8 2826   5.899   6.743   7.342  0.0271 -0.9009 -0.0392
   39CHL1    H8 2827   6.008   6.759   7.349 -0.2473  1.0240  0.4110
   39CHL1   C14 2828   5.851   6.809   7.473 -1.0634 -0.4596 -0.0457
   39CHL1   H14 2829   5.743   6.785   7.486 -0.8144 -0.8305  1.6233
   39CHL1   C15 2830   5.866   6.965   7.486 -0.7175 -0.5950 -0.0185
   39CHL1  H15A 2831   5.970   6.994   7.458 -0.3815  0.1558  1.8600
   39CHL1  H15B 2832   5.811   7.030   7.415  2.7354  2.2306 -0.4258
   39CHL1   C16 2833   5.848   6.990   7.644  0.3873 -0.2059  0.7896
   39CHL1  H16A 2834   5.932   7.054   7.681 -0.5833  0.0209  2.7514
   39CHL1  H16B 2835   5.749   7.042   7.649 -0.6347 -1.8063 -1.2904
   39CHL1   C17 2836   5.841   6.844   7.711  0.1331 -0.4113 -0.3741
   39CHL1   H17 2837   5.734   6.815   7.713  0.0882 -0.2728 -0.6266
   39CHL1   C13 2838   5.911   6.753   7.605  0.8069 -0.2352 -0.1367
   39CHL1   C18 2839   6.064   6.772   7.619  0.3176  0.4656 -0.1531
   39CHL1  H18A 2840   6.101   6.698   7.693 -1.4224 -1.0392 -0.7336
   39CHL1  H18B 2841   6.118   6.757   7.523  2.4745  1.8561  0.7418
   39CHL1  H18C 2842   6.084   6.874   7.661  1.1500  1.9513 -3.7830
   39CHL1   C12 2843   5.886   6.596   7.606 -0.0577  1.0780  0.2978
   39CHL1  H12A 2844   5.936   6.542   7.690 -0.9563  0.3726  0.3917
   39CHL1  H12B 2845   5.779   6.568   7.607  0.3124 -0.3889  0.2584
   39CHL1   C11 2846   5.935   6.535   7.475 -0.3118  0.2630  0.1725
   39CHL1  H11A 2847   6.044   6.555   7.475 -0.2075 -0.1667 -1.5032
   39CHL1  H11B 2848   5.937   6.424   7.474 -1.1748  0.2320  0.6610
   39CHL1    C9 2849   5.880   6.592   7.341  0.1637  0.5808 -0.7866
   39CHL1    H9 2850   5.770   6.577   7.344 -0.0683  1.8613 -1.7189
   39CHL1   C10 2851   5.945   6.531   7.212 -0.6860 -0.3647  0.1694
   39CHL1   C19 2852   6.102   6.505   7.241  0.6363  0.3106  0.3109
   39CHL1  H19A 2853   6.156   6.596   7.277  2.3095 -0.7060  0.4902
   39CHL1  H19B 2854   6.114   6.425   7.316 -1.2300 -0.5859 -0.2869
   39CHL1  H19C 2855   6.148   6.465   7.148  0.6922 -0.9498  0.8711
   39CHL1    C1 2856   5.876   6.393   7.192 -0.3706 -0.5158 -0.7017
   39CHL1   H1A 2857   5.919   6.325   7.269  0.9021  1.5145  0.4594
   39CHL1   H1B 2858   5.768   6.396   7.219 -0.3948 -1.0389 -0.7239
   39CHL1    C2 2859   5.906   6.322   7.059 -0.0734  0.3145 -0.6882
   39CHL1   H2A 2860   5.851   6.226   7.053 -0.6469  0.6989 -1.9649
   39CHL1   H2B 2861   6.016   6.308   7.050  0.2151 -0.0245  2.4039
   39CHL1   C20 2862   5.879   6.839   7.855 -0.5263  0.2139 -0.1950
   39CHL1   H20 2863   5.987   6.863   7.863 -0.2482 -1.4837  1.7638
   39CHL1   C21 2864   5.871   6.701   7.922  0.0835  0.3886  0.8194
   39CHL1  H21A 2865   5.871   6.707   8.033  1.1019  0.0309  0.8451
   39CHL1  H21B 2866   5.960   6.638   7.902 -0.1054 -0.4632  2.5071
   39CHL1  H21C 2867   5.783   6.645   7.883  1.2617 -0.8483 -0.1284
   39CHL1   C22 2868   5.818   6.954   7.944 -0.1742 -0.2808 -0.2808
   39CHL1  H22A 2869   5.847   7.048   7.892 -1.5500  0.6236  0.5006
   39CHL1  H22B 2870   5.707   6.956   7.946 -0.1707  0.3628  1.9377
   39CHL1   C23 2871   5.865   6.978   8.082  0.2645 -0.3061 -0.8228
   39CHL1  H23A 2872   5.821   6.897   8.144  1.4363 -0.1802  0.2141
   39CHL1  H23B 2873   5.976   6.967   8.084  0.3271 -0.1880 -2.3973
   39CHL1   C24 2874   5.828   7.113   8.144  0.5435 -0.0057 -0.5414
   39CHL1  H24A 2875   5.871   7.201   8.091 -2.6623  0.8598 -1.9555
   39CHL1  H24B 2876   5.717   7.123   8.142  0.4685 -0.9407 -1.3739
   39CHL1   C25 2877   5.869   7.117   8.295  0.6052 -0.1839 -0.1910
   39CHL1   H25 2878   5.853   7.224   8.320  0.6259 -0.3326  0.4792
   39CHL1   C26 2879   5.763   7.056   8.394 -0.1001  0.0968  0.5526
   39CHL1  H26A 2880   5.794   7.068   8.500  0.8736 -0.8222  0.3823
   39CHL1  H26B 2881   5.667   7.105   8.365 -0.8364 -1.5739  0.0378
   39CHL1  H26C 2882   5.752   6.946   8.393  1.4885 -0.1550  2.8345
   39CHL1   C27 2883   6.012   7.089   8.330  0.0629  0.2536 -0.0632
   39CHL1  H27A 2884   6.025   7.101   8.440 -3.7572  0.3892  0.4985
   39CHL1  H27B 2885   6.032   6.982   8.305 -1.5385 -0.6253  2.0943
   39CHL1  H27C 2886   6.087   7.140   8.266 -1.0574  0.4694 -1.2406
   40CHL1    C3 2887   0.203   5.090   7.202  0.9501  0.2379  0.8393
   40CHL1    H3 2888   0.105   5.046   7.227 -0.1082  1.3578 -1.0996
   40CHL1    O3 2889   0.206   5.081   7.053  0.3112 -0.5347 -0.3133
   40CHL1   H3' 2890   0.136   5.143   7.030  0.3528 -0.5906 -0.5860
   40CHL1    C4 2891   0.209   5.236   7.249 -0.2361 -0.2121 -0.1019
   40CHL1   H4A 2892   0.297   5.281   7.197 -2.0453 -0.6176 -3.8862
   40CHL1   H4B 2893   0.129   5.298   7.203  1.4049  2.0183 -0.0718
   40CHL1    C5 2894   0.218   5.242   7.403 -0.7454  0.3890 -0.0985
   40CHL1    C6 2895   0.130   5.300   7.478  0.5103 -0.2003  0.2463
   40CHL1    H6 2896   0.054   5.355   7.420  1.4706 -0.0630 -0.9195
   40CHL1    C7 2897   0.123   5.295   7.627 -0.4384 -0.0228  0.1684
   40CHL1   H7A 2898   0.094   5.393   7.671 -2.3328  0.2414 -1.5181
   40CHL1   H7B 2899   0.042   5.227   7.661  0.7412 -0.7289  1.7168
   40CHL1    C8 2900   0.253   5.255   7.693 -0.4996  0.9843  0.6444
   40CHL1    H8 2901   0.316   5.347   7.697 -1.9406  1.9670  1.9051
   40CHL1   C14 2902   0.226   5.211   7.840 -0.2125  0.0575  1.1181
   40CHL1   H14 2903   0.160   5.123   7.827  1.0352 -0.8416  0.7284
   40CHL1   C15 2904   0.150   5.313   7.924 -0.3948 -0.2856  0.1731
   40CHL1  H15A 2905   0.182   5.415   7.892 -3.5901  1.2813  1.5263
   40CHL1  H15B 2906   0.041   5.324   7.910 -0.4564  0.0067  0.8590
   40CHL1   C16 2907   0.186   5.275   8.064  0.2622  0.8057 -0.1007
   40CHL1  H16A 2908   0.231   5.364   8.113 -0.1588  0.7776  0.3405
   40CHL1  H16B 2909   0.105   5.219   8.115  0.4623 -0.0404 -0.7011
   40CHL1   C17 2910   0.303   5.163   8.051  0.1431  0.0468  0.1554
   40CHL1   H17 2911   0.252   5.065   8.047  0.5025 -0.1335 -0.0271
   40CHL1   C13 2912   0.358   5.178   7.910 -0.5500  0.3961 -0.1285
   40CHL1   C18 2913   0.453   5.295   7.901  0.2465 -0.1443 -0.4508
   40CHL1  H18A 2914   0.533   5.280   7.976 -0.5689  0.9723  0.6973
   40CHL1  H18B 2915   0.500   5.320   7.803  1.4588  1.3900  0.4704
   40CHL1  H18C 2916   0.408   5.387   7.945  0.6813  0.6592 -1.6410
   40CHL1   C12 2917   0.416   5.054   7.834  0.1287 -0.6237  0.4533
   40CHL1  H12A 2918   0.505   5.011   7.885  1.6364  0.8728 -0.7930
   40CHL1  H12B 2919   0.331   4.983   7.829 -1.7193  1.5317 -3.3220
   40CHL1   C11 2920   0.448   5.085   7.683  0.3557 -0.0469 -0.7099
   40CHL1  H11A 2921   0.526   5.164   7.688 -1.2703  1.5604  2.3679
   40CHL1  H11B 2922   0.476   4.990   7.633  0.1596  0.5099 -1.8846
   40CHL1    C9 2923   0.322   5.134   7.615 -0.1054  0.4079  0.4188
   40CHL1    H9 2924   0.246   5.054   7.630  0.2318  0.5340  3.3261
   40CHL1   C10 2925   0.330   5.163   7.469  0.4829  0.4391  0.2321
   40CHL1   C19 2926   0.463   5.244   7.438  0.0561 -0.1855  0.4689
   40CHL1  H19A 2927   0.470   5.282   7.334 -2.3719  0.8695  0.6166
   40CHL1  H19B 2928   0.465   5.342   7.490  0.0382 -0.3556  0.7973
   40CHL1  H19C 2929   0.549   5.177   7.456  0.9472  0.8762  0.2406
   40CHL1    C1 2930   0.332   5.020   7.401 -0.2301 -0.1478  0.7541
   40CHL1   H1A 2931   0.425   4.970   7.434 -0.3510 -0.8841  0.0071
   40CHL1   H1B 2932   0.242   4.964   7.436 -1.0388  0.1374 -0.7780
   40CHL1    C2 2933   0.324   5.013   7.246 -0.4614  0.3597 -0.4551
   40CHL1   H2A 2934   0.307   4.906   7.220 -1.0503  0.0653  0.9978
   40CHL1   H2B 2935   0.420   5.040   7.198  0.6791  0.3185  1.6832
   40CHL1   C20 2936   0.400   5.174   8.162  0.5150 -0.3117 -0.3535
   40CHL1   H20 2937   0.462   5.266   8.165  0.5353 -0.2741 -1.4990
   40CHL1   C21 2938   0.498   5.056   8.146  0.2947 -0.5678 -0.1043
   40CHL1  H21A 2939   0.576   5.081   8.071  0.9307  0.0137  0.7345
   40CHL1  H21B 2940   0.449   4.962   8.113 -1.2873  0.5372 -1.0331
   40CHL1  H21C 2941   0.553   5.050   8.242 -0.2237  1.1002  0.3247
   40CHL1   C22 2942   0.327   5.174   8.300 -0.0508  0.2820  0.3608
   40CHL1  H22A 2943   0.405   5.193   8.378 -0.6748  5.7320  0.0288
   40CHL1  H22B 2944   0.272   5.270   8.308  0.1721  0.6138 -1.5980
   40CHL1   C23 2945   0.257   5.043   8.340  0.0561 -0.5285  0.8092
   40CHL1  H23A 2946   0.169   5.041   8.272  0.0288  1.3655  0.7362
   40CHL1  H23B 2947   0.323   4.957   8.315  0.7318  0.5872 -1.5536
   40CHL1   C24 2948   0.212   5.036   8.487  0.3359  0.6793  0.5219
   40CHL1  H24A 2949   0.293   5.060   8.560 -0.4354  2.5795  0.8182
   40CHL1  H24B 2950   0.140   5.120   8.497 -1.5184 -0.9741  1.6444
   40CHL1   C25 2951   0.129   4.915   8.536 -0.8390 -0.2622 -0.1276
   40CHL1   H25 2952   0.043   4.910   8.466  0.7043  0.9331 -2.2211
   40CHL1   C26 2953   0.213   4.787   8.532 -0.3579  0.3689  0.6096
   40CHL1  H26A 2954   0.172   4.715   8.606 -0.7703 -0.6988 -0.6120
   40CHL1  H26B 2955   0.204   4.745   8.429  0.2110  3.1350 -0.6787
   40CHL1  H26C 2956   0.318   4.819   8.547 -0.8322  1.3424  2.1488
   40CHL1   C27 2957   0.083   4.937   8.680 -0.0075 -0.2076 -0.0291
   40CHL1  H27A 2958   0.175   4.926   8.742  0.4604  2.5990 -0.1113
   40CHL1  H27B 2959   0.050   5.042   8.696 -2.4546 -0.9834  0.3399
   40CHL1  H27C 2960   0.006   4.869   8.722 -0.2568 -0.2669 -0.5721
   41CHL1    C3 2961   1.971   4.450   7.197  0.0332  0.1331 -0.3077
   41CHL1    H3 2962   2.036   4.366   7.166  1.3216  1.6716 -1.9540
   41CHL1    O3 2963   1.910   4.482   7.079  0.5867  0.0858  0.1231
   41CHL1   H3' 2964   1.981   4.519   7.026 -0.5424  3.3085  0.6039
   41CHL1    C4 2965   1.866   4.400   7.299 -0.1019  0.4481  0.5659
   41CHL1   H4A 2966   1.779   4.466   7.284 -0.1117  0.0958 -1.0296
   41CHL1   H4B 2967   1.821   4.303   7.269  2.8979 -1.5449  2.0292
   41CHL1    C5 2968   1.920   4.392   7.437  0.1224  0.6380  0.1938
   41CHL1    C6 2969   1.911   4.279   7.510 -0.1472  0.7255  0.1583
   41CHL1    H6 2970   1.849   4.195   7.473  0.5512  0.0079  0.5828
   41CHL1    C7 2971   1.951   4.260   7.654 -0.0860 -0.4391  0.2168
   41CHL1   H7A 2972   1.895   4.192   7.722  1.1479 -1.0598  0.6566
   41CHL1   H7B 2973   2.053   4.216   7.643 -0.2968 -0.6885 -0.8570
   41CHL1    C8 2974   1.959   4.399   7.726  0.2713  0.5246 -0.6278
   41CHL1    H8 2975   1.854   4.428   7.745  0.3058  1.9876 -2.3682
   41CHL1   C14 2976   2.035   4.398   7.860 -0.4435 -0.7725  0.5418
   41CHL1   H14 2977   2.143   4.389   7.838  0.0722  0.7380  2.1777
   41CHL1   C15 2978   2.008   4.282   7.954 -0.2736 -0.5106  1.1088
   41CHL1  H15A 2979   1.903   4.250   7.934  0.1071 -0.7469 -0.6771
   41CHL1  H15B 2980   2.074   4.196   7.931  0.3176 -0.2094  1.6526
   41CHL1   C16 2981   2.044   4.333   8.095 -0.1074 -0.0500 -0.6722
   41CHL1  H16A 2982   1.959   4.333   8.166 -0.3301 -2.2411 -0.8840
   41CHL1  H16B 2983   2.121   4.268   8.140 -0.3545 -0.8913 -1.4355
   41CHL1   C17 2984   2.101   4.478   8.074 -0.1296  0.3872  0.7058
   41CHL1   H17 2985   2.208   4.454   8.054 -0.7725 -2.0214 -0.2101
   41CHL1   C13 2986   2.043   4.525   7.939  1.3154  0.1195  0.5539
   41CHL1   C18 2987   1.897   4.585   7.971  0.2645 -0.2179  0.6430
   41CHL1  H18A 2988   1.847   4.519   8.045 -1.0369  0.2556  0.2131
   41CHL1  H18B 2989   1.916   4.687   8.011 -1.8073  0.3368  0.3213
   41CHL1  H18C 2990   1.837   4.601   7.879  1.6030  0.8846 -0.0738
   41CHL1   C12 2991   2.121   4.621   7.849  0.1151 -0.4571  1.0278
   41CHL1  H12A 2992   2.109   4.724   7.889 -0.2614 -0.7520  1.6980
   41CHL1  H12B 2993   2.227   4.589   7.838  0.1252 -0.1657  0.1858
   41CHL1   C11 2994   2.061   4.639   7.705 -1.2345  0.0453  0.0521
   41CHL1  H11A 2995   1.970   4.699   7.724 -1.6510 -0.2487 -0.9327
   41CHL1  H11B 2996   2.127   4.707   7.646  1.0325  1.0857  3.4664
   41CHL1    C9 2997   2.037   4.505   7.636 -0.6213  0.4476  0.2941
   41CHL1    H9 2998   2.136   4.455   7.630 -0.9088 -0.8774  4.2568
   41CHL1   C10 2999   1.981   4.513   7.495 -0.7305 -0.6965 -0.7104
   41CHL1   C19 3000   1.879   4.626   7.488  0.3839 -0.1353 -0.3544
   41CHL1  H19A 3001   1.921   4.720   7.530 -0.7745  0.7547 -1.1355
   41CHL1  H19B 3002   1.853   4.644   7.382  0.2474  1.0228 -0.1321
   41CHL1  H19C 3003   1.783   4.608   7.542  0.2512  0.6952 -0.3031
   41CHL1    C1 3004   2.098   4.546   7.399 -0.4097 -0.0384 -0.6137
   41CHL1   H1A 3005   2.134   4.646   7.432 -0.1059 -0.7964  1.5482
   41CHL1   H1B 3006   2.179   4.469   7.400  1.2304  1.5198 -2.8496
   41CHL1    C2 3007   2.052   4.572   7.249 -0.4402 -0.8612 -0.3714
   41CHL1   H2A 3008   2.138   4.573   7.179 -1.1896  1.5024 -1.3530
   41CHL1   H2B 3009   2.004   4.672   7.243 -0.3554 -0.7135  1.1125
   41CHL1   C20 3010   2.106   4.565   8.211  1.0071 -0.4831  0.4442
   41CHL1   H20 3011   1.998   4.570   8.239  0.4976  0.5179 -1.5015
   41CHL1   C21 3012   2.157   4.705   8.175  0.1035  0.7540 -0.2621
   41CHL1  H21A 3013   2.092   4.756   8.101  0.0580  1.4919  0.2704
   41CHL1  H21B 3014   2.260   4.694   8.134 -0.0456 -1.5606 -0.1584
   41CHL1  H21C 3015   2.160   4.761   8.271  0.7910 -1.0742  0.8340
   41CHL1   C22 3016   2.185   4.499   8.321 -0.3396 -0.2901  0.2392
   41CHL1  H22A 3017   2.169   4.389   8.316  0.4342 -0.3495 -1.8089
   41CHL1  H22B 3018   2.295   4.517   8.311 -0.8507  2.5618 -1.1564
   41CHL1   C23 3019   2.144   4.539   8.460  0.3129  0.6956  0.4886
   41CHL1  H23A 3020   2.143   4.649   8.474  1.2516  1.3152 -3.1891
   41CHL1  H23B 3021   2.041   4.501   8.476  0.1042  1.0458  0.0072
   41CHL1   C24 3022   2.217   4.458   8.569  0.8682  0.3742  0.3089
   41CHL1  H24A 3023   2.227   4.356   8.527  1.4434  0.9597 -1.0511
   41CHL1  H24B 3024   2.319   4.498   8.582  1.4036 -1.0946  0.8572
   41CHL1   C25 3025   2.151   4.468   8.715  1.0784 -0.0285 -0.2570
   41CHL1   H25 3026   2.042   4.446   8.717  0.7338  1.5639  0.1596
   41CHL1   C26 3027   2.213   4.356   8.799  0.0541 -0.3478  0.2948
   41CHL1  H26A 3028   2.208   4.261   8.742 -1.0594  0.9362 -1.8883
   41CHL1  H26B 3029   2.322   4.375   8.815 -0.4702  3.6819  0.2515
   41CHL1  H26C 3030   2.160   4.357   8.897 -0.5753  0.0191 -0.0463
   41CHL1   C27 3031   2.161   4.613   8.776  0.1268  0.3165  0.1531
   41CHL1  H27A 3032   2.090   4.687   8.733  0.9025 -0.3684 -2.4869
   41CHL1  H27B 3033   2.138   4.609   8.885 -1.6331 -1.8839 -0.2354
   41CHL1  H27C 3034   2.267   4.642   8.764  0.1879 -0.0332 -0.1676
   42CHL1    C3 3035   3.324   0.319   7.166 -0.1769 -1.3072 -0.1033
   42CHL1    H3 3036   3.213   0.311   7.170 -0.6676  1.5119 -3.5034
   42CHL1    O3 3037   3.367   0.340   7.033  0.1406 -0.4384 -0.2005
   42CHL1   H3' 3038   3.351   0.431   7.008 -1.4934  0.9728  4.7179
   42CHL1    C4 3039   3.362   0.436   7.254  0.2526 -0.1912  0.6254
   42CHL1   H4A 3040   3.473   0.448   7.254  0.5696 -2.5578 -0.2650
   42CHL1   H4B 3041   3.321   0.532   7.215  1.2413  0.4790  1.1901
   42CHL1    C5 3042   3.312   0.428   7.395  0.4579 -0.3621  0.3022
   42CHL1    C6 3043   3.235   0.524   7.449 -0.8543 -0.0634  0.5089
   42CHL1    H6 3044   3.218   0.611   7.384  0.4809 -0.6547 -0.6892
   42CHL1    C7 3045   3.193   0.526   7.590  0.2110  0.1714  0.0202
   42CHL1   H7A 3046   3.221   0.626   7.628  0.0919  0.5028 -0.7525
   42CHL1   H7B 3047   3.084   0.505   7.600  0.1866  1.2061  2.4856
   42CHL1    C8 3048   3.262   0.420   7.677  0.6732  0.7146 -0.1581
   42CHL1    H8 3049   3.364   0.456   7.699  1.7234 -1.8599 -0.4112
   42CHL1   C14 3050   3.196   0.398   7.812 -0.0401 -0.3285  0.6108
   42CHL1   H14 3051   3.098   0.361   7.775  0.5222 -2.7388  1.3098
   42CHL1   C15 3052   3.171   0.525   7.902 -0.4245  0.3998  0.3967
   42CHL1  H15A 3053   3.260   0.591   7.906 -2.1088  3.1170 -2.4663
   42CHL1  H15B 3054   3.080   0.583   7.873 -1.2517  1.5811  4.6250
   42CHL1   C16 3055   3.133   0.458   8.039 -0.4988 -1.0157  1.3170
   42CHL1  H16A 3056   3.189   0.516   8.115  1.6603  0.6501 -1.3278
   42CHL1  H16B 3057   3.026   0.484   8.054 -0.6752 -0.6633 -0.2865
   42CHL1   C17 3058   3.150   0.312   8.020 -0.0047  0.3257  0.3975
   42CHL1   H17 3059   3.053   0.274   7.982  0.5101  1.2060 -2.0004
   42CHL1   C13 3060   3.253   0.292   7.901 -1.1101  0.5590  0.0910
   42CHL1   C18 3061   3.397   0.315   7.953 -0.2822 -1.0042 -0.3225
   42CHL1  H18A 3062   3.407   0.387   8.037 -1.9712 -0.4677 -0.5478
   42CHL1  H18B 3063   3.429   0.217   7.995  0.3395 -2.0341 -2.9838
   42CHL1  H18C 3064   3.462   0.354   7.872 -0.4428  2.7774  1.1794
   42CHL1   C12 3065   3.253   0.155   7.831 -0.3747 -0.6474 -0.0820
   42CHL1  H12A 3066   3.299   0.075   7.893 -0.2606  1.2601  2.4435
   42CHL1  H12B 3067   3.146   0.123   7.829 -0.8185  0.7765 -2.5646
   42CHL1   C11 3068   3.313   0.168   7.696  0.3502  0.2589 -0.8824
   42CHL1  H11A 3069   3.422   0.184   7.714  0.2543 -0.1882  0.1884
   42CHL1  H11B 3070   3.287   0.077   7.638  1.1108  1.1905 -2.7884
   42CHL1    C9 3071   3.268   0.285   7.604 -0.2159 -0.0343 -0.2487
   42CHL1    H9 3072   3.165   0.252   7.580 -0.6913 -0.9174  2.6210
   42CHL1   C10 3073   3.347   0.299   7.468  0.6995 -0.5446  0.3132
   42CHL1   C19 3074   3.500   0.319   7.485  0.3840  0.1529  0.1517
   42CHL1  H19A 3075   3.554   0.373   7.404  1.6424 -1.3958 -0.0918
   42CHL1  H19B 3076   3.521   0.382   7.574 -0.5776 -0.0096  0.5029
   42CHL1  H19C 3077   3.557   0.224   7.497  1.3076  0.8185  1.1974
   42CHL1    C1 3078   3.320   0.176   7.377 -0.2091  0.4578 -0.9598
   42CHL1   H1A 3079   3.382   0.089   7.408 -1.2764 -0.0838 -0.2949
   42CHL1   H1B 3080   3.214   0.143   7.381  0.3316 -1.2596  0.7097
   42CHL1    C2 3081   3.375   0.192   7.233 -0.7004  0.3834  0.1407
   42CHL1   H2A 3082   3.344   0.102   7.176 -0.1665 -1.1254  2.1127
   42CHL1   H2B 3083   3.486   0.203   7.234 -0.6685  0.1112 -0.2052
   42CHL1   C20 3084   3.177   0.225   8.150 -0.2311  0.6762 -0.2080
   42CHL1   H20 3085   3.243   0.138   8.130 -1.3793  0.5979 -4.8461
   42CHL1   C21 3086   3.048   0.163   8.199 -0.3586  0.8109  0.0294
   42CHL1  H21A 3087   2.961   0.232   8.196  0.6623  2.1001 -0.6296
   42CHL1  H21B 3088   3.054   0.132   8.306 -2.2086 -0.3362 -0.1549
   42CHL1  H21C 3089   3.023   0.071   8.142  0.4281  0.8475 -0.3783
   42CHL1   C22 3090   3.233   0.302   8.271  0.2391 -0.1282 -0.7396
   42CHL1  H22A 3091   3.322   0.364   8.246 -1.2009  2.5186  0.2957
   42CHL1  H22B 3092   3.159   0.351   8.337  2.0411 -1.6848  2.7261
   42CHL1   C23 3093   3.289   0.200   8.378 -0.0148  0.2441 -1.1418
   42CHL1  H23A 3094   3.203   0.137   8.408 -1.4910  3.1438  1.3163
   42CHL1  H23B 3095   3.369   0.143   8.327 -0.0228 -1.2383  0.4343
   42CHL1   C24 3096   3.336   0.278   8.503 -0.1401 -0.3289 -0.1326
   42CHL1  H24A 3097   3.424   0.340   8.475 -0.7674  0.3722 -0.5634
   42CHL1  H24B 3098   3.247   0.343   8.518  1.3548  1.8947 -0.4733
   42CHL1   C25 3099   3.362   0.185   8.626 -0.0319 -0.0257  0.2780
   42CHL1   H25 3100   3.269   0.125   8.639 -0.9398  0.5664 -2.8574
   42CHL1   C26 3101   3.479   0.094   8.593  0.2155  0.2526  0.2975
   42CHL1  H26A 3102   3.488   0.057   8.488 -0.5173 -0.7619  0.5795
   42CHL1  H26B 3103   3.577   0.142   8.616  0.2714 -0.1234  0.8651
   42CHL1  H26C 3104   3.472   0.009   8.664 -0.9660  0.0898  0.0023
   42CHL1   C27 3105   3.386   0.268   8.753 -0.9098 -0.1727 -0.2496
   42CHL1  H27A 3106   3.437   0.360   8.717  0.7023 -1.5419 -1.6518
   42CHL1  H27B 3107   3.446   0.212   8.828 -0.1295  1.8551  0.6982
   42CHL1  H27C 3108   3.291   0.301   8.798  0.0988  2.1217  0.3369
   43CHL1    C3 3109   2.565   4.704   6.953 -0.1530 -0.5116 -0.4722
   43CHL1    H3 3110   2.554   4.813   6.967 -0.2373 -0.5504 -0.2347
   43CHL1    O3 3111   2.559   4.691   6.815 -0.0815  0.2003  0.1314
   43CHL1   H3' 3112   2.644   4.721   6.782 -1.0775  1.1141 -1.8088
   43CHL1    C4 3113   2.701   4.660   6.991 -0.1163  0.2120 -0.1064
   43CHL1   H4A 3114   2.726   4.560   6.949 -2.0508 -0.9860  1.3846
   43CHL1   H4B 3115   2.766   4.739   6.948  1.5365 -0.3652  1.2502
   43CHL1    C5 3116   2.718   4.644   7.141 -0.0436  0.6330 -0.6933
   43CHL1    C6 3117   2.830   4.686   7.206 -0.3404  0.3891  0.4221
   43CHL1    H6 3118   2.912   4.724   7.144  0.1269 -0.1732  0.6850
   43CHL1    C7 3119   2.850   4.672   7.357  0.0482  0.0108 -0.6253
   43CHL1   H7A 3120   2.950   4.628   7.376 -0.1624 -0.5317 -0.7481
   43CHL1   H7B 3121   2.854   4.778   7.392 -1.0698  0.1087 -0.7722
   43CHL1    C8 3122   2.746   4.602   7.439 -0.2148  0.1714  0.5787
   43CHL1    H8 3123   2.774   4.494   7.431  0.4783  0.4670 -1.9384
   43CHL1   C14 3124   2.738   4.643   7.585  0.3916 -0.7053  1.0308
   43CHL1   H14 3125   2.703   4.748   7.591  0.3062 -0.6255 -0.5069
   43CHL1   C15 3126   2.872   4.646   7.668  1.0348 -0.3709  0.1588
   43CHL1  H15A 3127   2.917   4.545   7.653 -1.3574 -1.5102  0.1979
   43CHL1  H15B 3128   2.936   4.732   7.638  0.3873 -0.8895 -3.1502
   43CHL1   C16 3129   2.825   4.647   7.813  0.3697 -0.2587 -0.0358
   43CHL1  H16A 3130   2.883   4.581   7.882 -0.3043  0.0782  0.8767
   43CHL1  H16B 3131   2.839   4.752   7.847 -2.2193  0.0644  0.1994
   43CHL1   C17 3132   2.675   4.608   7.813  0.1386 -0.3991 -0.2117
   43CHL1   H17 3133   2.621   4.703   7.834 -0.7207 -0.4332 -2.0796
   43CHL1   C13 3134   2.648   4.555   7.673  0.5576 -0.0403 -0.7335
   43CHL1   C18 3135   2.685   4.402   7.667  0.3861  0.3169  0.1107
   43CHL1  H18A 3136   2.614   4.353   7.737 -1.4820  2.8145  0.1111
   43CHL1  H18B 3137   2.692   4.358   7.565  2.3317  1.0498 -0.1051
   43CHL1  H18C 3138   2.785   4.384   7.711  0.1905  0.8417  0.7820
   43CHL1   C12 3139   2.503   4.587   7.610  0.6325  0.1481 -0.3815
   43CHL1  H12A 3140   2.430   4.538   7.678  1.4405 -0.3682  0.1326
   43CHL1  H12B 3141   2.484   4.696   7.625  2.9792  0.8465 -1.9475
   43CHL1   C11 3142   2.494   4.553   7.461  0.2773 -0.0811 -0.1404
   43CHL1  H11A 3143   2.505   4.442   7.454  0.4241 -0.0492 -0.4115
   43CHL1  H11B 3144   2.394   4.584   7.423  0.4002  0.8241  0.2523
   43CHL1    C9 3145   2.607   4.620   7.370 -0.0544  0.2651 -0.0161
   43CHL1    H9 3146   2.591   4.729   7.379 -1.6664  0.2018 -1.6024
   43CHL1   C10 3147   2.603   4.584   7.223  0.2493 -0.3549 -0.5710
   43CHL1   C19 3148   2.636   4.435   7.192 -0.3502 -0.1917 -0.0650
   43CHL1  H19A 3149   2.733   4.409   7.240 -0.7846 -1.9248 -0.0586
   43CHL1  H19B 3150   2.553   4.371   7.230  0.8347 -0.9880  1.2727
   43CHL1  H19C 3151   2.644   4.406   7.085 -3.2414  1.9399 -0.9722
   43CHL1    C1 3152   2.458   4.625   7.165  0.6126 -0.2703 -0.3443
   43CHL1   H1A 3153   2.386   4.556   7.213  0.3689  0.9049  1.0462
   43CHL1   H1B 3154   2.438   4.727   7.203 -0.6023 -1.4645  2.5382
   43CHL1    C2 3155   2.444   4.630   7.017  0.6169  0.2283 -0.4614
   43CHL1   H2A 3156   2.353   4.689   6.993  1.3851  1.7586  0.2991
   43CHL1   H2B 3157   2.436   4.525   6.981 -0.5841  0.4240 -0.7860
   43CHL1   C20 3158   2.642   4.531   7.944 -0.3685  0.0698 -0.0125
   43CHL1   H20 3159   2.694   4.433   7.945 -0.2826  0.0837 -1.6010
   43CHL1   C21 3160   2.486   4.509   7.959 -0.5018  0.2630  0.4217
   43CHL1  H21A 3161   2.453   4.440   7.878  2.0501 -0.6729  0.1061
   43CHL1  H21B 3162   2.425   4.602   7.961 -2.9872 -1.2505  0.4254
   43CHL1  H21C 3163   2.455   4.444   8.044  2.9074 -3.7527 -1.0512
   43CHL1   C22 3164   2.688   4.608   8.069  0.1800  0.5163  1.3880
   43CHL1  H22A 3165   2.799   4.620   8.069  0.1056  1.9284 -1.3513
   43CHL1  H22B 3166   2.654   4.713   8.057  2.0870  0.9293 -1.4026
   43CHL1   C23 3167   2.659   4.542   8.201 -0.6851  0.8266 -0.0162
   43CHL1  H23A 3168   2.552   4.513   8.211 -0.3579 -0.1501  0.8946
   43CHL1  H23B 3169   2.713   4.445   8.195 -0.4594  0.9252  0.3838
   43CHL1   C24 3170   2.725   4.615   8.325 -0.2972 -0.5095 -0.0374
   43CHL1  H24A 3171   2.830   4.629   8.293 -1.0324 -0.2292 -2.6106
   43CHL1  H24B 3172   2.673   4.712   8.337 -0.3461 -0.3700 -1.2622
   43CHL1   C25 3173   2.717   4.546   8.458  0.4071 -0.3944  0.4434
   43CHL1   H25 3174   2.758   4.443   8.453 -2.3445 -1.6744  1.8811
   43CHL1   C26 3175   2.787   4.619   8.570 -0.6598  0.9086  0.2753
   43CHL1  H26A 3176   2.897   4.619   8.552 -0.2700  1.0404  2.4242
   43CHL1  H26B 3177   2.746   4.720   8.594  0.6574  1.2186  1.3861
   43CHL1  H26C 3178   2.775   4.566   8.666  1.0382 -0.7430 -0.3508
   43CHL1   C27 3179   2.569   4.526   8.495 -0.3103 -0.2310 -0.4528
   43CHL1  H27A 3180   2.517   4.621   8.468 -1.5838 -0.9169 -0.5058
   43CHL1  H27B 3181   2.524   4.451   8.426 -0.7759 -0.6435  0.2887
   43CHL1  H27C 3182   2.557   4.498   8.602  0.9688  3.1725  0.7211
   44CHL1    C3 3183   4.006   3.427   7.048 -0.6895  0.1999 -0.3661
   44CHL1    H3 3184   4.031   3.319   7.054 -0.1505  0.3106 -0.5484
   44CHL1    O3 3185   4.010   3.464   6.917  0.5681  0.2019  0.6719
   44CHL1   H3' 3186   3.993   3.558   6.906 -1.6625 -0.0698  1.2819
   44CHL1    C4 3187   3.869   3.445   7.106  0.0910 -0.1482 -1.3679
   44CHL1   H4A 3188   3.833   3.547   7.082 -0.6373 -0.4028 -1.3828
   44CHL1   H4B 3189   3.796   3.374   7.061  0.4444 -2.2929  1.1422
   44CHL1    C5 3190   3.859   3.433   7.261  0.1726 -0.2889  0.0729
   44CHL1    C6 3191   3.765   3.361   7.322  0.1305 -0.5549 -0.1688
   44CHL1    H6 3192   3.694   3.301   7.265 -0.4293  0.7578 -0.8894
   44CHL1    C7 3193   3.742   3.360   7.466  0.0917  0.1089  0.1365
   44CHL1   H7A 3194   3.632   3.368   7.473  0.0117  0.6533 -1.3735
   44CHL1   H7B 3195   3.774   3.262   7.506 -0.0764 -0.3198 -0.7627
   44CHL1    C8 3196   3.823   3.464   7.554 -0.0391  0.0932  0.6885
   44CHL1    H8 3197   3.758   3.553   7.540 -0.8522 -0.4647  0.8734
   44CHL1   C14 3198   3.828   3.432   7.700  0.2416 -0.4689  0.4742
   44CHL1   H14 3199   3.888   3.339   7.714 -1.3129 -1.7662 -0.9436
   44CHL1   C15 3200   3.693   3.403   7.776  0.3759  0.5885 -0.5165
   44CHL1  H15A 3201   3.612   3.456   7.721  0.3052  1.0115 -0.0229
   44CHL1  H15B 3202   3.667   3.295   7.769 -2.9786  1.3307 -1.1369
   44CHL1   C16 3203   3.717   3.466   7.915  0.2181  0.0267 -0.7860
   44CHL1  H16A 3204   3.666   3.565   7.920  0.8231  0.2707  2.1839
   44CHL1  H16B 3205   3.683   3.402   7.999 -2.3221  0.9827 -0.9778
   44CHL1   C17 3206   3.864   3.500   7.926  0.1752 -0.1730 -0.4632
   44CHL1   H17 3207   3.920   3.405   7.937 -1.7082 -1.1860  0.7963
   44CHL1   C13 3208   3.902   3.543   7.780  0.4809 -0.2407  0.3228
   44CHL1   C18 3209   3.837   3.679   7.760 -0.2400 -0.3662  1.4950
   44CHL1  H18A 3210   3.726   3.687   7.758 -0.2404  0.0435 -1.4322
   44CHL1  H18B 3211   3.882   3.752   7.830 -0.4853  0.3235  0.9507
   44CHL1  H18C 3212   3.861   3.719   7.659  2.0128 -0.1042  2.0782
   44CHL1   C12 3213   4.049   3.541   7.731  0.1601  0.1755  0.2107
   44CHL1  H12A 3214   4.106   3.623   7.780 -1.1721  1.4768 -0.3474
   44CHL1  H12B 3215   4.107   3.448   7.746  2.1530  1.1990 -0.7127
   44CHL1   C11 3216   4.061   3.562   7.576 -0.1088 -0.3058  0.5023
   44CHL1  H11A 3217   4.046   3.668   7.546 -2.1934 -0.7845 -0.3001
   44CHL1  H11B 3218   4.165   3.531   7.553  0.5763  1.0683  1.5720
   44CHL1    C9 3219   3.966   3.478   7.494  0.0790 -0.3094  0.6127
   44CHL1    H9 3220   4.007   3.375   7.501  0.6214 -0.1726 -0.3807
   44CHL1   C10 3221   3.961   3.518   7.337 -0.3827 -0.2218 -0.1237
   44CHL1   C19 3222   3.910   3.667   7.329  0.9908 -0.6368  0.3029
   44CHL1  H19A 3223   3.910   3.710   7.226  1.7501  2.3763  1.4676
   44CHL1  H19B 3224   3.808   3.669   7.372  1.0460 -2.0924  0.5507
   44CHL1  H19C 3225   3.974   3.739   7.383 -0.8371  1.8113 -0.5724
   44CHL1    C1 3226   4.096   3.499   7.269  0.4161 -0.5140  0.7561
   44CHL1   H1A 3227   4.180   3.564   7.303  1.4075 -1.5539  0.3344
   44CHL1   H1B 3228   4.133   3.398   7.295 -1.0896 -1.4411 -0.5583
   44CHL1    C2 3229   4.103   3.531   7.115 -0.7264 -0.4148  0.6733
   44CHL1   H2A 3230   4.207   3.518   7.080  0.0969  1.6731  2.1480
   44CHL1   H2B 3231   4.072   3.634   7.092  1.2608 -0.0493 -0.5830
   44CHL1   C20 3232   3.898   3.586   8.053 -0.0214 -0.0707  0.5080
   44CHL1   H20 3233   3.846   3.684   8.044 -1.3884 -0.7719  0.5315
   44CHL1   C21 3234   4.049   3.606   8.057 -0.5404  0.2612  0.7860
   44CHL1  H21A 3235   4.070   3.696   7.996 -0.2800 -0.1513  0.2617
   44CHL1  H21B 3236   4.106   3.517   8.022  0.5029  1.7671 -1.5949
   44CHL1  H21C 3237   4.092   3.636   8.155 -0.7495 -1.1815  1.3474
   44CHL1   C22 3238   3.836   3.521   8.178  0.3277  0.4676  0.0438
   44CHL1  H22A 3239   3.728   3.510   8.156  0.0653  1.6231  0.6396
   44CHL1  H22B 3240   3.890   3.426   8.196  1.1621  0.3438 -2.7241
   44CHL1   C23 3241   3.865   3.602   8.308  0.5518 -1.2126  1.1973
   44CHL1  H23A 3242   3.968   3.624   8.342  0.4825 -0.5883  1.0225
   44CHL1  H23B 3243   3.815   3.699   8.290 -0.5963 -2.3936 -2.9502
   44CHL1   C24 3244   3.814   3.529   8.431  0.3089  0.2060 -0.2345
   44CHL1  H24A 3245   3.711   3.496   8.406  0.0554 -0.7502  1.8603
   44CHL1  H24B 3246   3.868   3.434   8.448 -1.2220 -0.7310 -0.4400
   44CHL1   C25 3247   3.817   3.619   8.559 -0.3818 -0.0247  0.0430
   44CHL1   H25 3248   3.747   3.700   8.529  0.6024  1.3645  1.3472
   44CHL1   C26 3249   3.735   3.558   8.677 -0.3975  0.8006  0.2664
   44CHL1  H26A 3250   3.688   3.460   8.653  0.5168  0.7152 -1.3053
   44CHL1  H26B 3251   3.801   3.544   8.766  0.2573  2.4045  0.0789
   44CHL1  H26C 3252   3.655   3.627   8.711 -0.8708  1.3246 -1.7953
   44CHL1   C27 3253   3.958   3.676   8.600  0.3426  0.3698  0.6035
   44CHL1  H27A 3254   3.960   3.759   8.673  2.9066  0.0820  0.9510
   44CHL1  H27B 3255   4.008   3.587   8.645 -0.0756 -1.3480 -2.0894
   44CHL1  H27C 3256   4.017   3.711   8.513  0.1677 -1.5740 -0.3571
   45CHL1    C3 3257   3.025   2.247   7.168  0.3831  0.3466  0.3162
   45CHL1    H3 3258   3.023   2.139   7.195 -2.6809 -0.0206 -1.0084
   45CHL1    O3 3259   3.050   2.275   7.028  0.0760  0.2713 -0.2049
   45CHL1   H3' 3260   2.971   2.243   6.984 -0.8470  0.3194  1.3408
   45CHL1    C4 3261   2.885   2.305   7.211  0.1175  0.1981 -0.3823
   45CHL1   H4A 3262   2.877   2.410   7.176 -1.9670 -0.1501 -1.0567
   45CHL1   H4B 3263   2.805   2.252   7.155 -0.4805 -0.2448  0.8463
   45CHL1    C5 3264   2.867   2.287   7.362  0.0533  0.0453 -1.0430
   45CHL1    C6 3265   2.762   2.209   7.405 -0.1319  0.2250  0.2374
   45CHL1    H6 3266   2.691   2.167   7.332 -0.6736 -0.1937  0.9958
   45CHL1    C7 3267   2.723   2.200   7.555  0.3408 -0.4426  0.0096
   45CHL1   H7A 3268   2.617   2.232   7.570  0.4075 -0.2843  0.1509
   45CHL1   H7B 3269   2.750   2.098   7.589  0.6500 -0.7278 -1.0635
   45CHL1    C8 3270   2.796   2.300   7.648  0.9739 -0.0543 -0.1578
   45CHL1    H8 3271   2.752   2.402   7.643  1.5278  0.1599 -0.7960
   45CHL1   C14 3272   2.791   2.240   7.792  0.5827  0.2378  0.5503
   45CHL1   H14 3273   2.845   2.143   7.790 -1.9285 -1.2868  1.7002
   45CHL1   C15 3274   2.651   2.217   7.850  0.7081  0.4109  0.1088
   45CHL1  H15A 3275   2.572   2.288   7.819  0.3329  0.2705  0.7334
   45CHL1  H15B 3276   2.619   2.118   7.811  1.2533  0.1758  0.2463
   45CHL1   C16 3277   2.675   2.205   8.002 -0.2108 -0.3477 -0.3383
   45CHL1  H16A 3278   2.608   2.280   8.049 -1.1882 -1.7068  0.4837
   45CHL1  H16B 3279   2.648   2.108   8.048 -1.8300 -0.6141 -1.7438
   45CHL1   C17 3280   2.824   2.243   8.020 -0.6339 -0.7866  0.3229
   45CHL1   H17 3281   2.887   2.152   8.014 -0.5509 -0.8812  2.0035
   45CHL1   C13 3282   2.859   2.330   7.897  0.1631  0.4732 -0.1854
   45CHL1   C18 3283   2.796   2.467   7.905  0.3142  0.1466 -0.2074
   45CHL1  H18A 3284   2.861   2.534   7.965  0.3164 -0.4034  0.4059
   45CHL1  H18B 3285   2.782   2.506   7.802  1.1353 -0.0315 -0.3867
   45CHL1  H18C 3286   2.698   2.469   7.957 -0.1178 -1.3939 -0.8894
   45CHL1   C12 3287   3.013   2.351   7.856 -0.0668  0.7169 -0.0180
   45CHL1  H12A 3288   3.070   2.412   7.929  3.3012  0.1089 -1.9345
   45CHL1  H12B 3289   3.052   2.247   7.866  1.7180  1.2278 -1.2251
   45CHL1   C11 3290   3.031   2.401   7.709  0.3633 -0.7146 -1.0514
   45CHL1  H11A 3291   3.018   2.510   7.690  1.5587 -0.2346  0.7014
   45CHL1  H11B 3292   3.138   2.382   7.685  1.0535 -0.0346  1.2936
   45CHL1    C9 3293   2.942   2.324   7.605 -0.5959  0.7173  0.6267
   45CHL1    H9 3294   2.984   2.221   7.607  0.5542  1.1618  0.2565
   45CHL1   C10 3295   2.966   2.355   7.451  0.2196  0.0852 -1.2172
   45CHL1   C19 3296   2.940   2.501   7.432 -0.5667 -1.1251  0.2542
   45CHL1  H19A 3297   2.840   2.540   7.463  1.5776  3.5766  2.2462
   45CHL1  H19B 3298   3.021   2.554   7.488 -0.4732  0.8041 -1.5725
   45CHL1  H19C 3299   2.949   2.523   7.324  0.6044 -2.0975  0.1373
   45CHL1    C1 3300   3.107   2.307   7.410  0.4591 -0.3510 -0.2736
   45CHL1   H1A 3301   3.175   2.378   7.462 -0.0890 -1.0735  1.4827
   45CHL1   H1B 3302   3.108   2.200   7.440 -2.5083 -1.5845 -3.6748
   45CHL1    C2 3303   3.132   2.319   7.259 -0.0162 -0.0294  0.4734
   45CHL1   H2A 3304   3.233   2.284   7.229 -1.0881 -0.3950 -3.1970
   45CHL1   H2B 3305   3.126   2.426   7.230  0.3493  0.1152  0.9017
   45CHL1   C20 3306   2.844   2.307   8.161  0.3359  0.3449 -0.5684
   45CHL1   H20 3307   2.793   2.406   8.165 -0.0480  0.1614 -0.8865
   45CHL1   C21 3308   2.994   2.326   8.187  0.0856 -0.6324  0.5842
   45CHL1  H21A 3309   2.998   2.352   8.295 -1.7612 -0.7662  0.7243
   45CHL1  H21B 3310   3.029   2.421   8.142  0.0382  0.5272  2.8704
   45CHL1  H21C 3311   3.053   2.240   8.148  1.4004  1.3237 -2.0274
   45CHL1   C22 3312   2.781   2.219   8.281  0.3785 -0.4757  0.4107
   45CHL1  H22A 3313   2.776   2.283   8.372  0.4717 -1.5115  1.1623
   45CHL1  H22B 3314   2.672   2.201   8.271  0.1915  1.6049 -2.5507
   45CHL1   C23 3315   2.850   2.080   8.302 -0.6172 -0.6280  0.5233
   45CHL1  H23A 3316   2.841   2.010   8.216 -0.4975  0.8900 -0.7813
   45CHL1  H23B 3317   2.954   2.115   8.320 -1.1783  0.8099  1.1544
   45CHL1   C24 3318   2.806   2.019   8.437 -0.2431  0.0306 -0.9568
   45CHL1  H24A 3319   2.808   2.109   8.503  1.3406 -1.2567  0.8360
   45CHL1  H24B 3320   2.696   2.001   8.430 -0.0482 -1.8891  0.2900
   45CHL1   C25 3321   2.894   1.910   8.500 -0.6191  0.7313 -0.5084
   45CHL1   H25 3322   2.983   1.962   8.543 -1.2753  0.7919  0.8155
   45CHL1   C26 3323   2.828   1.860   8.623 -0.1364 -0.6979  0.1725
   45CHL1  H26A 3324   2.807   1.946   8.690 -2.7502 -0.5818 -0.6785
   45CHL1  H26B 3325   2.734   1.804   8.600  0.0170 -1.2500  0.8367
   45CHL1  H26C 3326   2.897   1.788   8.672 -1.3023 -1.3247  0.9608
   45CHL1   C27 3327   2.938   1.794   8.410 -0.8042  0.2060 -0.1423
   45CHL1  H27A 3328   2.999   1.827   8.323  1.7859 -2.0128  0.7096
   45CHL1  H27B 3329   2.996   1.721   8.470 -2.9954 -0.7227  0.9532
   45CHL1  H27C 3330   2.847   1.740   8.376  0.4234 -1.2162 -1.2895
   46CHL1    C3 3331   4.625   4.201   7.207  0.0859 -0.2202 -0.3123
   46CHL1    H3 3332   4.521   4.226   7.239  0.2182  3.2212 -2.0720
   46CHL1    O3 3333   4.652   4.176   7.067  0.6319 -0.3181 -0.0256
   46CHL1   H3' 3334   4.597   4.100   7.046 -1.9775  1.9178 -2.0833
   46CHL1    C4 3335   4.712   4.320   7.257 -0.4530 -0.3243  0.5092
   46CHL1   H4A 3336   4.820   4.301   7.240 -0.3197 -1.0324  2.0489
   46CHL1   H4B 3337   4.687   4.414   7.202  2.3928  1.5059  2.0959
   46CHL1    C5 3338   4.692   4.355   7.400 -0.4479 -0.6026 -0.3168
   46CHL1    C6 3339   4.658   4.482   7.451  0.2956 -0.1155  0.1196
   46CHL1    H6 3340   4.633   4.567   7.386 -1.9013 -1.3723 -0.8036
   46CHL1    C7 3341   4.637   4.517   7.599  0.2021 -0.0545 -0.3130
   46CHL1   H7A 3342   4.690   4.612   7.621  1.1913 -0.2372 -1.7971
   46CHL1   H7B 3343   4.530   4.518   7.630  0.9316 -0.8020  2.5605
   46CHL1    C8 3344   4.698   4.398   7.690 -0.0053  0.0220  0.0159
   46CHL1    H8 3345   4.809   4.405   7.688  0.1676 -2.0848 -0.6154
   46CHL1   C14 3346   4.648   4.412   7.833 -0.4628  0.1546  0.4193
   46CHL1   H14 3347   4.542   4.382   7.816 -0.9800  2.2873 -0.5371
   46CHL1   C15 3348   4.645   4.555   7.896 -0.5099 -0.0087  0.3767
   46CHL1  H15A 3349   4.737   4.605   7.858  0.2001 -1.3080  0.3410
   46CHL1  H15B 3350   4.546   4.601   7.872  0.2060  1.3499 -0.1004
   46CHL1   C16 3351   4.660   4.532   8.043 -0.4529 -0.4234  0.3622
   46CHL1  H16A 3352   4.756   4.575   8.079 -0.1466 -0.1290 -0.7500
   46CHL1  H16B 3353   4.583   4.576   8.109 -0.2791 -1.7287  1.4629
   46CHL1   C17 3354   4.664   4.376   8.062  0.4127  0.1223  0.2157
   46CHL1   H17 3355   4.556   4.348   8.069  0.9126 -1.8443  0.8113
   46CHL1   C13 3356   4.713   4.314   7.925 -0.3362 -0.0459  0.2276
   46CHL1   C18 3357   4.864   4.330   7.920  0.4345 -0.2699 -0.3587
   46CHL1  H18A 3358   4.915   4.303   7.825 -1.8452 -0.6939 -1.5431
   46CHL1  H18B 3359   4.897   4.436   7.927  1.5398 -0.5592 -1.0027
   46CHL1  H18C 3360   4.910   4.256   7.990  0.3099  1.9379  2.2238
   46CHL1   C12 3361   4.673   4.171   7.893 -0.1525 -0.2928 -0.6188
   46CHL1  H12A 3362   4.738   4.099   7.946  1.6688  1.7728  0.1161
   46CHL1  H12B 3363   4.566   4.148   7.915  0.0069 -0.2994  0.1640
   46CHL1   C11 3364   4.697   4.147   7.745 -0.6071  0.1213 -0.3654
   46CHL1  H11A 3365   4.805   4.125   7.746 -0.1830  1.9946 -0.7359
   46CHL1  H11B 3366   4.640   4.055   7.722 -2.6386  1.1772  0.1707
   46CHL1    C9 3367   4.656   4.256   7.635  0.6381 -0.7032  0.9098
   46CHL1    H9 3368   4.546   4.265   7.625  0.8389 -1.0322 -3.5218
   46CHL1   C10 3369   4.712   4.229   7.489  0.2703 -0.8672  0.3308
   46CHL1   C19 3370   4.861   4.194   7.492  0.2263 -0.8520 -0.3610
   46CHL1  H19A 3371   4.905   4.180   7.391  0.0807 -0.2584 -0.5102
   46CHL1  H19B 3372   4.920   4.272   7.544  0.1222 -0.9423 -0.1028
   46CHL1  H19C 3373   4.872   4.098   7.548  2.2011 -0.3904  0.1114
   46CHL1    C1 3374   4.640   4.105   7.428 -0.1060 -0.6572 -0.4998
   46CHL1   H1A 3375   4.656   4.019   7.496 -1.4677 -2.1126 -1.9550
   46CHL1   H1B 3376   4.530   4.120   7.434 -0.0773  1.0114 -2.8488
   46CHL1    C2 3377   4.677   4.078   7.285  0.2089  0.0166  0.6078
   46CHL1   H2A 3378   4.617   3.993   7.247  0.5818  0.1287 -0.2706
   46CHL1   H2B 3379   4.786   4.060   7.280  0.3994  0.6759  2.0610
   46CHL1   C20 3380   4.725   4.334   8.191  0.6139  0.6503 -0.1803
   46CHL1   H20 3381   4.833   4.363   8.193 -0.1552  3.8530  1.0333
   46CHL1   C21 3382   4.709   4.184   8.213 -0.1535 -0.0261 -0.0877
   46CHL1  H21A 3383   4.611   4.137   8.190  0.1919 -0.5421 -0.5240
   46CHL1  H21B 3384   4.742   4.149   8.313 -0.7121 -0.0284  0.0967
   46CHL1  H21C 3385   4.788   4.138   8.150 -1.2189 -1.9933 -0.0426
   46CHL1   C22 3386   4.663   4.408   8.307 -0.9647  0.4802  0.0191
   46CHL1  H22A 3387   4.669   4.518   8.291  1.3891  0.6086  1.4315
   46CHL1  H22B 3388   4.556   4.376   8.303 -1.0161  0.5902  0.4303
   46CHL1   C23 3389   4.703   4.363   8.451 -1.0746  0.4680 -0.5942
   46CHL1  H23A 3390   4.675   4.257   8.470  1.2767 -0.5071 -2.0990
   46CHL1  H23B 3391   4.813   4.367   8.434 -1.0759 -0.9697 -1.1174
   46CHL1   C24 3392   4.654   4.451   8.569  0.8418  0.0507 -0.4495
   46CHL1  H24A 3393   4.665   4.556   8.535  0.1434 -0.0036 -0.8592
   46CHL1  H24B 3394   4.550   4.418   8.583  0.5215  1.2842  0.2150
   46CHL1   C25 3395   4.736   4.435   8.691  0.3066  0.6709  0.2213
   46CHL1   H25 3396   4.839   4.465   8.663  0.1319 -0.3570 -1.7045
   46CHL1   C26 3397   4.682   4.534   8.804 -1.0989  0.0338  0.6581
   46CHL1  H26A 3398   4.759   4.551   8.882  2.4368 -1.5843 -2.1996
   46CHL1  H26B 3399   4.672   4.637   8.762  1.0168 -0.0665 -0.2189
   46CHL1  H26C 3400   4.585   4.502   8.849 -2.3668  3.5671  0.8198
   46CHL1   C27 3401   4.742   4.294   8.746  0.5366 -0.5682  0.5097
   46CHL1  H27A 3402   4.636   4.272   8.772 -0.8599  3.2885 -1.2222
   46CHL1  H27B 3403   4.777   4.224   8.667  0.7144  0.6443 -0.5092
   46CHL1  H27C 3404   4.797   4.267   8.838  1.0682 -0.0909  0.3310
   47CHL1    C3 3405   1.667   2.480   7.006  0.1390  0.0270  0.8213
   47CHL1    H3 3406   1.563   2.520   7.013  0.8915  2.8629 -1.9241
   47CHL1    O3 3407   1.717   2.500   6.879 -0.2412 -0.3466  0.3618
   47CHL1   H3' 3408   1.785   2.432   6.872 -0.4145 -0.4625 -0.2619
   47CHL1    C4 3409   1.756   2.547   7.108  0.1832 -0.2839  0.3530
   47CHL1   H4A 3410   1.862   2.517   7.097  0.1068 -1.6200  2.6056
   47CHL1   H4B 3411   1.738   2.656   7.094 -0.5789  0.0604  3.2645
   47CHL1    C5 3412   1.710   2.505   7.246  0.0514 -0.1630 -1.2267
   47CHL1    C6 3413   1.666   2.603   7.330 -0.0898  0.0275  0.3148
   47CHL1    H6 3414   1.689   2.708   7.304 -0.7649  0.4461  1.3362
   47CHL1    C7 3415   1.610   2.571   7.467 -1.4939  0.4683  0.3986
   47CHL1   H7A 3416   1.650   2.648   7.537  0.3421  0.3922 -0.5215
   47CHL1   H7B 3417   1.499   2.573   7.469 -1.6213 -2.2177 -0.7910
   47CHL1    C8 3418   1.662   2.432   7.519 -0.0432 -0.5302  0.7817
   47CHL1    H8 3419   1.770   2.445   7.541  0.4429 -0.8335 -1.2007
   47CHL1   C14 3420   1.590   2.400   7.641  0.3081  0.0772  0.1037
   47CHL1   H14 3421   1.485   2.385   7.607  0.3478  3.5106 -2.0074
   47CHL1   C15 3422   1.578   2.499   7.760  0.3455  0.6240 -0.9766
   47CHL1  H15A 3423   1.679   2.535   7.787  0.2952  0.0697 -0.0238
   47CHL1  H15B 3424   1.510   2.586   7.749 -0.3785  0.4118  1.3017
   47CHL1   C16 3425   1.538   2.418   7.886  1.1088 -0.1917  0.0519
   47CHL1  H16A 3426   1.609   2.434   7.970 -0.6727  0.1796  1.5558
   47CHL1  H16B 3427   1.435   2.446   7.917  0.5856 -2.5395  0.6154
   47CHL1   C17 3428   1.536   2.267   7.836 -0.8832 -0.5662 -0.6554
   47CHL1   H17 3429   1.431   2.234   7.821 -1.8283  0.9433  2.0114
   47CHL1   C13 3430   1.616   2.266   7.705  0.2544  0.1976  0.7142
   47CHL1   C18 3431   1.766   2.269   7.741  0.2067  0.0069  0.0232
   47CHL1  H18A 3432   1.789   2.350   7.814 -0.2463 -0.1917  0.3978
   47CHL1  H18B 3433   1.787   2.174   7.796 -0.2742  0.6213  1.3188
   47CHL1  H18C 3434   1.827   2.275   7.649  0.6181 -0.5988  0.2518
   47CHL1   C12 3435   1.579   2.154   7.610 -0.1556  0.1117  0.0709
   47CHL1  H12A 3436   1.614   2.055   7.645 -0.8253 -0.7171 -1.5197
   47CHL1  H12B 3437   1.471   2.145   7.583 -0.1605  0.0644  0.1055
   47CHL1   C11 3438   1.651   2.176   7.476  0.2387 -0.0347 -0.0227
   47CHL1  H11A 3439   1.757   2.145   7.485  0.4356  1.0286  1.8742
   47CHL1  H11B 3440   1.603   2.110   7.399 -0.0876  0.5120 -0.2932
   47CHL1    C9 3441   1.634   2.323   7.421 -0.0558 -0.3782  0.1512
   47CHL1    H9 3442   1.527   2.332   7.394  0.8744  0.7030 -3.7829
   47CHL1   C10 3443   1.710   2.354   7.290 -0.7860  0.2764 -0.3122
   47CHL1   C19 3444   1.862   2.309   7.290 -0.8614 -0.8306  0.4997
   47CHL1  H19A 3445   1.856   2.199   7.273  0.0703 -0.8876  0.4930
   47CHL1  H19B 3446   1.927   2.349   7.209  0.0248 -1.1131  1.0654
   47CHL1  H19C 3447   1.911   2.326   7.388  1.6220 -0.0904 -0.7850
   47CHL1    C1 3448   1.628   2.285   7.178 -0.2130  0.1167  0.4210
   47CHL1   H1A 3449   1.637   2.175   7.190  0.9048 -0.0183 -1.4117
   47CHL1   H1B 3450   1.523   2.321   7.189  0.3668  4.3042 -4.2014
   47CHL1    C2 3451   1.671   2.330   7.037 -0.4182  0.0856  0.2447
   47CHL1   H2A 3452   1.614   2.272   6.961 -0.0104  0.4571 -0.3543
   47CHL1   H2B 3453   1.777   2.306   7.011 -0.6170 -0.2240 -0.3039
   47CHL1   C20 3454   1.587   2.169   7.947  0.6447 -0.5866 -0.7283
   47CHL1   H20 3455   1.696   2.182   7.966  0.3517 -1.3538  1.8972
   47CHL1   C21 3456   1.568   2.016   7.908  0.2054  0.3152  0.0509
   47CHL1  H21A 3457   1.605   1.951   7.990  0.0688 -0.3515 -0.4049
   47CHL1  H21B 3458   1.626   1.997   7.816  0.3924  0.8619  0.0525
   47CHL1  H21C 3459   1.459   2.002   7.890 -0.0222  1.6827  0.2677
   47CHL1   C22 3460   1.521   2.201   8.092 -0.1612  0.6152  0.5505
   47CHL1  H22A 3461   1.532   2.309   8.111 -2.8721  1.2209 -0.7983
   47CHL1  H22B 3462   1.412   2.184   8.097 -0.3579  2.0665  1.4646
   47CHL1   C23 3463   1.604   2.121   8.206  0.0178 -0.5449 -0.1857
   47CHL1  H23A 3464   1.612   2.011   8.197  1.4222 -0.4928  0.1433
   47CHL1  H23B 3465   1.710   2.153   8.217  0.5506 -2.6274  1.2786
   47CHL1   C24 3466   1.538   2.151   8.348 -0.7842  0.7463  1.2328
   47CHL1  H24A 3467   1.530   2.261   8.362  1.7776  1.3085 -0.8240
   47CHL1  H24B 3468   1.432   2.121   8.360 -0.5972  0.7312  3.2311
   47CHL1   C25 3469   1.608   2.072   8.468 -0.0974 -0.7188  0.4800
   47CHL1   H25 3470   1.625   1.967   8.437  0.6048  0.2648 -2.8753
   47CHL1   C26 3471   1.737   2.131   8.514  0.1510 -0.3659  0.1855
   47CHL1  H26A 3472   1.722   2.223   8.575  1.2805 -0.2952  0.3804
   47CHL1  H26B 3473   1.777   2.055   8.585  0.5273 -0.7347 -0.4190
   47CHL1  H26C 3474   1.807   2.138   8.428 -1.1645 -1.0530 -0.9706
   47CHL1   C27 3475   1.510   2.072   8.585  0.8048 -1.0199 -0.5719
   47CHL1  H27A 3476   1.422   2.006   8.568  0.5020 -0.6352 -0.5048
   47CHL1  H27B 3477   1.566   2.032   8.672 -0.0611  1.5339  1.2713
   47CHL1  H27C 3478   1.480   2.175   8.613  0.6894 -1.5965  1.5578
   48CHL1    C3 3479   2.079   0.002   6.460  0.5112  0.0457 -0.1003
   48CHL1    H3 3480   2.185   0.034   6.463  0.0339  1.7317  0.0386
   48CHL1    O3 3481   2.041  -0.040   6.332 -0.3422 -0.3823 -0.1858
   48CHL1   H3' 3482   1.945  -0.049   6.334 -0.6469  2.0430  2.9930
   48CHL1    C4 3483   2.051  -0.106   6.559  0.9453 -0.6064  0.4631
   48CHL1   H4A 3484   1.941  -0.121   6.562  0.7469  0.7893  2.7723
   48CHL1   H4B 3485   2.104  -0.198   6.526 -0.3422 -1.4114  0.5943
   48CHL1    C5 3486   2.087  -0.061   6.700  0.0922  0.0182  0.4824
   48CHL1    C6 3487   2.169  -0.120   6.787 -0.4803  0.3239  0.8215
   48CHL1    H6 3488   2.224  -0.209   6.752  0.7126  1.2975  0.1835
   48CHL1    C7 3489   2.192  -0.075   6.929 -0.4798 -0.0153  0.1058
   48CHL1   H7A 3490   2.195  -0.171   6.985  0.7575 -0.7751 -1.1944
   48CHL1   H7B 3491   2.293  -0.030   6.941 -0.6312  0.8681 -1.6280
   48CHL1    C8 3492   2.093   0.027   6.986 -0.0426  0.1530  0.8151
   48CHL1    H8 3493   1.997  -0.026   6.993 -0.0904 -0.6677 -3.3025
   48CHL1   C14 3494   2.141   0.087   7.114 -0.2808 -0.1831  0.1577
   48CHL1   H14 3495   2.241   0.131   7.092 -1.6393  2.6011 -0.9190
   48CHL1   C15 3496   2.161  -0.015   7.229  0.3017 -0.4031  0.1309
   48CHL1  H15A 3497   2.068  -0.076   7.229 -0.9661  1.2415 -3.6452
   48CHL1  H15B 3498   2.253  -0.077   7.216  1.7459  1.2110  2.0436
   48CHL1   C16 3499   2.166   0.077   7.355 -1.2217 -0.0850  0.0798
   48CHL1  H16A 3500   2.104   0.023   7.430  1.1792 -0.5082  1.8784
   48CHL1  H16B 3501   2.272   0.078   7.389  0.7877  0.8371 -5.1920
   48CHL1   C17 3502   2.111   0.217   7.306  0.8394 -0.6441  0.5203
   48CHL1   H17 3503   2.195   0.284   7.279  1.0633 -0.9188  0.5272
   48CHL1   C13 3504   2.046   0.200   7.163  0.1638 -0.6110  0.1019
   48CHL1   C18 3505   1.896   0.170   7.169  0.5116 -0.2378 -0.0782
   48CHL1  H18A 3506   1.871   0.108   7.258  0.8213 -0.8057 -0.3757
   48CHL1  H18B 3507   1.843   0.267   7.181 -2.0998 -1.2896 -2.1618
   48CHL1  H18C 3508   1.863   0.123   7.074  2.3817  1.0999 -1.4698
   48CHL1   C12 3509   2.057   0.317   7.064  0.4323  0.2146  0.3387
   48CHL1  H12A 3510   1.986   0.398   7.092  0.2134  0.0215  0.3535
   48CHL1  H12B 3511   2.156   0.366   7.066  0.2228  0.6334  1.2012
   48CHL1   C11 3512   2.014   0.270   6.919  0.2977 -0.0414  0.3203
   48CHL1  H11A 3513   1.904   0.264   6.909  0.3838  1.0983 -2.0700
   48CHL1  H11B 3514   2.029   0.353   6.846  2.0333  0.3575  1.0689
   48CHL1    C9 3515   2.076   0.136   6.873  0.8693  0.8211 -0.3687
   48CHL1    H9 3516   2.178   0.172   6.847  0.5346  0.7031 -1.9918
   48CHL1   C10 3517   2.015   0.067   6.747  0.1411 -0.6210 -0.5452
   48CHL1   C19 3518   1.859   0.061   6.770 -0.3994  0.2350 -0.2601
   48CHL1  H19A 3519   1.806   0.002   6.692  2.0791 -1.1658 -0.9785
   48CHL1  H19B 3520   1.817   0.027   6.867 -2.1235  0.6589 -0.8226
   48CHL1  H19C 3521   1.809   0.159   6.757 -1.3706 -0.1669  0.3541
   48CHL1    C1 3522   2.038   0.179   6.631 -0.2362  0.6600 -0.4733
   48CHL1   H1A 3523   1.985   0.271   6.664  0.7921  0.7477  1.0502
   48CHL1   H1B 3524   2.148   0.193   6.634 -0.1638  0.2288 -1.0431
   48CHL1    C2 3525   2.005   0.132   6.495 -0.0423 -0.0484  0.0837
   48CHL1   H2A 3526   2.022   0.207   6.415 -0.5364 -1.9976 -1.9487
   48CHL1   H2B 3527   1.898   0.102   6.496 -0.2139  0.5243  1.9217
   48CHL1   C20 3528   2.021   0.287   7.416 -0.1130 -0.7528 -0.1476
   48CHL1   H20 3529   1.931   0.226   7.438 -1.9792  2.2205  1.1195
   48CHL1   C21 3530   1.989   0.429   7.384 -0.5055  0.0604 -0.0362
   48CHL1  H21A 3531   1.933   0.426   7.288  0.8471  2.3251 -0.9925
   48CHL1  H21B 3532   2.081   0.489   7.371 -0.9798  0.7782 -0.1372
   48CHL1  H21C 3533   1.920   0.479   7.455 -0.6690 -0.8257  0.4477
   48CHL1   C22 3534   2.084   0.289   7.554  0.1777  0.2685 -0.4949
   48CHL1  H22A 3535   2.017   0.351   7.618  1.1063 -0.1105  0.8884
   48CHL1  H22B 3536   2.095   0.185   7.590 -0.5603  0.2306 -0.3507
   48CHL1   C23 3537   2.223   0.346   7.563  0.1147  0.0081 -0.1582
   48CHL1  H23A 3538   2.299   0.301   7.495 -0.1910  2.1394 -2.0405
   48CHL1  H23B 3539   2.220   0.456   7.547 -1.7558 -0.0760 -0.6393
   48CHL1   C24 3540   2.280   0.332   7.706 -0.1816 -0.0546 -0.5469
   48CHL1  H24A 3541   2.273   0.228   7.744  3.0565 -1.1394 -2.5207
   48CHL1  H24B 3542   2.389   0.350   7.707 -0.1567 -0.1291 -1.3398
   48CHL1   C25 3543   2.217   0.423   7.815  0.3218  0.7194 -0.1128
   48CHL1   H25 3544   2.109   0.403   7.832  0.1208  0.5156 -1.5438
   48CHL1   C26 3545   2.293   0.405   7.954 -0.3430 -0.5644 -0.6375
   48CHL1  H26A 3546   2.402   0.428   7.943 -0.2102 -0.8306  0.1139
   48CHL1  H26B 3547   2.246   0.464   8.035 -0.5602 -2.3088  0.5504
   48CHL1  H26C 3548   2.286   0.297   7.977  0.1715 -0.6205 -0.7234
   48CHL1   C27 3549   2.223   0.576   7.775  0.8953 -0.0982 -0.6094
   48CHL1  H27A 3550   2.314   0.598   7.715  0.7354  0.9098 -0.4955
   48CHL1  H27B 3551   2.134   0.598   7.712  0.6439  1.6484  0.2943
   48CHL1  H27C 3552   2.213   0.636   7.868 -3.2096  1.0186 -1.5493
   49CHL1    C3 3553   4.463   1.024   7.067  0.4667  0.3101  0.6005
   49CHL1    H3 3554   4.357   0.998   7.084  0.4148 -0.3438 -0.6122
   49CHL1    O3 3555   4.490   1.024   6.924  0.3290  0.4551  0.0674
   49CHL1   H3' 3556   4.577   1.063   6.915  0.8889 -0.8331 -0.3056
   49CHL1    C4 3557   4.492   1.163   7.128 -0.4682  0.4628 -0.8272
   49CHL1   H4A 3558   4.598   1.188   7.106 -0.8559  1.5856 -1.4954
   49CHL1   H4B 3559   4.434   1.240   7.073 -1.6656  1.4696  1.7128
   49CHL1    C5 3560   4.472   1.161   7.279  0.5364  0.6247  0.1170
   49CHL1    C6 3561   4.383   1.243   7.336  0.3122  0.3857  0.1635
   49CHL1    H6 3562   4.327   1.303   7.263  0.6209  1.0200  0.4507
   49CHL1    C7 3563   4.352   1.252   7.484  0.0183  0.7652  0.0862
   49CHL1   H7A 3564   4.334   1.358   7.515 -0.9706  0.9099 -0.9338
   49CHL1   H7B 3565   4.254   1.205   7.507  0.4380 -0.0775  0.1602
   49CHL1    C8 3566   4.468   1.181   7.564  0.8352 -0.1448 -0.0368
   49CHL1    H8 3567   4.551   1.256   7.567 -0.4614  1.2987  1.1550
   49CHL1   C14 3568   4.411   1.162   7.701 -0.1278  0.6502  0.5683
   49CHL1   H14 3569   4.322   1.098   7.680 -0.6266  1.1811  1.0429
   49CHL1   C15 3570   4.357   1.274   7.788 -0.6530  0.6961  0.7293
   49CHL1  H15A 3571   4.434   1.355   7.786 -0.7166  0.7540  0.3641
   49CHL1  H15B 3572   4.256   1.313   7.760 -1.1135 -0.4712  0.7109
   49CHL1   C16 3573   4.353   1.212   7.929 -0.6724  0.3873 -0.0647
   49CHL1  H16A 3574   4.397   1.285   7.999  3.4999 -1.5910 -0.3379
   49CHL1  H16B 3575   4.247   1.183   7.949 -0.8025 -0.4562 -1.7751
   49CHL1   C17 3576   4.431   1.081   7.919 -0.1650 -0.7267 -1.0719
   49CHL1   H17 3577   4.359   0.998   7.904 -0.5769 -0.3785 -1.0204
   49CHL1   C13 3578   4.506   1.081   7.792 -0.0632 -0.8076 -0.0063
   49CHL1   C18 3579   4.631   1.153   7.834 -0.4285 -0.6132  0.3302
   49CHL1  H18A 3580   4.701   1.080   7.880  0.1788 -1.4493 -1.7955
   49CHL1  H18B 3581   4.688   1.183   7.743  1.3410  0.8127  1.8130
   49CHL1  H18C 3582   4.610   1.239   7.902  2.8613 -1.6546  2.9448
   49CHL1   C12 3583   4.536   0.943   7.730  0.4747 -0.0214  0.4510
   49CHL1  H12A 3584   4.600   0.892   7.806 -1.3851  0.1883  2.2341
   49CHL1  H12B 3585   4.438   0.893   7.723 -0.2435  1.5923 -2.4425
   49CHL1   C11 3586   4.595   0.954   7.595 -0.1678  0.2072 -0.1997
   49CHL1  H11A 3587   4.702   0.984   7.597 -1.1022  4.1022  1.0020
   49CHL1  H11B 3588   4.583   0.857   7.543 -1.2844  0.2293 -0.0100
   49CHL1    C9 3589   4.504   1.050   7.504 -0.2717 -0.2402  0.0712
   49CHL1    H9 3590   4.406   0.998   7.496 -0.8967  0.6324  1.6307
   49CHL1   C10 3591   4.554   1.058   7.357  0.3319  0.5242  0.3491
   49CHL1   C19 3592   4.705   1.101   7.355  0.4056  0.0644 -0.0338
   49CHL1  H19A 3593   4.772   1.017   7.385  0.4032 -0.2573 -0.8817
   49CHL1  H19B 3594   4.735   1.133   7.252  0.7390 -0.3772 -0.0783
   49CHL1  H19C 3595   4.719   1.179   7.432  0.0549 -1.9198  2.1607
   49CHL1    C1 3596   4.543   0.923   7.279 -0.2382  0.8484  0.3637
   49CHL1   H1A 3597   4.606   0.852   7.336 -1.5453 -0.7108 -0.0548
   49CHL1   H1B 3598   4.443   0.883   7.307  0.0626 -0.4926 -0.3771
   49CHL1    C2 3599   4.563   0.925   7.129 -0.4404 -0.4912  0.0426
   49CHL1   H2A 3600   4.537   0.824   7.091 -2.1898  0.1121 -0.4849
   49CHL1   H2B 3601   4.669   0.946   7.104 -0.4188  0.9612  1.2146
   49CHL1   C20 3602   4.493   1.037   8.062 -0.0128 -0.5674  0.1274
   49CHL1   H20 3603   4.556   1.121   8.098  3.1885 -3.3496  1.4505
   49CHL1   C21 3604   4.575   0.904   8.060 -0.0458 -0.3895  0.0587
   49CHL1  H21A 3605   4.605   0.863   8.159 -0.7873  0.3259  0.5900
   49CHL1  H21B 3606   4.665   0.910   7.996 -0.8558  1.3899 -0.9788
   49CHL1  H21C 3607   4.503   0.832   8.014  0.2548 -0.1906 -0.7337
   49CHL1   C22 3608   4.375   1.037   8.170  0.4121  0.1099 -0.1577
   49CHL1  H22A 3609   4.305   1.123   8.163 -0.0222 -0.2402 -0.1862
   49CHL1  H22B 3610   4.321   0.942   8.152  0.9310 -0.6898  2.1928
   49CHL1   C23 3611   4.437   1.024   8.305 -0.9928  0.2866 -1.1923
   49CHL1  H23A 3612   4.484   0.924   8.317 -0.6323  0.6680  1.1059
   49CHL1  H23B 3613   4.528   1.087   8.302 -1.3538  0.7813 -2.4153
   49CHL1   C24 3614   4.351   1.055   8.425  0.1185  0.3117 -0.1624
   49CHL1  H24A 3615   4.290   1.143   8.396 -0.2197  0.5239  1.0914
   49CHL1  H24B 3616   4.277   0.973   8.441  1.1868 -0.9351 -1.4076
   49CHL1   C25 3617   4.423   1.087   8.556 -0.6188  0.0764  0.0607
   49CHL1   H25 3618   4.507   1.148   8.516  0.4971 -2.7352 -2.2782
   49CHL1   C26 3619   4.336   1.160   8.654 -0.7754 -0.5099  0.0605
   49CHL1  H26A 3620   4.404   1.209   8.727  0.9525 -1.7959 -0.6090
   49CHL1  H26B 3621   4.283   1.247   8.610  0.6532  0.5783  0.4020
   49CHL1  H26C 3622   4.268   1.095   8.712 -1.2562 -2.0822 -2.1482
   49CHL1   C27 3623   4.485   0.965   8.625  0.2019 -0.0595  0.7851
   49CHL1  H27A 3624   4.407   0.894   8.660 -0.3568  0.4414  0.5693
   49CHL1  H27B 3625   4.527   0.900   8.545  2.0652 -0.5391  2.0839
   49CHL1  H27C 3626   4.561   0.997   8.699  1.3050  1.8892 -1.0704
   50CHL1    C3 3627   4.402   3.173   7.175  0.5745  0.5250  0.5101
   50CHL1    H3 3628   4.344   3.267   7.185 -1.6687 -0.7319  0.1269
   50CHL1    O3 3629   4.473   3.185   7.060  1.0237 -0.2326  0.3171
   50CHL1   H3' 3630   4.493   3.279   7.064 -0.8398  0.1827  0.6820
   50CHL1    C4 3631   4.483   3.142   7.297  0.9939 -0.1085  0.2974
   50CHL1   H4A 3632   4.531   3.042   7.291  1.1851 -0.0293  0.5397
   50CHL1   H4B 3633   4.562   3.219   7.308  2.8778 -2.0796  1.5757
   50CHL1    C5 3634   4.387   3.129   7.418 -0.6663 -0.4514 -0.8279
   50CHL1    C6 3635   4.405   3.221   7.518  0.1008 -0.0612  0.6554
   50CHL1    H6 3636   4.492   3.288   7.515  0.1178 -0.1163 -1.3304
   50CHL1    C7 3637   4.316   3.232   7.644  0.2749  0.3714 -0.8484
   50CHL1   H7A 3638   4.381   3.232   7.734  0.1298 -1.4490 -0.6983
   50CHL1   H7B 3639   4.258   3.326   7.635  0.5265  0.4677 -1.5257
   50CHL1    C8 3640   4.223   3.107   7.650 -0.1673 -0.4769  0.4607
   50CHL1    H8 3641   4.290   3.028   7.689  0.4655  0.4741  1.3603
   50CHL1   C14 3642   4.118   3.143   7.747  0.1545 -0.1721 -0.4393
   50CHL1   H14 3643   4.054   3.221   7.701 -2.1408 -0.3178  2.2697
   50CHL1   C15 3644   4.169   3.188   7.888 -0.1217 -0.2181  0.0873
   50CHL1  H15A 3645   4.253   3.118   7.907 -0.1384 -0.2106  0.1917
   50CHL1  H15B 3646   4.215   3.289   7.892  2.0846 -1.0090 -2.3336
   50CHL1   C16 3647   4.054   3.151   7.986 -0.6562 -0.2394 -0.0591
   50CHL1  H16A 3648   4.101   3.082   8.059 -1.1299  1.8687  2.3895
   50CHL1  H16B 3649   4.012   3.239   8.039  1.9603 -0.2005  2.1605
   50CHL1   C17 3650   3.941   3.083   7.891  0.3058  0.0680 -0.8567
   50CHL1   H17 3651   3.883   3.171   7.855  1.3007  0.0843 -2.5583
   50CHL1   C13 3652   4.021   3.026   7.762 -0.9812  0.3112  0.3131
   50CHL1   C18 3653   4.094   2.901   7.820  0.5996 -0.1725 -0.1803
   50CHL1  H18A 3654   4.165   2.864   7.742  1.8505  1.5612  0.0809
   50CHL1  H18B 3655   4.160   2.927   7.906 -1.0532  0.3785  0.9718
   50CHL1  H18C 3656   4.023   2.820   7.843  1.8867 -1.2384  0.1752
   50CHL1   C12 3657   3.949   3.007   7.626 -0.1469 -0.3989 -0.9248
   50CHL1  H12A 3658   3.868   2.931   7.633  1.6988 -2.3316  1.0345
   50CHL1  H12B 3659   3.894   3.095   7.586 -1.4278 -0.1738  1.2236
   50CHL1   C11 3660   4.043   2.965   7.516  0.2641 -0.0839  0.3290
   50CHL1  H11A 3661   4.073   2.860   7.537  1.6056  0.3767  0.8690
   50CHL1  H11B 3662   3.986   2.970   7.421 -2.1060  1.0259  1.7234
   50CHL1    C9 3663   4.170   3.066   7.515  0.3640 -0.5935  0.1908
   50CHL1    H9 3664   4.118   3.161   7.489  1.2400  0.3390  1.6919
   50CHL1   C10 3665   4.273   3.028   7.409 -0.1685  0.0948  0.0924
   50CHL1   C19 3666   4.329   2.888   7.433 -0.8053  0.5613 -0.2074
   50CHL1  H19A 3667   4.390   2.887   7.526  0.4695  1.2455 -0.9956
   50CHL1  H19B 3668   4.243   2.818   7.428 -0.3390  0.0581 -2.3496
   50CHL1  H19C 3669   4.397   2.859   7.350 -0.2741  1.4099 -0.0867
   50CHL1    C1 3670   4.211   3.038   7.262  0.1888 -0.6867  0.6640
   50CHL1   H1A 3671   4.137   2.957   7.246  0.9496 -0.9193 -2.1838
   50CHL1   H1B 3672   4.157   3.135   7.271  1.4856  0.1613 -0.3635
   50CHL1    C2 3673   4.305   3.062   7.144 -0.0354  0.0018 -0.3455
   50CHL1   H2A 3674   4.244   3.070   7.051  1.8115  2.2411 -1.4611
   50CHL1   H2B 3675   4.359   2.965   7.143  1.3501  0.6918 -2.7122
   50CHL1   C20 3676   3.848   2.990   7.982 -1.0039  0.4240 -0.3902
   50CHL1   H20 3677   3.914   2.911   8.025 -1.8345 -0.1312 -0.1286
   50CHL1   C21 3678   3.737   2.928   7.889 -0.6310 -0.0006  0.1643
   50CHL1  H21A 3679   3.687   3.008   7.830  0.0111 -0.8574 -1.5863
   50CHL1  H21B 3680   3.661   2.875   7.951 -0.4917 -1.2166 -0.6738
   50CHL1  H21C 3681   3.788   2.856   7.822 -1.6538 -1.5039  0.9421
   50CHL1   C22 3682   3.783   3.067   8.104 -0.7912  0.1783 -0.5394
   50CHL1  H22A 3683   3.866   3.110   8.165 -1.3374 -0.0065  0.3501
   50CHL1  H22B 3684   3.714   3.142   8.060 -1.0122  0.7579  0.7533
   50CHL1   C23 3685   3.712   2.974   8.207  0.1435 -0.3538  0.8362
   50CHL1  H23A 3686   3.611   2.964   8.162  0.6768 -0.6229 -0.3447
   50CHL1  H23B 3687   3.757   2.873   8.210  1.6330  0.2368 -0.0188
   50CHL1   C24 3688   3.700   3.041   8.347  0.4997 -0.4485  0.4663
   50CHL1  H24A 3689   3.718   2.963   8.423 -2.9212 -0.6746  1.2055
   50CHL1  H24B 3690   3.782   3.113   8.365 -1.1982  1.3709  1.3791
   50CHL1   C25 3691   3.568   3.108   8.373 -0.1316  1.0443 -0.2446
   50CHL1   H25 3692   3.484   3.037   8.359  0.9200 -0.6630  1.5906
   50CHL1   C26 3693   3.553   3.153   8.523 -0.4047  0.7490 -0.4714
   50CHL1  H26A 3694   3.527   3.066   8.586  1.5803 -0.0679 -0.7117
   50CHL1  H26B 3695   3.644   3.212   8.548 -0.8709  0.7834  1.2545
   50CHL1  H26C 3696   3.473   3.230   8.533  0.2239  1.3233  0.2362
   50CHL1   C27 3697   3.561   3.233   8.288  0.6285 -0.1555 -0.5327
   50CHL1  H27A 3698   3.534   3.195   8.187 -0.2471 -2.3566  0.4695
   50CHL1  H27B 3699   3.470   3.289   8.316  2.7221  2.7108  1.1328
   50CHL1  H27C 3700   3.648   3.303   8.288 -1.2596  2.5978  4.0121
   51CHL1    C3 3701   0.701   1.052   7.090 -0.0182  0.6946  0.1926
   51CHL1    H3 3702   0.593   1.078   7.089 -0.2058 -0.0092  1.3120
   51CHL1    O3 3703   0.757   1.040   6.958 -0.3562  0.2437  0.2906
   51CHL1   H3' 3704   0.845   1.011   6.985 -0.5839  0.2150  1.0381
   51CHL1    C4 3705   0.772   1.165   7.172 -0.4580  0.2019  0.6179
   51CHL1   H4A 3706   0.880   1.145   7.154 -0.6128  0.0819 -0.2495
   51CHL1   H4B 3707   0.752   1.261   7.119 -1.2812  0.9820  2.2612
   51CHL1    C5 3708   0.736   1.170   7.315  0.1187  0.3814 -0.1571
   51CHL1    C6 3709   0.683   1.285   7.374 -1.0308  0.6265 -0.1531
   51CHL1    H6 3710   0.675   1.378   7.316  1.2813 -0.0461 -1.7184
   51CHL1    C7 3711   0.659   1.291   7.521  0.5100 -0.2868  0.0357
   51CHL1   H7A 3712   0.713   1.382   7.553 -0.7036  0.1901  0.7769
   51CHL1   H7B 3713   0.551   1.300   7.544  0.9249 -0.3323  2.2365
   51CHL1    C8 3714   0.707   1.179   7.608 -0.0486  0.1097 -0.0857
   51CHL1    H8 3715   0.815   1.194   7.632 -0.3304  1.0532  0.6748
   51CHL1   C14 3716   0.640   1.167   7.743 -0.4046 -0.5657 -0.1158
   51CHL1   H14 3717   0.531   1.149   7.735 -0.2003 -3.2005  1.7919
   51CHL1   C15 3718   0.646   1.293   7.827  0.6270 -0.1345  0.4893
   51CHL1  H15A 3719   0.743   1.347   7.815 -0.3615  1.8021  0.8490
   51CHL1  H15B 3720   0.567   1.364   7.794 -0.6138 -0.7997  1.9415
   51CHL1   C16 3721   0.626   1.246   7.967  0.0225  0.2517 -0.5254
   51CHL1  H16A 3722   0.713   1.273   8.031  1.3654 -3.4753 -0.5618
   51CHL1  H16B 3723   0.531   1.287   8.007  0.9627 -0.1794  2.3771
   51CHL1   C17 3724   0.606   1.095   7.953 -0.3293  0.4716 -0.0338
   51CHL1   H17 3725   0.499   1.081   7.927 -0.2101  0.1091 -0.3321
   51CHL1   C13 3726   0.681   1.053   7.832  0.3647  0.9722 -0.8460
   51CHL1   C18 3727   0.829   1.052   7.861  0.5466  0.0393 -0.3544
   51CHL1  H18A 3728   0.849   0.973   7.937 -3.9825 -1.6407 -0.6155
   51CHL1  H18B 3729   0.893   1.041   7.770  0.8977 -0.4199 -0.0616
   51CHL1  H18C 3730   0.858   1.151   7.902  1.1731 -0.6096  0.8244
   51CHL1   C12 3731   0.637   0.921   7.769 -0.5580  0.2196  0.3019
   51CHL1  H12A 3732   0.684   0.844   7.834 -1.1364 -1.0494 -0.7525
   51CHL1  H12B 3733   0.526   0.912   7.768 -0.5542 -0.5782 -2.8634
   51CHL1   C11 3734   0.706   0.919   7.627  0.5074 -0.0209  0.3086
   51CHL1  H11A 3735   0.813   0.893   7.640  0.2106 -2.5769 -1.6304
   51CHL1  H11B 3736   0.664   0.831   7.574 -1.0322 -0.2589  1.8357
   51CHL1    C9 3737   0.678   1.047   7.536 -0.6818  0.0114 -0.1555
   51CHL1    H9 3738   0.568   1.048   7.524 -0.6267  1.1306 -0.7082
   51CHL1   C10 3739   0.742   1.035   7.393  0.1779  0.1032 -0.5158
   51CHL1   C19 3740   0.891   1.006   7.413  0.1937  0.2817 -0.5052
   51CHL1  H19A 3741   0.943   0.989   7.316  0.7595 -0.9180 -0.0184
   51CHL1  H19B 3742   0.930   1.087   7.479  1.6177 -0.8160  0.0656
   51CHL1  H19C 3743   0.908   0.910   7.468  4.5047  1.1504  0.0207
   51CHL1    C1 3744   0.676   0.921   7.308 -0.6945 -0.4232  0.6119
   51CHL1   H1A 3745   0.687   0.822   7.356 -0.0274 -1.0037 -0.6945
   51CHL1   H1B 3746   0.567   0.943   7.313 -0.7179 -0.5725  0.7771
   51CHL1    C2 3747   0.721   0.918   7.162 -0.0923 -0.2864 -0.5042
   51CHL1   H2A 3748   0.658   0.846   7.105  1.2082  0.1936 -2.6805
   51CHL1   H2B 3749   0.825   0.883   7.149 -0.4200 -0.7594 -2.1998
   51CHL1   C20 3750   0.610   1.012   8.083  0.7213  0.2391 -0.4571
   51CHL1   H20 3751   0.620   0.903   8.064 -0.8771  0.0492 -0.3425
   51CHL1   C21 3752   0.468   1.025   8.154 -0.1890 -0.6930  0.0793
   51CHL1  H21A 3753   0.396   0.987   8.079 -0.0213  0.8449 -0.9034
   51CHL1  H21B 3754   0.452   1.132   8.181  0.9657 -0.4450 -0.1643
   51CHL1  H21C 3755   0.456   0.969   8.249  1.0159  0.6175  1.0560
   51CHL1   C22 3756   0.730   1.040   8.181  0.4930 -0.0278  0.3518
   51CHL1  H22A 3757   0.824   1.066   8.127 -0.9345 -0.5423 -2.5693
   51CHL1  H22B 3758   0.705   1.133   8.236  0.1857 -0.3518  0.7659
   51CHL1   C23 3759   0.752   0.929   8.293 -0.1363 -0.3387 -0.1485
   51CHL1  H23A 3760   0.671   0.922   8.370  1.1012 -0.7286  1.1709
   51CHL1  H23B 3761   0.757   0.834   8.236 -2.3538 -1.1384  0.8565
   51CHL1   C24 3762   0.887   0.947   8.363 -0.1198  0.5294  0.6614
   51CHL1  H24A 3763   0.969   0.993   8.305  0.1448  1.9322  2.0647
   51CHL1  H24B 3764   0.864   1.014   8.449 -1.1669  1.3919 -0.2604
   51CHL1   C25 3765   0.941   0.812   8.419  0.3688 -0.0147  0.2879
   51CHL1   H25 3766   0.896   0.743   8.344 -0.8623  1.3078 -0.2342
   51CHL1   C26 3767   1.095   0.796   8.410  0.3808  0.3151 -0.3617
   51CHL1  H26A 3768   1.119   0.688   8.423 -2.0657 -0.6648 -2.9310
   51CHL1  H26B 3769   1.130   0.821   8.308 -0.3373 -1.1174 -0.9868
   51CHL1  H26C 3770   1.140   0.864   8.485 -0.1707 -0.8483  1.0716
   51CHL1   C27 3771   0.890   0.776   8.560 -0.7791  0.0484  1.2898
   51CHL1  H27A 3772   0.916   0.673   8.591 -3.5404 -0.2638  2.8949
   51CHL1  H27B 3773   0.934   0.845   8.635 -0.9722  2.1526 -0.4264
   51CHL1  H27C 3774   0.780   0.792   8.561 -1.1687 -2.0664 -0.1597
   52CHL1    C3 3775   1.470   3.521   7.272  0.4243  0.7643 -0.0781
   52CHL1    H3 3776   1.517   3.420   7.278  0.3682  0.5792 -2.0887
   52CHL1    O3 3777   1.439   3.560   7.144 -0.5433  0.1036  0.2453
   52CHL1   H3' 3778   1.376   3.632   7.148  0.3501  1.0588 -1.5682
   52CHL1    C4 3779   1.335   3.516   7.343  0.0483  0.1534 -0.1699
   52CHL1   H4A 3780   1.282   3.613   7.326  1.1332  1.0298  1.1958
   52CHL1   H4B 3781   1.274   3.437   7.294 -0.1750  1.2327 -1.7287
   52CHL1    C5 3782   1.353   3.499   7.492 -0.7467  0.0797 -0.9351
   52CHL1    C6 3783   1.290   3.398   7.549 -0.5135  1.3665 -0.4614
   52CHL1    H6 3784   1.225   3.330   7.491 -1.1921 -1.0929  2.8232
   52CHL1    C7 3785   1.290   3.373   7.707  0.4994 -0.2689  0.6303
   52CHL1   H7A 3786   1.188   3.370   7.749 -0.6681  1.9725 -1.7790
   52CHL1   H7B 3787   1.333   3.271   7.717 -1.8412 -1.4898 -0.9802
   52CHL1    C8 3788   1.366   3.488   7.778  0.3451  0.6556 -0.6495
   52CHL1    H8 3789   1.298   3.574   7.795 -1.3226 -0.9487  1.6031
   52CHL1   C14 3790   1.417   3.435   7.914 -0.0954  0.1716  0.0705
   52CHL1   H14 3791   1.491   3.358   7.883  0.7910  0.9681  0.1463
   52CHL1   C15 3792   1.320   3.361   8.011 -0.0276  0.4029 -0.2344
   52CHL1  H15A 3793   1.224   3.417   8.012  0.4513  1.5684  4.6958
   52CHL1  H15B 3794   1.305   3.254   7.986  0.3964 -0.4288  2.6982
   52CHL1   C16 3795   1.376   3.357   8.147  0.1420  0.1784 -0.0810
   52CHL1  H16A 3796   1.302   3.406   8.214 -0.6290  2.1051 -2.2401
   52CHL1  H16B 3797   1.390   3.255   8.189  1.4542  0.8594  1.2561
   52CHL1   C17 3798   1.506   3.435   8.130 -0.0829 -0.0559  0.6045
   52CHL1   H17 3799   1.579   3.364   8.086 -1.5371 -0.1116 -1.9026
   52CHL1   C13 3800   1.493   3.531   8.002  0.0814 -1.2775  0.0588
   52CHL1   C18 3801   1.411   3.656   8.053 -0.0850  0.2179 -0.5744
   52CHL1  H18A 3802   1.484   3.724   8.101 -0.8105 -0.7881  2.0844
   52CHL1  H18B 3803   1.365   3.715   7.970 -0.6145  2.4288  1.2017
   52CHL1  H18C 3804   1.326   3.638   8.123 -0.1561 -0.5061 -0.8382
   52CHL1   C12 3805   1.619   3.576   7.929  0.1854 -0.6314 -0.4303
   52CHL1  H12A 3806   1.662   3.664   7.981 -1.4332 -0.0040 -0.1090
   52CHL1  H12B 3807   1.695   3.495   7.917 -1.4249 -1.9840 -2.0704
   52CHL1   C11 3808   1.582   3.635   7.790 -0.0574  0.7302  0.1865
   52CHL1  H11A 3809   1.531   3.733   7.801 -0.6097  0.4205  0.5078
   52CHL1  H11B 3810   1.675   3.658   7.735 -0.9520 -0.5975 -1.9922
   52CHL1    C9 3811   1.490   3.533   7.706 -0.2241 -0.0212 -0.3070
   52CHL1    H9 3812   1.552   3.446   7.676  1.7121  1.6890 -1.6320
   52CHL1   C10 3813   1.452   3.590   7.562  0.3535  0.4509  0.5117
   52CHL1   C19 3814   1.390   3.730   7.569  0.2983 -0.3721 -0.5000
   52CHL1  H19A 3815   1.461   3.795   7.623  1.1122 -1.8475  0.2528
   52CHL1  H19B 3816   1.374   3.774   7.468  0.9658 -0.7402 -0.7710
   52CHL1  H19C 3817   1.296   3.729   7.628 -0.1469 -2.0199 -1.1920
   52CHL1    C1 3818   1.581   3.596   7.479 -0.4281 -0.3720 -0.5190
   52CHL1   H1A 3819   1.655   3.665   7.525 -1.2249  0.2327 -0.1003
   52CHL1   H1B 3820   1.633   3.498   7.479  0.2254 -0.0427 -1.7917
   52CHL1    C2 3821   1.552   3.634   7.337 -0.6052  0.1234  0.4107
   52CHL1   H2A 3822   1.652   3.641   7.291 -0.2917  1.0788  1.1986
   52CHL1   H2B 3823   1.497   3.729   7.316  1.0874  0.7220 -1.7282
   52CHL1   C20 3824   1.574   3.505   8.257  0.2993  0.0732 -0.1979
   52CHL1   H20 3825   1.625   3.597   8.219  0.4903  0.1863  0.3263
   52CHL1   C21 3826   1.674   3.413   8.311  0.1068 -0.2362 -0.2257
   52CHL1  H21A 3827   1.636   3.320   8.359  1.3472 -0.0503  1.2250
   52CHL1  H21B 3828   1.740   3.458   8.389  0.3293 -1.7548  0.5129
   52CHL1  H21C 3829   1.743   3.385   8.229 -0.1157  0.7360 -0.7571
   52CHL1   C22 3830   1.478   3.541   8.375 -0.0933 -0.4535  0.0351
   52CHL1  H22A 3831   1.383   3.579   8.330 -0.8289 -2.4548 -0.2006
   52CHL1  H22B 3832   1.449   3.450   8.432 -0.2858 -1.9272 -2.2423
   52CHL1   C23 3833   1.528   3.654   8.456  0.2252 -0.3012 -0.6726
   52CHL1  H23A 3834   1.630   3.633   8.496  0.1080 -1.6789 -1.0585
   52CHL1  H23B 3835   1.534   3.743   8.389  1.1565 -0.0090 -0.2258
   52CHL1   C24 3836   1.424   3.696   8.560  0.0949 -0.0579  0.1170
   52CHL1  H24A 3837   1.327   3.710   8.508  0.1245 -0.1234  0.0441
   52CHL1  H24B 3838   1.411   3.611   8.630 -0.0764 -0.2654 -0.1657
   52CHL1   C25 3839   1.448   3.825   8.644 -0.2404 -1.0654 -0.6450
   52CHL1   H25 3840   1.350   3.840   8.693 -0.5249 -3.7705 -0.1994
   52CHL1   C26 3841   1.544   3.801   8.763 -0.1495  0.0655  0.8832
   52CHL1  H26A 3842   1.539   3.702   8.813 -1.9019 -1.5549 -2.2313
   52CHL1  H26B 3843   1.643   3.825   8.719 -0.6698 -1.1221 -1.0587
   52CHL1  H26C 3844   1.541   3.872   8.849 -3.0739 -1.8549  2.5562
   52CHL1   C27 3845   1.494   3.941   8.563  0.6940  0.0318  0.0942
   52CHL1  H27A 3846   1.597   3.930   8.524  1.5648  1.1987  1.9091
   52CHL1  H27B 3847   1.422   3.952   8.478  0.5066 -1.5078  0.0363
   52CHL1  H27C 3848   1.487   4.034   8.623 -2.8739  0.1692 -0.2919
   53CHL1    C3 3849   4.845   0.195   7.492 -0.4957 -0.3737  0.0482
   53CHL1    H3 3850   4.740   0.230   7.502  0.1522  1.7514 -0.0142
   53CHL1    O3 3851   4.878   0.204   7.356  0.0785  0.2617  0.2140
   53CHL1   H3' 3852   4.955   0.150   7.336  0.6157  1.5144 -1.2899
   53CHL1    C4 3853   4.942   0.277   7.580  0.0483 -0.4130  0.5377
   53CHL1   H4A 3854   5.042   0.236   7.556 -0.0014 -0.7554  0.9048
   53CHL1   H4B 3855   4.935   0.381   7.542  0.1050 -0.9829 -1.0949
   53CHL1    C5 3856   4.924   0.256   7.729 -0.2494 -0.2528 -0.2642
   53CHL1    C6 3857   4.900   0.360   7.808 -0.0505  0.8120 -0.1053
   53CHL1    H6 3858   4.899   0.463   7.768  1.1787  0.0281 -2.3659
   53CHL1    C7 3859   4.879   0.350   7.956  0.4686 -0.3468 -0.4805
   53CHL1   H7A 3860   4.942   0.426   8.008  0.9537 -0.8151 -0.3633
   53CHL1   H7B 3861   4.774   0.374   7.983  0.9123  0.5575  0.5386
   53CHL1    C8 3862   4.919   0.212   8.014  0.6698  0.3170 -0.1190
   53CHL1    H8 3863   5.029   0.206   8.025  0.8889 -3.8743 -2.4322
   53CHL1   C14 3864   4.863   0.193   8.155  0.2032 -0.2851 -0.1735
   53CHL1   H14 3865   4.752   0.190   8.150  0.0304 -0.9887  2.4956
   53CHL1   C15 3866   4.885   0.306   8.261 -0.4317  0.6573 -0.6294
   53CHL1  H15A 3867   4.991   0.332   8.276 -0.6610  0.6447  1.1357
   53CHL1  H15B 3868   4.825   0.395   8.232  0.0669  1.2329  0.0926
   53CHL1   C16 3869   4.838   0.235   8.384 -0.1749  0.1889 -0.1523
   53CHL1  H16A 3870   4.906   0.249   8.471 -1.2691 -0.7823  0.8903
   53CHL1  H16B 3871   4.743   0.274   8.424 -0.1750  0.5726 -0.5189
   53CHL1   C17 3872   4.824   0.083   8.352 -0.7902 -0.2894  0.4388
   53CHL1   H17 3873   4.716   0.068   8.333  0.0043 -3.1747 -2.6918
   53CHL1   C13 3874   4.900   0.060   8.225  0.7956  0.8558  0.1441
   53CHL1   C18 3875   5.058   0.044   8.248  0.2896 -0.2692 -0.0581
   53CHL1  H18A 3876   5.085  -0.050   8.300  0.0754 -0.5258 -0.4040
   53CHL1  H18B 3877   5.126   0.060   8.161 -0.3917  0.6383 -0.4468
   53CHL1  H18C 3878   5.077   0.125   8.322 -0.8123  0.3147 -0.3802
   53CHL1   C12 3879   4.841  -0.055   8.135  0.3377  0.5984 -0.3880
   53CHL1  H12A 3880   4.867  -0.154   8.178  1.4108  1.9812  2.3776
   53CHL1  H12B 3881   4.730  -0.044   8.134  0.3085  0.5245 -2.0659
   53CHL1   C11 3882   4.889  -0.045   7.988 -0.0050 -0.1853 -0.2245
   53CHL1  H11A 3883   4.999  -0.055   7.992  0.0273  0.0920 -0.3641
   53CHL1  H11B 3884   4.855  -0.124   7.918  2.0043 -0.3478 -1.0592
   53CHL1    C9 3885   4.873   0.098   7.922  0.4058  0.0590 -0.5748
   53CHL1    H9 3886   4.763   0.112   7.920 -0.4130 -4.3292  1.5023
   53CHL1   C10 3887   4.930   0.112   7.772  0.2052  0.2341 -0.4172
   53CHL1   C19 3888   5.071   0.056   7.772 -0.6459 -0.6915 -0.0731
   53CHL1  H19A 3889   5.113   0.059   7.669  1.7759 -1.1654  0.8379
   53CHL1  H19B 3890   5.134   0.118   7.840 -0.8529 -1.8179  1.1922
   53CHL1  H19C 3891   5.076  -0.049   7.808  0.0889 -0.4282  0.6253
   53CHL1    C1 3892   4.829   0.036   7.676  0.1758 -0.4872 -0.3374
   53CHL1   H1A 3893   4.826  -0.070   7.708  0.6701  0.4909  3.3272
   53CHL1   H1B 3894   4.731   0.084   7.698  0.4606 -0.6218  1.3236
   53CHL1    C2 3895   4.858   0.052   7.530  0.0769  0.0559  0.9657
   53CHL1   H2A 3896   4.781  -0.004   7.472 -0.7448  0.7833  1.3350
   53CHL1   H2B 3897   4.959   0.019   7.498 -0.5591  1.6396 -3.4353
   53CHL1   C20 3898   4.856  -0.006   8.473  0.0451 -0.1464 -0.4354
   53CHL1   H20 3899   4.965   0.010   8.488  0.4637 -0.7211 -2.5594
   53CHL1   C21 3900   4.840  -0.154   8.456 -0.3513  1.0401 -0.2529
   53CHL1  H21A 3901   4.908  -0.188   8.375 -0.9421 -0.4253 -0.1755
   53CHL1  H21B 3902   4.742  -0.191   8.420 -0.0297  0.2092 -0.2999
   53CHL1  H21C 3903   4.873  -0.220   8.540  0.9709  2.2633  0.2253
   53CHL1   C22 3904   4.779   0.036   8.603 -0.2881  0.1918  0.7617
   53CHL1  H22A 3905   4.790  -0.041   8.682  0.5627  0.3715  0.8290
   53CHL1  H22B 3906   4.827   0.132   8.635  0.3129  0.6485 -1.3615
   53CHL1   C23 3907   4.631   0.060   8.587  0.1099 -0.2673  0.2325
   53CHL1  H23A 3908   4.624   0.168   8.560  4.3830  0.1370  0.0667
   53CHL1  H23B 3909   4.593  -0.005   8.506 -0.5256  1.1493 -0.6366
   53CHL1   C24 3910   4.551   0.035   8.718 -0.3393  0.3021  0.2328
   53CHL1  H24A 3911   4.627  -0.010   8.786 -1.1655 -0.4530  0.6785
   53CHL1  H24B 3912   4.524   0.133   8.763  0.9336 -0.0511  1.8879
   53CHL1   C25 3913   4.425  -0.054   8.712 -0.4774 -0.6167  1.1279
   53CHL1   H25 3914   4.360  -0.004   8.637  1.1776 -0.2546 -0.1069
   53CHL1   C26 3915   4.457  -0.194   8.654  0.1505 -0.7153 -0.0445
   53CHL1  H26A 3916   4.493  -0.184   8.549 -0.8817  2.1413 -0.2332
   53CHL1  H26B 3917   4.527  -0.244   8.723 -0.6021 -0.6087  0.8205
   53CHL1  H26C 3918   4.364  -0.254   8.648 -1.5686  1.7843 -0.2769
   53CHL1   C27 3919   4.371  -0.061   8.856 -0.5642 -0.0614 -0.9717
   53CHL1  H27A 3920   4.278  -0.123   8.855 -0.9223  0.2153  2.6338
   53CHL1  H27B 3921   4.440  -0.116   8.924 -3.0356  0.7241  2.4889
   53CHL1  H27C 3922   4.357   0.042   8.895  1.7564  0.2240 -0.7465
   54CHL1    C3 3923   4.261   0.064   7.229  0.2704 -0.0098  0.5477
   54CHL1    H3 3924   4.155   0.052   7.258  0.1981  2.2195  1.4299
   54CHL1    O3 3925   4.284   0.082   7.088  0.5009 -0.2612  0.7035
   54CHL1   H3' 3926   4.349   0.015   7.067  0.9684 -0.1934  1.8666
   54CHL1    C4 3927   4.315   0.181   7.312  0.2602  0.2748  0.6604
   54CHL1   H4A 3928   4.422   0.177   7.282  0.2197 -3.4836  0.5977
   54CHL1   H4B 3929   4.269   0.278   7.282  0.5756  0.6128  1.2311
   54CHL1    C5 3930   4.295   0.149   7.455  0.6657 -0.4554  0.0230
   54CHL1    C6 3931   4.222   0.231   7.528 -0.3833  0.6698  0.5550
   54CHL1    H6 3932   4.184   0.326   7.488 -0.0254 -0.0032 -1.4889
   54CHL1    C7 3933   4.193   0.222   7.674 -0.7326 -0.7200 -0.5716
   54CHL1   H7A 3934   4.221   0.316   7.726 -1.1502 -1.3833  0.9195
   54CHL1   H7B 3935   4.091   0.199   7.711 -0.4166  0.3390  1.0688
   54CHL1    C8 3936   4.288   0.123   7.741 -0.0873  0.3831 -0.4258
   54CHL1    H8 3937   4.393   0.160   7.742  0.5107 -1.1633 -1.5326
   54CHL1   C14 3938   4.242   0.092   7.882  0.1221  0.2852  0.0663
   54CHL1   H14 3939   4.140   0.052   7.867  0.8820 -1.6650 -0.3109
   54CHL1   C15 3940   4.216   0.206   7.982  0.1419 -0.7244 -0.7936
   54CHL1  H15A 3941   4.311   0.263   7.985  1.2754 -2.5945  2.0196
   54CHL1  H15B 3942   4.134   0.272   7.946  0.3431 -1.2902 -2.3735
   54CHL1   C16 3943   4.196   0.130   8.112 -0.1104  0.8859 -0.5202
   54CHL1  H16A 3944   4.272   0.170   8.184 -1.3165  1.0811  0.6842
   54CHL1  H16B 3945   4.097   0.148   8.160 -0.3516 -1.3209 -0.0897
   54CHL1   C17 3946   4.225  -0.022   8.084  0.4464 -0.3150  0.1698
   54CHL1   H17 3947   4.128  -0.067   8.053  0.1971  1.1277 -1.2768
   54CHL1   C13 3948   4.307  -0.025   7.957  0.0466 -0.6322  0.8152
   54CHL1   C18 3949   4.458   0.012   7.987  0.4265 -0.2179 -0.0256
   54CHL1  H18A 3950   4.504   0.053   7.894  1.2914  0.1144  0.5326
   54CHL1  H18B 3951   4.471   0.084   8.071  0.4280 -0.9698  0.6330
   54CHL1  H18C 3952   4.519  -0.075   8.021 -0.2811 -0.5936  0.3004
   54CHL1   C12 3953   4.291  -0.143   7.867 -0.0458  0.1647 -0.2580
   54CHL1  H12A 3954   4.344  -0.232   7.908 -0.3134 -0.3752 -1.0582
   54CHL1  H12B 3955   4.183  -0.161   7.851 -0.0269  1.4704 -2.1394
   54CHL1   C11 3956   4.353  -0.121   7.732 -0.4037  0.0997  0.0107
   54CHL1  H11A 3957   4.462  -0.107   7.745 -0.2637  0.8222 -1.5721
   54CHL1  H11B 3958   4.345  -0.216   7.675 -3.1883 -0.5264  1.2607
   54CHL1    C9 3959   4.293  -0.011   7.660  0.7611 -0.0134 -0.2428
   54CHL1    H9 3960   4.184  -0.027   7.646  0.1683 -0.4803  3.6653
   54CHL1   C10 3961   4.351   0.014   7.515 -0.6678 -0.1057 -0.2018
   54CHL1   C19 3962   4.502   0.018   7.518 -0.0927  0.8552  0.2248
   54CHL1  H19A 3963   4.530   0.073   7.425 -1.9777  0.9956 -0.3147
   54CHL1  H19B 3964   4.530   0.067   7.613  0.0705  2.3111 -0.5586
   54CHL1  H19C 3965   4.545  -0.084   7.517 -2.1629 -0.1024 -1.5109
   54CHL1    C1 3966   4.309  -0.101   7.417  0.0232 -0.6776  0.4361
   54CHL1   H1A 3967   4.365  -0.193   7.444  0.3220 -0.0085  2.2088
   54CHL1   H1B 3968   4.200  -0.124   7.417 -0.1362  0.0566  0.6089
   54CHL1    C2 3969   4.335  -0.067   7.263  0.3929 -0.2989 -0.1244
   54CHL1   H2A 3970   4.300  -0.152   7.201  1.0031 -0.1808 -0.6389
   54CHL1   H2B 3971   4.442  -0.050   7.241  0.6429 -1.6580 -0.0540
   54CHL1   C20 3972   4.274  -0.099   8.206  0.2328  0.0165  0.5383
   54CHL1   H20 3973   4.380  -0.067   8.218  0.0184  0.7251  0.5922
   54CHL1   C21 3974   4.291  -0.257   8.176  0.2000 -0.4460  0.7097
   54CHL1  H21A 3975   4.193  -0.295   8.139  1.9863 -3.8078 -1.0075
   54CHL1  H21B 3976   4.311  -0.309   8.272 -1.7835 -0.9385  0.9027
   54CHL1  H21C 3977   4.367  -0.277   8.098 -2.0781 -0.8723 -1.5156
   54CHL1   C22 3978   4.195  -0.069   8.336 -0.4174  0.2108 -0.5608
   54CHL1  H22A 3979   4.259  -0.093   8.424  0.2822  0.4408 -0.9937
   54CHL1  H22B 3980   4.182   0.041   8.349 -1.1935  0.0929 -0.3022
   54CHL1   C23 3981   4.055  -0.129   8.342 -0.4481 -0.2343  0.1775
   54CHL1  H23A 3982   3.979  -0.088   8.272  1.2123  1.3502 -0.7794
   54CHL1  H23B 3983   4.055  -0.240   8.333 -2.7347 -0.1980 -1.1125
   54CHL1   C24 3984   4.008  -0.102   8.486 -0.1535 -0.8107 -0.3215
   54CHL1  H24A 3985   4.079  -0.153   8.555  0.0985  3.0580  2.6128
   54CHL1  H24B 3986   4.025   0.006   8.507 -1.6190 -0.3227 -1.5077
   54CHL1   C25 3987   3.863  -0.144   8.511 -0.3928  0.0871  0.4275
   54CHL1   H25 3988   3.811  -0.084   8.433 -0.6476 -3.2375 -2.2056
   54CHL1   C26 3989   3.841  -0.292   8.494 -0.0111  0.4903  0.0603
   54CHL1  H26A 3990   3.862  -0.335   8.394 -1.4409 -1.7850  0.6712
   54CHL1  H26B 3991   3.893  -0.346   8.576 -4.0729 -0.6323  2.1590
   54CHL1  H26C 3992   3.733  -0.317   8.505 -0.5389  2.5708  0.1024
   54CHL1   C27 3993   3.826  -0.099   8.651  0.4197  0.7918  0.3407
   54CHL1  H27A 3994   3.910  -0.129   8.717  0.2738  0.3628  0.3336
   54CHL1  H27B 3995   3.811   0.011   8.653 -1.6269  0.6174 -1.6827
   54CHL1  H27C 3996   3.737  -0.161   8.679  0.6176  0.4793  0.2768
   55CHL1    C3 3997   3.307   3.884   7.106 -0.0723  0.3568  0.6977
   55CHL1    H3 3998   3.297   3.778   7.072  0.7580  0.5290 -0.1271
   55CHL1    O3 3999   3.320   3.960   6.983  0.0159  0.0385 -0.2998
   55CHL1   H3' 4000   3.375   3.909   6.924  2.0833  1.6984  0.0765
   55CHL1    C4 4001   3.191   3.924   7.196  0.4196  0.0803  0.1048
   55CHL1   H4A 4002   3.203   4.028   7.234 -0.4345 -0.1320  0.9908
   55CHL1   H4B 4003   3.095   3.937   7.141 -0.2349 -3.3518  0.2057
   55CHL1    C5 4004   3.172   3.831   7.314 -0.1946  0.3944 -0.4243
   55CHL1    C6 4005   3.062   3.758   7.340 -0.1285  0.8121 -0.6696
   55CHL1    H6 4006   2.977   3.767   7.271 -1.1138  0.7946  0.5321
   55CHL1    C7 4007   3.042   3.685   7.466  0.0959  0.3750  0.1295
   55CHL1   H7A 4008   2.940   3.705   7.505  0.9030  0.3131  2.4196
   55CHL1   H7B 4009   3.051   3.580   7.432 -1.6806  1.1263 -3.0469
   55CHL1    C8 4010   3.146   3.723   7.567  0.6704  0.6902 -0.8416
   55CHL1    H8 4011   3.121   3.824   7.604 -1.3634 -0.4406  1.0984
   55CHL1   C14 4012   3.128   3.637   7.690 -0.3977 -0.0045  0.0070
   55CHL1   H14 4013   3.160   3.536   7.658  0.9095  0.2678  0.3917
   55CHL1   C15 4014   2.989   3.622   7.749 -0.3572 -0.0903 -0.8285
   55CHL1  H15A 4015   2.958   3.729   7.754 -0.6870  0.1344 -4.5373
   55CHL1  H15B 4016   2.913   3.567   7.689 -1.4151  0.1505  0.2489
   55CHL1   C16 4017   3.018   3.557   7.887 -0.2396 -0.6809 -0.2313
   55CHL1  H16A 4018   2.976   3.608   7.975  0.1139 -1.1674  0.2279
   55CHL1  H16B 4019   2.986   3.450   7.879  2.8963 -1.6295 -1.6948
   55CHL1   C17 4020   3.169   3.558   7.903 -0.6145  0.0405 -0.1529
   55CHL1   H17 4021   3.205   3.464   7.858 -2.4874 -2.0568  2.4196
   55CHL1   C13 4022   3.226   3.660   7.803  0.6276 -0.0580 -0.0785
   55CHL1   C18 4023   3.207   3.807   7.860  0.6562 -0.4334  0.2127
   55CHL1  H18A 4024   3.219   3.885   7.782 -1.9581 -1.2659 -1.1474
   55CHL1  H18B 4025   3.107   3.823   7.907  0.9164  2.5409 -0.0916
   55CHL1  H18C 4026   3.288   3.835   7.931 -0.0583 -1.5921  1.5484
   55CHL1   C12 4027   3.364   3.628   7.752 -0.0131 -0.6555  0.9971
   55CHL1  H12A 4028   3.439   3.654   7.830 -0.2865  1.0556  0.7442
   55CHL1  H12B 4029   3.380   3.525   7.715 -4.8362 -0.8049 -1.4969
   55CHL1   C11 4030   3.394   3.727   7.635 -0.1950  0.8318 -0.0257
   55CHL1  H11A 4031   3.397   3.830   7.676  1.2282  1.1207 -0.7842
   55CHL1  H11B 4032   3.496   3.705   7.596 -0.6029  0.0203 -0.6845
   55CHL1    C9 4033   3.284   3.728   7.519  0.5220 -0.2911 -0.6826
   55CHL1    H9 4034   3.305   3.631   7.470  0.9939 -0.1463 -0.7693
   55CHL1   C10 4035   3.297   3.834   7.408 -0.3328 -0.0595 -0.0160
   55CHL1   C19 4036   3.324   3.972   7.469  0.4970 -0.4754 -0.0835
   55CHL1  H19A 4037   3.261   3.972   7.561 -0.8263  0.4130 -0.9520
   55CHL1  H19B 4038   3.423   3.988   7.516  0.6695 -2.2083  0.1841
   55CHL1  H19C 4039   3.294   4.065   7.416 -1.8660  0.5350  2.7517
   55CHL1    C1 4040   3.423   3.801   7.317  0.8102  0.2604  0.2416
   55CHL1   H1A 4041   3.515   3.824   7.374 -0.4798 -0.8132  2.9098
   55CHL1   H1B 4042   3.429   3.692   7.294 -1.2242  0.1386  0.1379
   55CHL1    C2 4043   3.435   3.893   7.191 -0.8356 -0.4572 -0.7331
   55CHL1   H2A 4044   3.523   3.863   7.129  0.9894  0.3000  1.3466
   55CHL1   H2B 4045   3.457   3.999   7.213 -0.0645 -0.1691 -2.6870
   55CHL1   C20 4046   3.218   3.555   8.051 -0.1884 -1.2615 -0.4721
   55CHL1   H20 4047   3.191   3.653   8.095 -1.2690 -1.3909 -0.8148
   55CHL1   C21 4048   3.373   3.554   8.075  1.0129  0.0213  0.2039
   55CHL1  H21A 4049   3.390   3.541   8.184 -0.5411  2.1208  0.7671
   55CHL1  H21B 4050   3.408   3.654   8.042  0.3606 -0.2500 -1.4097
   55CHL1  H21C 4051   3.434   3.481   8.017 -0.8351 -1.5053  0.1120
   55CHL1   C22 4052   3.144   3.440   8.123 -0.1447 -0.5253 -0.4959
   55CHL1  H22A 4053   3.036   3.448   8.101 -0.5719 -2.2692  0.8197
   55CHL1  H22B 4054   3.183   3.351   8.069  4.1800 -0.9080  2.6536
   55CHL1   C23 4055   3.182   3.425   8.271 -0.1003  0.1240  0.8440
   55CHL1  H23A 4056   3.283   3.378   8.273 -1.0149 -2.0479 -0.7535
   55CHL1  H23B 4057   3.165   3.523   8.322 -0.2604  0.2689  0.5145
   55CHL1   C24 4058   3.109   3.320   8.357  0.1366 -0.3853 -0.4314
   55CHL1  H24A 4059   3.154   3.314   8.459  0.5037 -2.7789 -0.6578
   55CHL1  H24B 4060   3.007   3.361   8.372  0.5809  0.5202  0.1674
   55CHL1   C25 4061   3.096   3.182   8.290 -0.2442 -0.0516  0.5183
   55CHL1   H25 4062   3.194   3.160   8.241 -0.2675 -0.2362  0.5516
   55CHL1   C26 4063   3.078   3.076   8.392  0.8298 -0.5176  0.6827
   55CHL1  H26A 4064   3.145   3.099   8.478  0.7785 -0.5315  0.7258
   55CHL1  H26B 4065   2.979   3.078   8.443  0.7202  0.1670  0.4449
   55CHL1  H26C 4066   3.090   2.977   8.344  2.3297  0.3589 -0.8454
   55CHL1   C27 4067   2.983   3.173   8.184  0.8741  0.1238 -0.2044
   55CHL1  H27A 4068   3.001   3.084   8.120  0.4242  0.7051 -1.1568
   55CHL1  H27B 4069   2.881   3.169   8.230 -0.3719  1.3318 -2.6736
   55CHL1  H27C 4070   2.968   3.260   8.117 -1.6159  0.8524  1.1605
   56CHL1    C3 4071   3.786   4.642   7.000 -0.7767  0.0582 -0.2001
   56CHL1    H3 4072   3.822   4.539   7.018  0.2987 -0.0014 -2.3597
   56CHL1    O3 4073   3.799   4.676   6.864  0.0809 -0.2311  0.1395
   56CHL1   H3' 4074   3.868   4.620   6.826 -0.5309 -1.3440  0.6417
   56CHL1    C4 4075   3.649   4.669   7.055  1.1939  0.0801 -0.1048
   56CHL1   H4A 4076   3.610   4.772   7.040 -3.3203 -1.2267  1.3445
   56CHL1   H4B 4077   3.573   4.610   6.999  2.4151 -1.0314 -0.6443
   56CHL1    C5 4078   3.643   4.641   7.207 -0.3752 -0.1416  0.4401
   56CHL1    C6 4079   3.557   4.557   7.258 -0.3607  0.9401  0.3000
   56CHL1    H6 4080   3.484   4.500   7.200  1.0258  0.0149 -0.6067
   56CHL1    C7 4081   3.539   4.529   7.403 -0.0968 -0.5987 -0.8129
   56CHL1   H7A 4082   3.433   4.510   7.432 -0.2924 -0.8379 -1.6590
   56CHL1   H7B 4083   3.585   4.433   7.432 -0.7830 -1.0206 -1.0825
   56CHL1    C8 4084   3.611   4.638   7.491  0.1560 -0.9555  0.6574
   56CHL1    H8 4085   3.544   4.726   7.495 -3.1267 -3.2279 -0.3480
   56CHL1   C14 4086   3.630   4.582   7.625  0.0117 -0.4519  0.2396
   56CHL1   H14 4087   3.702   4.498   7.613 -0.6902 -0.7477 -2.4722
   56CHL1   C15 4088   3.509   4.524   7.699  0.3128 -0.1988 -0.5597
   56CHL1  H15A 4089   3.417   4.585   7.684 -0.2722 -0.6213  1.1889
   56CHL1  H15B 4090   3.485   4.421   7.666 -1.6902  0.3019 -0.7864
   56CHL1   C16 4091   3.556   4.524   7.852 -0.0396  0.0803  0.2563
   56CHL1  H16A 4092   3.471   4.570   7.906 -2.0569 -2.9769 -0.0285
   56CHL1  H16B 4093   3.562   4.420   7.890 -1.2771  0.1091  0.5847
   56CHL1   C17 4094   3.690   4.594   7.860 -0.3426 -0.6954 -0.0094
   56CHL1   H17 4095   3.764   4.511   7.850 -0.8357 -1.1154 -0.1997
   56CHL1   C13 4096   3.702   4.672   7.725  0.0134  0.9507 -0.1978
   56CHL1   C18 4097   3.624   4.814   7.733 -0.2157 -0.0072  0.1579
   56CHL1  H18A 4098   3.689   4.875   7.799 -2.7353  0.8882  1.9492
   56CHL1  H18B 4099   3.618   4.874   7.639  1.8029 -0.5696 -0.4009
   56CHL1  H18C 4100   3.525   4.795   7.777 -0.7712 -0.9304 -1.4075
   56CHL1   C12 4101   3.840   4.708   7.677  0.0097  0.1205 -0.5325
   56CHL1  H12A 4102   3.883   4.781   7.749  0.5186 -0.7898  0.1104
   56CHL1  H12B 4103   3.902   4.616   7.683  1.5981  1.2244  1.2822
   56CHL1   C11 4104   3.834   4.769   7.534  0.5421 -0.4118  0.1977
   56CHL1  H11A 4105   3.795   4.873   7.537  0.5490 -0.4217  0.7508
   56CHL1  H11B 4106   3.936   4.789   7.495  0.0878  1.5072 -0.1046
   56CHL1    C9 4107   3.755   4.673   7.439 -0.2013  0.2238 -0.2376
   56CHL1    H9 4108   3.802   4.572   7.441 -1.2252 -0.2570  0.4619
   56CHL1   C10 4109   3.743   4.721   7.290  0.3681 -0.4171  0.3159
   56CHL1   C19 4110   3.709   4.872   7.292  0.1852  0.2456  0.3077
   56CHL1  H19A 4111   3.794   4.930   7.335  1.5125 -2.1427  1.0580
   56CHL1  H19B 4112   3.694   4.915   7.191  0.1989 -1.0278 -0.2436
   56CHL1  H19C 4113   3.616   4.896   7.349 -0.8670  0.4966 -1.4366
   56CHL1    C1 4114   3.890   4.705   7.235  0.2113  0.2864  0.1346
   56CHL1   H1A 4115   3.958   4.771   7.292  1.1928 -0.1704 -0.4884
   56CHL1   H1B 4116   3.931   4.603   7.255 -0.4441 -0.4211 -1.8419
   56CHL1    C2 4117   3.892   4.724   7.081  0.3147 -0.3569  0.1612
   56CHL1   H2A 4118   3.997   4.709   7.048  0.0906  0.0472 -0.7646
   56CHL1   H2B 4119   3.871   4.831   7.060  0.0981 -0.1608  1.3186
   56CHL1   C20 4120   3.723   4.667   7.993 -0.0833 -0.2817  0.3303
   56CHL1   H20 4121   3.796   4.745   7.963  0.0621 -1.0864 -1.5365
   56CHL1   C21 4122   3.803   4.578   8.091  0.4304 -0.1400 -0.4685
   56CHL1  H21A 4123   3.897   4.555   8.037  0.7341  0.6008 -0.2670
   56CHL1  H21B 4124   3.752   4.480   8.096 -0.1016  0.0956 -1.1111
   56CHL1  H21C 4125   3.815   4.611   8.196  3.1404 -1.7058 -0.2106
   56CHL1   C22 4126   3.603   4.742   8.072 -0.2387  0.0350 -0.4093
   56CHL1  H22A 4127   3.512   4.754   8.009  1.2331 -1.0834 -2.8798
   56CHL1  H22B 4128   3.570   4.660   8.139 -1.2951 -1.3168 -2.4828
   56CHL1   C23 4129   3.649   4.877   8.137 -0.1245  0.3737 -0.1786
   56CHL1  H23A 4130   3.741   4.846   8.191 -0.5302 -0.5664 -0.0026
   56CHL1  H23B 4131   3.686   4.943   8.056  1.5814 -1.2579 -0.8111
   56CHL1   C24 4132   3.542   4.957   8.219 -0.2833  0.5949 -0.0911
   56CHL1  H24A 4133   3.463   4.993   8.149 -0.6512  1.9745  0.9866
   56CHL1  H24B 4134   3.504   4.876   8.285  1.9319 -1.1657 -0.8423
   56CHL1   C25 4135   3.606   5.068   8.304 -0.2925 -0.2971 -0.2974
   56CHL1   H25 4136   3.695   5.032   8.359 -1.8868 -0.9941  1.9558
   56CHL1   C26 4137   3.636   5.195   8.223 -0.4062  0.1441 -0.2544
   56CHL1  H26A 4138   3.716   5.186   8.147  0.2021 -0.3396  0.4284
   56CHL1  H26B 4139   3.652   5.274   8.299 -2.4876 -2.7134  3.4824
   56CHL1  H26C 4140   3.547   5.219   8.161 -0.2793 -2.0979 -1.4180
   56CHL1   C27 4141   3.507   5.115   8.409 -0.2197 -0.4969 -0.4785
   56CHL1  H27A 4142   3.569   5.152   8.494  1.2578 -0.3110 -1.5862
   56CHL1  H27B 4143   3.453   5.205   8.373  1.2935 -0.0861 -1.8727
   56CHL1  H27C 4144   3.440   5.038   8.452 -0.7504  0.0416 -0.3296
   57SAPC     N 4145   5.775   2.344  11.385 -0.7617  0.0788 -0.2155
   57SAPC   C12 4146   5.774   2.425  11.258 -0.0218  0.8000  0.6813
   57SAPC  H12A 4147   5.853   2.498  11.260 -0.5285  1.4054 -0.2707
   57SAPC  H12B 4148   5.683   2.484  11.262 -1.2174 -0.7516 -1.3524
   57SAPC   C13 4149   5.886   2.246  11.390  0.2786  0.4487  0.7413
   57SAPC  H13A 4150   5.861   2.185  11.475 -1.0773 -0.1742 -0.0675
   57SAPC  H13B 4151   5.896   2.201  11.292 -1.0416  1.0095  0.3169
   57SAPC  H13C 4152   5.982   2.295  11.391  2.2020 -2.7766 -2.2397
   57SAPC   C14 4153   5.794   2.437  11.500  0.3033 -0.2752 -0.2225
   57SAPC  H14A 4154   5.771   2.381  11.589  1.4355 -0.8504 -0.2681
   57SAPC  H14B 4155   5.897   2.471  11.501 -0.0343  0.9655 -2.1614
   57SAPC  H14C 4156   5.739   2.530  11.504  1.4348  0.4386 -0.6906
   57SAPC   C15 4157   5.646   2.282  11.393  0.8021  0.3586  0.0442
   57SAPC  H15A 4158   5.565   2.344  11.358 -0.1856 -1.1511 -0.4841
   57SAPC  H15B 4159   5.638   2.191  11.334  0.3740  0.5464 -0.1947
   57SAPC  H15C 4160   5.630   2.243  11.492 -0.2372 -2.3767 -1.0843
   57SAPC   C11 4161   5.778   2.345  11.123  0.1700  0.0913 -0.2508
   57SAPC  H11A 4162   5.855   2.265  11.119  0.6374  0.3286  2.1545
   57SAPC  H11B 4163   5.813   2.409  11.039 -0.2545 -1.0785 -1.3464
   57SAPC     P 4164   5.566   2.302  10.959  0.1567 -0.3822  0.2902
   57SAPC   O13 4165   5.480   2.184  10.949  0.6287  0.1019  0.2954
   57SAPC   O14 4166   5.505   2.434  10.961  0.1407  0.2975  0.1454
   57SAPC   O12 4167   5.657   2.283  11.086 -0.0972  0.0964  0.0707
   57SAPC   O11 4168   5.671   2.298  10.847 -0.0726 -0.2115 -0.3616
   57SAPC    C1 4169   5.672   2.352  10.719 -0.6673 -0.0297  0.8792
   57SAPC    HA 4170   5.582   2.409  10.688 -0.8654 -0.0200  1.4655
   57SAPC    HB 4171   5.756   2.424  10.706 -2.0766  1.2318 -2.1268
   57SAPC    C2 4172   5.679   2.237  10.604 -0.3020 -0.6898 -0.4457
   57SAPC    HS 4173   5.784   2.204  10.613  0.4587  1.2310 -1.6145
   57SAPC   O21 4174   5.644   2.289  10.477 -0.1185 -0.0504  0.6940
   57SAPC   C21 4175   5.748   2.347  10.412  0.2650 -0.3296  0.8608
   57SAPC   O22 4176   5.856   2.364  10.459  0.2246  0.1322 -0.1041
   57SAPC   C22 4177   5.691   2.405  10.284 -0.3327  0.0862  0.1553
   57SAPC   H2R 4178   5.663   2.332  10.205 -0.0094  0.7312 -0.5638
   57SAPC   H2S 4179   5.598   2.462  10.309  0.0637  0.9523 -0.3075
   57SAPC    C3 4180   5.593   2.115  10.633  0.7333 -0.1101 -0.0890
   57SAPC    HX 4181   5.485   2.143  10.634  0.2498 -1.6572  2.6822
   57SAPC    HY 4182   5.609   2.084  10.739  1.7616  0.1828 -0.1521
   57SAPC   O31 4183   5.613   2.013  10.530 -0.2814 -0.0531 -0.4163
   57SAPC   C31 4184   5.556   1.897  10.557 -0.2430  0.0137 -0.1147
   57SAPC   O32 4185   5.495   1.874  10.662 -0.4039  0.2328 -0.5149
   57SAPC   C32 4186   5.594   1.793  10.448 -0.4732  0.6631  0.0078
   57SAPC   H2X 4187   5.506   1.727  10.435 -1.5634  2.0528  0.1002
   57SAPC   H2Y 4188   5.664   1.727  10.503 -0.6772 -0.4116 -0.9834
   57SAPC   C23 4189   5.780   2.511  10.211  0.1330  0.5316 -0.9464
   57SAPC   H3R 4190   5.798   2.591  10.285 -0.7159  1.2475 -1.4899
   57SAPC   H3S 4191   5.700   2.557  10.149 -2.8740  1.6013  3.2833
   57SAPC   C24 4192   5.905   2.450  10.145 -0.8556 -0.0393 -0.2474
   57SAPC   H4R 4193   5.864   2.378  10.071 -1.2248  0.1671 -0.2491
   57SAPC   H4S 4194   5.958   2.399  10.228  0.1624  2.9082  1.0530
   57SAPC   C25 4195   5.998   2.557  10.090 -0.2803 -0.1448  0.1433
   57SAPC   H5R 4196   6.071   2.605  10.157 -1.1145  0.1132  0.8861
   57SAPC   C26 4197   5.992   2.601   9.962  0.1689 -0.7148 -0.1146
   57SAPC   H6R 4198   6.050   2.690   9.934 -1.0434  0.5082  1.1201
   57SAPC   C27 4199   5.885   2.563   9.862 -0.6735  0.1090 -0.2203
   57SAPC   H7R 4200   5.791   2.557   9.921  0.5823 -3.5443  1.7075
   57SAPC   H7S 4201   5.894   2.461   9.821  2.2130  0.1030  0.2270
   57SAPC   C28 4202   5.867   2.660   9.743 -0.4863  0.7021 -0.1174
   57SAPC   H8R 4203   5.806   2.748   9.768 -2.1494 -0.6862  0.9970
   57SAPC   C29 4204   5.909   2.626   9.618  0.9420 -0.3415 -0.5795
   57SAPC   H9R 4205   5.900   2.696   9.533  0.0117  0.7206  0.3674
   57SAPC  C210 4206   5.974   2.501   9.580 -0.2046 -0.1112  0.0347
   57SAPC  H10R 4207   5.886   2.438   9.554 -0.3583  1.2070 -2.9509
   57SAPC  H10S 4208   6.024   2.455   9.669  1.2564  2.0993  0.4381
   57SAPC  C211 4209   6.066   2.507   9.461  0.0856  0.0159 -0.4943
   57SAPC  H11R 4210   6.169   2.535   9.491  0.0231 -1.8379  1.8380
   57SAPC  C212 4211   6.035   2.482   9.334 -0.6574  0.0328 -0.4048
   57SAPC  H12R 4212   6.114   2.491   9.257 -1.9030  1.4096 -1.5771
   57SAPC  C213 4213   5.907   2.433   9.275  0.0257 -0.4515  0.2538
   57SAPC  H13R 4214   5.893   2.509   9.195  1.7149 -0.9166 -0.5150
   57SAPC  H13S 4215   5.824   2.440   9.349  1.9687 -0.2424  2.5167
   57SAPC  C214 4216   5.929   2.292   9.224  0.3565  0.1062 -0.2307
   57SAPC  H14R 4217   5.896   2.211   9.290  0.0692  1.2662  1.1063
   57SAPC  C215 4218   5.972   2.259   9.102 -0.2754 -0.2566  0.1515
   57SAPC  H15R 4219   5.985   2.154   9.069 -0.2341 -0.0648 -0.4663
   57SAPC  C216 4220   6.000   2.359   8.988  0.7845  0.1793 -0.0624
   57SAPC  H16R 4221   6.008   2.466   9.016  2.3748  0.1247 -0.1901
   57SAPC  H16S 4222   5.917   2.349   8.915  1.3988  0.7216 -0.8583
   57SAPC  C217 4223   6.141   2.351   8.939 -0.1249  0.7384 -1.0849
   57SAPC  H17R 4224   6.150   2.245   8.905  0.4738  0.4603 -0.0767
   57SAPC  H17S 4225   6.208   2.364   9.026 -0.5241 -2.8060 -0.0971
   57SAPC  C218 4226   6.185   2.436   8.823  0.0517 -0.3155 -0.2102
   57SAPC  H18R 4227   6.177   2.539   8.862 -2.1957 -0.5319  0.0477
   57SAPC  H18S 4228   6.115   2.435   8.737  0.4227 -0.7864 -0.5139
   57SAPC  C219 4229   6.330   2.417   8.769 -0.4822  0.0310 -0.6513
   57SAPC  H19R 4230   6.389   2.402   8.862 -1.7999  3.1860  0.8731
   57SAPC  H19S 4231   6.363   2.514   8.725 -1.1409  0.5967  0.0665
   57SAPC  C220 4232   6.354   2.300   8.664 -0.1210 -0.3185 -0.0321
   57SAPC  H20R 4233   6.347   2.200   8.713  1.4872  0.1652  1.2925
   57SAPC  H20S 4234   6.456   2.318   8.623  0.6132  2.0134  2.4859
   57SAPC  H20T 4235   6.273   2.306   8.589 -0.3007 -0.3631  0.1567
   57SAPC   C33 4236   5.645   1.849  10.317  0.0223 -0.3242  0.4944
   57SAPC   H3X 4237   5.743   1.893  10.342 -0.2718 -0.1001  1.3077
   57SAPC   H3Y 4238   5.573   1.921  10.271 -0.3126 -1.5837 -1.0284
   57SAPC   C34 4239   5.669   1.754  10.195  0.5087 -0.3090  0.1614
   57SAPC   H4X 4240   5.577   1.700  10.166 -0.7556  2.6577 -1.8615
   57SAPC   H4Y 4241   5.752   1.691  10.236  2.5067  1.9419 -0.1971
   57SAPC   C35 4242   5.702   1.818  10.061 -0.1629  0.5137 -0.3161
   57SAPC   H5X 4243   5.802   1.864  10.075 -0.6569  1.2256  1.0863
   57SAPC   H5Y 4244   5.634   1.902  10.038 -0.0259  1.5792  2.7264
   57SAPC   C36 4245   5.702   1.721   9.943 -0.7702  0.0376  0.2631
   57SAPC   H6X 4246   5.613   1.656   9.934 -0.3255 -0.5842  0.2394
   57SAPC   H6Y 4247   5.792   1.660   9.966  2.0152  3.7225  0.0438
   57SAPC   C37 4248   5.731   1.800   9.819  0.6629 -0.3568  0.5007
   57SAPC   H7X 4249   5.813   1.872   9.838  1.7614 -1.9770  2.2525
   57SAPC   H7Y 4250   5.645   1.869   9.803  0.5891 -0.8237 -1.3725
   57SAPC   C38 4251   5.745   1.714   9.691 -0.6447 -0.3505  0.1176
   57SAPC   H8X 4252   5.660   1.645   9.672  1.2155 -2.5604 -0.5819
   57SAPC   H8Y 4253   5.834   1.648   9.700 -1.0641 -1.0266 -0.5866
   57SAPC   C39 4254   5.766   1.803   9.566 -0.1571  0.1212 -0.0285
   57SAPC   H9X 4255   5.868   1.845   9.583  0.7401 -2.1516  0.5870
   57SAPC   H9Y 4256   5.688   1.881   9.558 -1.0657 -0.5989  1.3407
   57SAPC  C310 4257   5.771   1.723   9.441  0.5822 -0.0844  0.8343
   57SAPC  H10X 4258   5.690   1.647   9.437  2.5092 -2.2839  0.8747
   57SAPC  H10Y 4259   5.863   1.661   9.447 -0.6444 -1.8807  2.0370
   57SAPC  C311 4260   5.772   1.811   9.317  0.4473 -0.5562  0.4228
   57SAPC  H11X 4261   5.859   1.879   9.322 -0.3409  0.5406 -0.3979
   57SAPC  H11Y 4262   5.689   1.882   9.334  1.1091  0.5945 -1.0235
   57SAPC  C312 4263   5.759   1.740   9.175 -1.1207 -0.0492 -1.1153
   57SAPC  H12X 4264   5.676   1.667   9.182  0.6024 -2.3355 -2.8465
   57SAPC  H12Y 4265   5.846   1.671   9.169  0.6026  1.7653  1.2313
   57SAPC  C313 4266   5.743   1.825   9.046  0.8148 -0.0149  0.4784
   57SAPC  H13X 4267   5.813   1.911   9.045 -1.8086  2.2822  0.3903
   57SAPC  H13Y 4268   5.641   1.870   9.045  1.3847  1.3198 -0.0789
   57SAPC  C314 4269   5.778   1.750   8.918 -0.1075  0.7971 -0.3563
   57SAPC  H14X 4270   5.853   1.669   8.929 -0.5619  0.2567 -1.1094
   57SAPC  H14Y 4271   5.814   1.829   8.848 -1.0609  1.6035  0.0286
   57SAPC  C315 4272   5.648   1.688   8.863 -0.7564 -0.5502  0.7167
   57SAPC  H15X 4273   5.572   1.768   8.852 -1.2742 -0.9023  1.6492
   57SAPC  H15Y 4274   5.604   1.622   8.941  1.2645 -1.9270  0.7757
   57SAPC  C316 4275   5.674   1.609   8.738  0.7385 -0.1233 -0.1199
   57SAPC  H16X 4276   5.599   1.528   8.736  0.8168 -0.2552  1.2483
   57SAPC  H16Y 4277   5.767   1.549   8.747  0.0009 -1.1993  0.4912
   57SAPC  C317 4278   5.670   1.682   8.600  0.0100 -0.2243  0.0103
   57SAPC  H17X 4279   5.744   1.764   8.607  0.5110 -0.7560  1.6502
   57SAPC  H17Y 4280   5.571   1.727   8.576  0.9492  1.3045 -1.1477
   57SAPC  C318 4281   5.698   1.593   8.484  0.1546  0.2038 -0.5807
   57SAPC  H18X 4282   5.699   1.645   8.386 -0.4312 -2.8753 -2.3099
   57SAPC  H18Y 4283   5.618   1.517   8.484  1.9873 -1.8123  0.1724
   57SAPC  H18Z 4284   5.792   1.537   8.505  0.3824  0.2276 -1.5166
   58SAPC     N 4285   0.365   0.221  10.847 -0.4944  0.6893 -0.3775
   58SAPC   C12 4286   0.464   0.204  10.962 -0.2137 -0.2335  0.1655
   58SAPC  H12A 4287   0.539   0.282  10.954  1.1158 -1.4003  0.9319
   58SAPC  H12B 4288   0.521   0.114  10.947  0.8785  0.4323  0.2025
   58SAPC   C13 4289   0.258   0.119  10.871  0.2660  0.2140 -0.5835
   58SAPC  H13A 4290   0.191   0.116  10.787 -0.9319 -0.6134  0.3756
   58SAPC  H13B 4291   0.297   0.019  10.888  0.3868  0.2874 -0.4230
   58SAPC  H13C 4292   0.196   0.148  10.954  0.3511  3.0163 -1.4162
   58SAPC   C14 4293   0.290   0.351  10.853 -0.2395 -0.6942  0.6461
   58SAPC  H14A 4294   0.200   0.351  10.794  0.4577  0.7797 -0.4939
   58SAPC  H14B 4295   0.259   0.380  10.952 -1.1433  1.6292 -0.2395
   58SAPC  H14C 4296   0.352   0.431  10.814  1.8807 -2.7871 -0.4996
   58SAPC   C15 4297   0.432   0.196  10.715  0.3851  0.2432 -0.3497
   58SAPC  H15A 4298   0.437   0.089  10.706  0.5972  0.2373 -0.1700
   58SAPC  H15B 4299   0.359   0.236  10.645  0.8711  2.0423  0.1049
   58SAPC  H15C 4300   0.528   0.242  10.696  1.1937  0.0483  2.7705
   58SAPC   C11 4301   0.404   0.205  11.103 -0.6727 -0.3211 -0.1675
   58SAPC  H11A 4302   0.338   0.117  11.117 -0.8691 -0.1918 -0.2780
   58SAPC  H11B 4303   0.339   0.295  11.112  2.3098  1.8986  1.2025
   58SAPC     P 4304   0.615   0.107  11.235 -0.2143 -0.1576 -0.3251
   58SAPC   O13 4305   0.741   0.175  11.270  0.0481 -0.4747 -0.0261
   58SAPC   O14 4306   0.559   0.018  11.335  0.1513 -0.3753  0.3853
   58SAPC   O12 4307   0.510   0.221  11.205 -0.2218  0.2647 -0.1518
   58SAPC   O11 4308   0.618   0.031  11.096 -0.4324  0.3874 -0.1764
   58SAPC    C1 4309   0.744  -0.013  11.037 -0.0223 -0.1810  0.0992
   58SAPC    HA 4310   0.796   0.078  11.001 -1.7503  0.3072 -1.2866
   58SAPC    HB 4311   0.805  -0.071  11.110  2.4405  2.7848  0.5882
   58SAPC    C2 4312   0.718  -0.100  10.910 -0.3489  0.4718  0.8322
   58SAPC    HS 4313   0.806  -0.163  10.884 -1.7699 -0.6861 -1.5286
   58SAPC   O21 4314   0.695  -0.012  10.792 -0.5025 -0.0578 -0.1483
   58SAPC   C21 4315   0.808   0.015  10.727  0.1170 -0.0526  0.3026
   58SAPC   O22 4316   0.920  -0.015  10.762  0.1038  0.1777  0.4405
   58SAPC   C22 4317   0.777   0.110  10.614  0.3205 -1.1887  0.2033
   58SAPC   H2R 4318   0.688   0.067  10.564 -0.7755 -0.5417  1.5232
   58SAPC   H2S 4319   0.744   0.204  10.665  2.0272 -1.0287  1.0881
   58SAPC    C3 4320   0.594  -0.184  10.949 -0.5201  0.4670  0.5790
   58SAPC    HX 4321   0.506  -0.122  10.974 -0.1489  1.0368  0.4892
   58SAPC    HY 4322   0.621  -0.243  11.039  0.0908 -0.9204 -0.4851
   58SAPC   O31 4323   0.571  -0.287  10.855  0.0169  0.4759 -0.0543
   58SAPC   C31 4324   0.480  -0.263  10.759 -0.0676 -0.5308 -0.2862
   58SAPC   O32 4325   0.408  -0.165  10.756 -0.0882  0.2586  0.0739
   58SAPC   C32 4326   0.467  -0.383  10.664  0.4027 -0.4292  0.8556
   58SAPC   H2X 4327   0.383  -0.449  10.695  1.1535 -2.7135 -1.6444
   58SAPC   H2Y 4328   0.558  -0.446  10.677  1.7117  0.5583 -2.4454
   58SAPC   C23 4329   0.887   0.132  10.508 -0.4724 -0.3813 -0.3676
   58SAPC   H3R 4330   0.898   0.040  10.447  1.5446  0.6821 -1.7035
   58SAPC   H3S 4331   0.979   0.158  10.564 -1.4212  1.8579  0.2709
   58SAPC   C24 4332   0.881   0.254  10.408  0.5853  0.5776  0.5457
   58SAPC   H4R 4333   0.789   0.239  10.348  0.3198 -1.0023  1.2889
   58SAPC   H4S 4334   0.964   0.237  10.336 -2.2316  0.5703 -2.9878
   58SAPC   C25 4335   0.876   0.391  10.456  0.0261 -0.4992 -0.3852
   58SAPC   H5R 4336   0.810   0.415  10.540  1.4825  0.6310  0.4848
   58SAPC   C26 4337   0.948   0.493  10.405  0.0015  0.0606 -0.0429
   58SAPC   H6R 4338   0.937   0.590  10.456 -1.6211 -0.5028  0.7439
   58SAPC   C27 4339   1.040   0.490  10.287  0.0001 -0.0594  0.2912
   58SAPC   H7R 4340   0.986   0.452  10.198  3.8032 -0.5855 -1.9759
   58SAPC   H7S 4341   1.125   0.423  10.312  1.3209  1.8451  1.0964
   58SAPC   C28 4342   1.076   0.632  10.243  0.9384  0.1846 -0.1223
   58SAPC   H8R 4343   1.103   0.704  10.320  2.4387  0.3032 -0.7158
   58SAPC   C29 4344   1.080   0.677  10.111  0.4494 -0.0156  0.4220
   58SAPC   H9R 4345   1.121   0.777  10.093  3.6960 -1.0938  1.2460
   58SAPC  C210 4346   1.039   0.599   9.985 -0.2739  0.4805 -0.2899
   58SAPC  H10R 4347   0.958   0.653   9.932 -0.2739 -1.1294 -2.0290
   58SAPC  H10S 4348   0.998   0.500  10.014  0.3254 -0.6250 -2.9131
   58SAPC  C211 4349   1.160   0.590   9.892  0.2521  0.8609  0.2378
   58SAPC  H11R 4350   1.245   0.538   9.938 -0.8125 -0.7643  0.4640
   58SAPC  C212 4351   1.183   0.634   9.766  0.1299 -0.7523 -0.1727
   58SAPC  H12R 4352   1.278   0.610   9.717  0.4330  0.2379 -0.0942
   58SAPC  C213 4353   1.090   0.714   9.669  0.6553  0.8393 -0.4754
   58SAPC  H13R 4354   1.123   0.818   9.654 -0.1087  0.9948 -1.1490
   58SAPC  H13S 4355   0.991   0.722   9.719 -1.0186 -0.9160 -3.2250
   58SAPC  C214 4356   1.076   0.651   9.535  0.0699  0.5306 -0.1900
   58SAPC  H14R 4357   1.013   0.560   9.531  0.4913  0.1160  1.6210
   58SAPC  C215 4358   1.140   0.682   9.426  0.0087 -0.5102 -0.0460
   58SAPC  H15R 4359   1.111   0.634   9.331 -0.4383 -1.1285  0.3937
   58SAPC  C216 4360   1.230   0.811   9.420  0.4660  0.2769 -0.6774
   58SAPC  H16R 4361   1.334   0.783   9.445  0.2165  2.1546  3.1301
   58SAPC  H16S 4362   1.219   0.888   9.500  0.4814 -1.3682  0.9624
   58SAPC  C217 4363   1.219   0.890   9.285  0.7023  0.3452 -0.1379
   58SAPC  H17R 4364   1.115   0.929   9.277  0.2479  0.0092  2.9745
   58SAPC  H17S 4365   1.248   0.810   9.213  0.5766 -0.0553  0.2498
   58SAPC  C218 4366   1.322   1.006   9.271  0.2762  0.4499  0.1038
   58SAPC  H18R 4367   1.416   0.956   9.303  2.2160  2.8379 -1.5197
   58SAPC  H18S 4368   1.298   1.096   9.331  0.9264 -0.1305  1.2833
   58SAPC  C219 4369   1.324   1.040   9.120  0.0767 -0.9823  0.0557
   58SAPC  H19R 4370   1.219   1.041   9.084 -0.4343 -0.1222  1.4569
   58SAPC  H19S 4371   1.369   0.952   9.070  0.4921 -0.2773 -0.8346
   58SAPC  C220 4372   1.409   1.164   9.095 -0.3613 -0.2950 -0.2305
   58SAPC  H20R 4373   1.445   1.166   8.990 -0.9431  0.3145 -0.4301
   58SAPC  H20S 4374   1.494   1.172   9.167 -1.7483  0.9625  1.3748
   58SAPC  H20T 4375   1.344   1.253   9.112  2.0415  1.6042 -0.4125
   58SAPC   C33 4376   0.455  -0.343  10.518 -0.0834  0.7894  0.0294
   58SAPC   H3X 4377   0.354  -0.305  10.492 -1.1807 -3.1262 -2.3882
   58SAPC   H3Y 4378   0.464  -0.431  10.451  2.8830  0.0193  1.2582
   58SAPC   C34 4379   0.561  -0.243  10.460 -0.1140 -0.2353 -0.3858
   58SAPC   H4X 4380   0.661  -0.288  10.475  0.2412  0.2103 -1.3263
   58SAPC   H4Y 4381   0.565  -0.149  10.520 -1.0712 -0.5985  0.2663
   58SAPC   C35 4382   0.550  -0.222  10.315  0.6286 -0.3191  0.1119
   58SAPC   H5X 4383   0.450  -0.183  10.289  0.7554  0.3031  0.5254
   58SAPC   H5Y 4384   0.554  -0.322  10.267 -0.1526  1.0987 -3.2166
   58SAPC   C36 4385   0.658  -0.131  10.248  0.1077 -0.0469  0.4231
   58SAPC   H6X 4386   0.757  -0.155  10.294  1.3633  2.8172 -0.5216
   58SAPC   H6Y 4387   0.631  -0.025  10.266  0.1070 -0.1283  0.9211
   58SAPC   C37 4388   0.686  -0.143  10.098 -0.1805 -0.2543  0.4472
   58SAPC   H7X 4389   0.723  -0.246  10.075 -1.0071 -0.3217 -0.6666
   58SAPC   H7Y 4390   0.759  -0.073  10.053  1.3638 -2.3131 -0.4029
   58SAPC   C38 4391   0.558  -0.110  10.021  0.8853  0.0410  0.2440
   58SAPC   H8X 4392   0.541  -0.000  10.012 -2.3515 -0.3945 -0.2183
   58SAPC   H8Y 4393   0.471  -0.156  10.073  1.3079 -0.3179  0.6390
   58SAPC   C39 4394   0.565  -0.159   9.876  0.1034  0.2047 -0.3149
   58SAPC   H9X 4395   0.550  -0.269   9.878  1.8274 -0.0469  1.2276
   58SAPC   H9Y 4396   0.669  -0.155   9.837  0.3170  0.4838  0.2753
   58SAPC  C310 4397   0.468  -0.092   9.780  0.1718  0.3792  0.2121
   58SAPC  H10X 4398   0.485   0.016   9.760 -0.6954  0.2559 -1.4150
   58SAPC  H10Y 4399   0.368  -0.095   9.829 -0.5521  1.0809 -1.1620
   58SAPC  C311 4400   0.455  -0.158   9.644 -0.9783  0.6410  0.7586
   58SAPC  H11X 4401   0.387  -0.097   9.581  0.2804  0.0350 -1.2772
   58SAPC  H11Y 4402   0.409  -0.258   9.659  1.6799 -0.8492 -0.3138
   58SAPC  C312 4403   0.581  -0.178   9.551  0.6181 -0.2369  0.4678
   58SAPC  H12X 4404   0.543  -0.204   9.450  1.4169 -2.3114  0.6412
   58SAPC  H12Y 4405   0.630  -0.271   9.587 -1.3366 -0.9020  1.5865
   58SAPC  C313 4406   0.676  -0.062   9.544 -0.4318 -0.5588 -0.1137
   58SAPC  H13X 4407   0.736  -0.046   9.636 -1.5294  0.0373  0.5214
   58SAPC  H13Y 4408   0.606   0.024   9.533 -1.2207 -1.0089  1.1590
   58SAPC  C314 4409   0.769  -0.067   9.425 -0.2300  0.4681  0.5529
   58SAPC  H14X 4410   0.813  -0.167   9.403 -0.1009  1.1123 -2.7107
   58SAPC  H14Y 4411   0.856   0.000   9.441 -1.5994  2.9306 -1.5722
   58SAPC  C315 4412   0.696  -0.017   9.300 -0.2745 -0.5676 -0.1462
   58SAPC  H15X 4413   0.674   0.089   9.323  3.0267  0.2436 -0.1335
   58SAPC  H15Y 4414   0.608  -0.082   9.283  0.4370 -0.7900 -3.7703
   58SAPC  C316 4415   0.791  -0.020   9.176  0.7750 -0.1107 -0.2791
   58SAPC  H16X 4416   0.860  -0.107   9.178 -0.1341 -0.9249 -2.0611
   58SAPC  H16Y 4417   0.838   0.081   9.183 -0.6437  0.6831 -1.5638
   58SAPC  C317 4418   0.711  -0.022   9.043  0.3318 -0.3490  0.0441
   58SAPC  H17X 4419   0.639   0.062   9.053 -0.8152 -1.4924  2.0787
   58SAPC  H17Y 4420   0.652  -0.114   9.023 -1.3193  0.5275  0.7178
   58SAPC  C318 4421   0.810   0.007   8.925  0.2764 -0.0153 -0.1500
   58SAPC  H18X 4422   0.878  -0.081   8.926  0.0806 -0.2118 -1.9174
   58SAPC  H18Y 4423   0.863   0.103   8.941  2.0774 -0.9766 -0.0777
   58SAPC  H18Z 4424   0.762   0.011   8.825  3.6214 -0.1047 -1.9237
   59SAPC     N 4425   0.608   3.383  11.368 -0.0557  0.4774  0.1349
   59SAPC   C12 4426   0.618   3.272  11.264 -0.7260 -0.6828 -0.6002
   59SAPC  H12A 4427   0.597   3.321  11.170 -0.9849 -1.3492 -0.8964
   59SAPC  H12B 4428   0.545   3.193  11.276 -1.0206 -0.8852 -3.2853
   59SAPC   C13 4429   0.713   3.486  11.352 -0.3526 -0.2242  0.0613
   59SAPC  H13A 4430   0.810   3.441  11.371 -0.4149 -0.0653  0.7597
   59SAPC  H13B 4431   0.711   3.535  11.256  1.1528 -0.0437  0.0882
   59SAPC  H13C 4432   0.697   3.561  11.427 -2.8673 -1.8267  1.2728
   59SAPC   C14 4433   0.475   3.448  11.357 -0.0688 -0.8075 -0.1100
   59SAPC  H14A 4434   0.395   3.375  11.359  0.1676 -1.1158 -1.2276
   59SAPC  H14B 4435   0.460   3.522  11.435 -1.1750  0.5664 -1.5581
   59SAPC  H14C 4436   0.472   3.511  11.270  0.4123  3.9156  2.9229
   59SAPC   C15 4437   0.623   3.323  11.511  0.0356 -0.1760  0.8515
   59SAPC  H15A 4438   0.588   3.395  11.583  2.6969 -0.3144  2.4118
   59SAPC  H15B 4439   0.550   3.245  11.514  1.2847 -1.3970  0.5608
   59SAPC  H15C 4440   0.726   3.300  11.536  0.2382 -0.3139 -0.0803
   59SAPC   C11 4441   0.758   3.218  11.255 -0.4830 -0.2912 -0.8057
   59SAPC  H11A 4442   0.796   3.184  11.354  1.2748 -0.4201 -1.4868
   59SAPC  H11B 4443   0.819   3.305  11.223 -0.1125  0.0809  0.8532
   59SAPC     P 4444   0.897   3.098  11.074  0.5562 -0.1348 -0.0880
   59SAPC   O13 4445   1.013   3.126  11.159 -0.2163 -0.4643  0.1565
   59SAPC   O14 4446   0.890   2.965  10.999 -0.0425  0.3154 -0.6792
   59SAPC   O12 4447   0.767   3.107  11.162 -0.1082 -0.5465 -0.1715
   59SAPC   O11 4448   0.883   3.211  10.964  0.2481  0.3160  0.0581
   59SAPC    C1 4449   0.777   3.194  10.871  0.2635 -0.1316 -0.9328
   59SAPC    HA 4450   0.680   3.170  10.920 -0.9354  2.3817 -1.8449
   59SAPC    HB 4451   0.753   3.301  10.851  1.1708  0.2855  0.0829
   59SAPC    C2 4452   0.815   3.138  10.730 -0.1337  0.3966 -0.2303
   59SAPC    HS 4453   0.833   3.029  10.737  1.6386  0.6690 -0.0747
   59SAPC   O21 4454   0.924   3.213  10.675 -0.4962  0.0033 -0.5179
   59SAPC   C21 4455   1.017   3.141  10.629 -0.7851  0.5883 -0.3533
   59SAPC   O22 4456   1.027   3.018  10.648  0.4998  0.8087  0.4185
   59SAPC   C22 4457   1.104   3.228  10.549 -0.6084 -0.3517  0.5536
   59SAPC   H2R 4458   1.111   3.334  10.582  0.2918 -0.7977  1.8498
   59SAPC   H2S 4459   1.210   3.195  10.560 -0.6716 -0.5983  0.4403
   59SAPC    C3 4460   0.700   3.160  10.636  1.1944  0.5714  1.4005
   59SAPC    HX 4461   0.676   3.268  10.642  1.1537  0.6665 -0.1297
   59SAPC    HY 4462   0.605   3.110  10.664  1.1450  1.9309  3.9354
   59SAPC   O31 4463   0.731   3.149  10.488  0.1997  0.5087  0.5243
   59SAPC   C31 4464   0.715   3.015  10.453 -0.1422  0.2338 -0.3650
   59SAPC   O32 4465   0.675   2.929  10.528 -0.0509 -0.2148  0.8772
   59SAPC   C32 4466   0.754   2.991  10.303  0.2173  0.7719  0.5145
   59SAPC   H2X 4467   0.817   2.899  10.303 -0.0545  0.5778 -0.5219
   59SAPC   H2Y 4468   0.811   3.074  10.255  1.7912 -1.2734 -1.3696
   59SAPC   C23 4469   1.075   3.226  10.398 -0.1118 -0.3469  0.1939
   59SAPC   H3R 4470   1.143   3.295  10.342 -0.3170 -0.0711  0.2853
   59SAPC   H3S 4471   0.973   3.260  10.371  0.9047  1.6957 -1.2726
   59SAPC   C24 4472   1.102   3.091  10.332  0.1989 -0.0355  0.0706
   59SAPC   H4R 4473   1.029   3.019  10.375 -1.6499  1.6786 -0.0083
   59SAPC   H4S 4474   1.206   3.076  10.368  0.0463  2.5144  1.8489
   59SAPC   C25 4475   1.107   3.098  10.185 -0.1896  0.8563  0.4164
   59SAPC   H5R 4476   1.107   3.198  10.139 -1.8708  0.8386  0.2982
   59SAPC   C26 4477   1.146   3.003  10.096  0.0997  0.9834 -0.0334
   59SAPC   H6R 4478   1.143   3.040   9.992  1.6414  1.1672 -0.0274
   59SAPC   C27 4479   1.185   2.858  10.122  0.4557 -0.1747 -0.1773
   59SAPC   H7R 4480   1.177   2.836  10.230  0.7766 -1.2307 -0.3653
   59SAPC   H7S 4481   1.290   2.840  10.091  0.4866  0.5398 -0.5217
   59SAPC   C28 4482   1.091   2.773  10.049  0.2699 -0.1389  0.6927
   59SAPC   H8R 4483   1.001   2.739  10.103  0.2909  0.4675  1.1203
   59SAPC   C29 4484   1.094   2.731   9.920 -0.5685 -0.5750  0.0142
   59SAPC   H9R 4485   1.035   2.647   9.882 -2.1735  0.3448  0.3559
   59SAPC  C210 4486   1.197   2.782   9.816 -0.2428 -0.5232 -0.2751
   59SAPC  H10R 4487   1.258   2.701   9.770 -1.0812 -2.1684  1.3648
   59SAPC  H10S 4488   1.273   2.852   9.856  0.7083 -1.6499 -0.0430
   59SAPC  C211 4489   1.110   2.848   9.717  0.3164  0.1803 -0.0863
   59SAPC  H11R 4490   1.043   2.930   9.747 -1.7065 -2.0123  1.8066
   59SAPC  C212 4491   1.096   2.798   9.594 -0.2050 -0.0559  0.0346
   59SAPC  H12R 4492   1.024   2.849   9.528 -0.7523  0.0630  0.7150
   59SAPC  C213 4493   1.164   2.670   9.535 -0.1627 -0.2116 -0.5172
   59SAPC  H13R 4494   1.158   2.588   9.609  1.7136 -0.6228 -0.7784
   59SAPC  H13S 4495   1.270   2.694   9.516 -0.3372  0.6127 -0.4853
   59SAPC  C214 4496   1.087   2.624   9.412 -0.1302 -0.4766  0.1118
   59SAPC  H14R 4497   0.977   2.620   9.423 -0.3977 -0.5542 -2.1325
   59SAPC  C215 4498   1.135   2.585   9.295 -0.3323  0.0456  0.3697
   59SAPC  H15R 4499   1.075   2.569   9.204 -0.1149 -0.3791  0.2966
   59SAPC  C216 4500   1.279   2.579   9.270  0.2277  0.4905  0.1896
   59SAPC  H16R 4501   1.299   2.495   9.201 -1.0823 -0.8969  1.4421
   59SAPC  H16S 4502   1.349   2.559   9.354  2.0382 -1.7361 -1.7100
   59SAPC  C217 4503   1.324   2.703   9.187 -0.1539  0.4718 -1.1544
   59SAPC  H17R 4504   1.434   2.697   9.173  0.2586  1.5050  1.2102
   59SAPC  H17S 4505   1.314   2.790   9.254  0.1310  1.7130 -2.6652
   59SAPC  C218 4506   1.259   2.740   9.054  0.6722  0.5354 -0.7839
   59SAPC  H18R 4507   1.150   2.753   9.067  0.6479 -0.6943  0.3886
   59SAPC  H18S 4508   1.277   2.655   8.985 -1.2386  0.4534 -1.2260
   59SAPC  C219 4509   1.291   2.875   9.001 -1.1797  0.1951  0.5860
   59SAPC  H19R 4510   1.402   2.882   8.995 -1.2353  1.0363  0.2635
   59SAPC  H19S 4511   1.246   2.954   9.066 -1.2253 -0.0537  0.8562
   59SAPC  C220 4512   1.236   2.899   8.860 -0.0248 -1.0590 -0.4334
   59SAPC  H20R 4513   1.259   3.001   8.825  0.3268 -0.9479  0.1095
   59SAPC  H20S 4514   1.125   2.901   8.851 -0.0216 -0.2523 -0.2959
   59SAPC  H20T 4515   1.291   2.823   8.801  0.3718 -0.9834 -0.1595
   59SAPC   C33 4516   0.624   2.978  10.217 -0.4067 -0.3199  0.4130
   59SAPC   H3X 4517   0.594   3.084  10.204 -0.6058 -0.3248  0.8264
   59SAPC   H3Y 4518   0.547   2.921  10.274  0.5949  0.4909  2.7055
   59SAPC   C34 4519   0.653   2.924  10.073 -0.3158  0.1934  0.0941
   59SAPC   H4X 4520   0.763   2.937  10.058 -0.4805  1.1591 -0.3858
   59SAPC   H4Y 4521   0.583   2.974  10.003  0.8668  2.3318  0.3451
   59SAPC   C35 4522   0.626   2.770  10.060  0.3790 -0.3453  0.0212
   59SAPC   H5X 4523   0.522   2.736  10.076  0.8146 -2.6078 -1.4660
   59SAPC   H5Y 4524   0.680   2.720  10.143 -1.6284 -1.2833  0.8276
   59SAPC   C36 4525   0.677   2.709   9.935 -0.0290 -0.0248  0.6021
   59SAPC   H6X 4526   0.675   2.598   9.938  1.0834 -0.1026 -0.6474
   59SAPC   H6Y 4527   0.785   2.735   9.938 -0.1873  1.5856 -2.6438
   59SAPC   C37 4528   0.611   2.754   9.797 -0.3534  0.7258  0.1237
   59SAPC   H7X 4529   0.615   2.863   9.777 -2.3776  0.5350 -1.7442
   59SAPC   H7Y 4530   0.506   2.719   9.803 -0.3083  0.7166  1.0051
   59SAPC   C38 4531   0.678   2.684   9.675  1.2009  0.2037  0.0044
   59SAPC   H8X 4532   0.677   2.579   9.708  3.6646  0.5817  1.5200
   59SAPC   H8Y 4533   0.788   2.699   9.676  1.2304  0.1829 -1.1151
   59SAPC   C39 4534   0.611   2.697   9.537 -0.9140  0.0770 -0.2778
   59SAPC   H9X 4535   0.595   2.806   9.524 -0.1031  0.2689  0.2252
   59SAPC   H9Y 4536   0.517   2.640   9.521 -2.0373  2.0517 -0.9621
   59SAPC  C310 4537   0.719   2.664   9.430  0.4749  0.0950  0.5792
   59SAPC  H10X 4538   0.739   2.556   9.450 -1.9650 -1.5624 -4.2450
   59SAPC  H10Y 4539   0.810   2.726   9.444  0.2721  0.1493  1.7916
   59SAPC  C311 4540   0.684   2.684   9.282  0.1223 -0.2392 -0.3993
   59SAPC  H11X 4541   0.671   2.790   9.250  1.6440 -0.0417 -0.4438
   59SAPC  H11Y 4542   0.591   2.628   9.257 -0.5536  1.7099 -2.6460
   59SAPC  C312 4543   0.787   2.637   9.185 -0.2666 -0.3869  0.1968
   59SAPC  H12X 4544   0.829   2.540   9.219 -0.2545  0.3661  2.5259
   59SAPC  H12Y 4545   0.860   2.718   9.205 -2.2375  1.6283 -0.3226
   59SAPC  C313 4546   0.762   2.659   9.037 -0.6055  0.8997  0.5254
   59SAPC  H13X 4547   0.717   2.760   9.030  0.2349  1.4275  2.2014
   59SAPC  H13Y 4548   0.692   2.588   8.989  1.3515  0.8939 -2.6530
   59SAPC  C314 4549   0.893   2.673   8.962  0.4846  0.4470 -0.2570
   59SAPC  H14X 4550   0.947   2.577   8.974  0.2847  0.1816 -1.4466
   59SAPC  H14Y 4551   0.945   2.761   9.007  0.5413 -0.0204  0.6322
   59SAPC  C315 4552   0.874   2.683   8.808  0.2872 -1.1427  0.1290
   59SAPC  H15X 4553   0.970   2.690   8.753  0.7234 -2.4302  0.7024
   59SAPC  H15Y 4554   0.821   2.775   8.774  2.8840  0.1409 -0.6783
   59SAPC  C316 4555   0.787   2.571   8.735 -0.1416 -0.6949 -0.5735
   59SAPC  H16X 4556   0.690   2.560   8.787 -0.8612  1.4594 -1.3842
   59SAPC  H16Y 4557   0.836   2.473   8.752  0.4156 -0.1038  1.5478
   59SAPC  C317 4558   0.767   2.587   8.585  0.1460 -0.5146  0.3743
   59SAPC  H17X 4559   0.858   2.606   8.523 -1.1963  0.8153 -1.2905
   59SAPC  H17Y 4560   0.701   2.671   8.555  2.4264  0.9347 -0.9404
   59SAPC  C318 4561   0.711   2.460   8.529 -0.6075  0.2235 -0.2742
   59SAPC  H18X 4562   0.700   2.480   8.420 -0.3204  0.4416 -0.2643
   59SAPC  H18Y 4563   0.607   2.444   8.562 -0.0271 -1.6741  0.8332
   59SAPC  H18Z 4564   0.778   2.372   8.546 -2.7177 -1.5563 -0.6830
   60SAPC     N 4565   2.070   1.544  11.222 -0.3051 -0.4607 -0.1079
   60SAPC   C12 4566   2.093   1.563  11.080 -0.5101  0.6060 -0.0008
   60SAPC  H12A 4567   2.107   1.463  11.041 -0.6384 -0.3410  2.2492
   60SAPC  H12B 4568   2.192   1.602  11.066  0.1018 -0.9858 -0.2690
   60SAPC   C13 4569   2.179   1.449  11.272 -0.2378 -0.5735  0.6883
   60SAPC  H13A 4570   2.273   1.502  11.277  1.5156 -3.4304  0.3653
   60SAPC  H13B 4571   2.150   1.412  11.369 -2.5635  2.0297  1.1027
   60SAPC  H13C 4572   2.193   1.358  11.215  0.8369 -0.8014  1.2973
   60SAPC   C14 4573   2.096   1.672  11.298  0.0767 -0.2749 -0.5490
   60SAPC  H14A 4574   2.202   1.694  11.296  0.1243 -0.4042  0.2064
   60SAPC  H14B 4575   2.041   1.746  11.241  0.0539 -0.5895 -0.9391
   60SAPC  H14C 4576   2.050   1.676  11.395 -0.8630  0.1934 -1.0005
   60SAPC   C15 4577   1.932   1.493  11.260  0.4555  0.1263 -0.5954
   60SAPC  H15A 4578   1.918   1.390  11.230 -1.5341  0.2617 -0.2350
   60SAPC  H15B 4579   1.905   1.496  11.364  0.8389 -0.3186 -0.4781
   60SAPC  H15C 4580   1.867   1.559  11.205  1.1960  0.5718 -0.9604
   60SAPC   C11 4581   1.997   1.637  10.981 -0.2777 -0.3858 -0.3366
   60SAPC  H11A 4582   1.899   1.587  10.977  0.1732 -1.3720  0.5941
   60SAPC  H11B 4583   2.053   1.622  10.886  0.6179 -2.1561  0.4316
   60SAPC     P 4584   2.116   1.871  11.012 -0.4349  0.2604 -0.2067
   60SAPC   O13 4585   2.101   1.978  11.113 -0.0329 -0.1326  0.5559
   60SAPC   O14 4586   2.245   1.796  11.020 -0.3404 -0.2197  0.2183
   60SAPC   O12 4587   1.997   1.773  11.021 -0.4384  0.0057  0.1226
   60SAPC   O11 4588   2.110   1.950  10.871  0.1674 -0.2659 -0.1710
   60SAPC    C1 4589   1.985   1.970  10.798 -0.1437 -1.0880  0.2127
   60SAPC    HA 4590   1.891   1.951  10.855 -1.5036 -0.6786 -1.7973
   60SAPC    HB 4591   1.966   2.075  10.766 -0.8088 -0.9993  0.8503
   60SAPC    C2 4592   1.992   1.871  10.678  0.6773 -0.1108  0.1483
   60SAPC    HS 4593   1.991   1.771  10.727 -0.5699 -0.5893 -0.7894
   60SAPC   O21 4594   2.102   1.906  10.595  0.1289  0.1860  0.4168
   60SAPC   C21 4595   2.158   1.796  10.546  0.8250  0.0852  0.1919
   60SAPC   O22 4596   2.119   1.681  10.571  0.1534 -0.1920  0.2328
   60SAPC   C22 4597   2.257   1.834  10.444  0.3198 -0.0520  0.2555
   60SAPC   H2R 4598   2.292   1.939  10.461 -0.2455 -0.3683  4.4361
   60SAPC   H2S 4599   2.351   1.780  10.471  1.2639  1.2722 -0.2236
   60SAPC    C3 4600   1.860   1.880  10.604  0.2115  0.7124  0.6886
   60SAPC    HX 4601   1.849   1.989  10.588 -0.3027  0.2233 -3.4399
   60SAPC    HY 4602   1.773   1.845  10.663  0.3624  0.0521  0.5253
   60SAPC   O31 4603   1.863   1.820  10.474 -0.0372 -0.4323  0.0378
   60SAPC   C31 4604   1.768   1.726  10.447 -0.3016  0.0172 -0.3745
   60SAPC   O32 4605   1.678   1.693  10.518  0.8787  0.2147 -0.0603
   60SAPC   C32 4606   1.785   1.667  10.308  0.0971 -0.0561 -0.1443
   60SAPC   H2X 4607   1.694   1.606  10.293  0.5664 -1.0058  0.7369
   60SAPC   H2Y 4608   1.870   1.595  10.305 -0.7408 -1.0453 -3.2157
   60SAPC   C23 4609   2.222   1.819  10.288 -0.2119  0.1956 -0.2574
   60SAPC   H3R 4610   2.305   1.866  10.231  1.2060 -0.2934  1.3239
   60SAPC   H3S 4611   2.123   1.864  10.264  0.1585  1.8615  1.1008
   60SAPC   C24 4612   2.212   1.671  10.251  0.2453  0.4913  0.1314
   60SAPC   H4R 4613   2.120   1.631  10.298  1.6601 -1.7867  1.1504
   60SAPC   H4S 4614   2.305   1.620  10.283 -0.8799 -3.3812 -2.0937
   60SAPC   C25 4615   2.201   1.634  10.105 -0.7951  0.2796 -0.6594
   60SAPC   H5R 4616   2.126   1.691  10.048 -0.0542 -0.1872 -2.1250
   60SAPC   C26 4617   2.262   1.530  10.042 -0.1316 -0.4182 -0.8882
   60SAPC   H6R 4618   2.260   1.528   9.932 -0.3581 -0.8443 -0.8768
   60SAPC   C27 4619   2.354   1.433  10.111 -0.4077 -0.1778 -0.5551
   60SAPC   H7R 4620   2.316   1.407  10.212 -0.1766  1.0707 -0.1257
   60SAPC   H7S 4621   2.453   1.482  10.121 -0.3119 -0.7033  1.5948
   60SAPC   C28 4622   2.384   1.306  10.029 -0.7235  0.4162  0.7537
   60SAPC   H8R 4623   2.323   1.221  10.063 -0.5526  0.4887  1.2532
   60SAPC   C29 4624   2.458   1.292   9.916 -0.3931 -1.0256 -0.3249
   60SAPC   H9R 4625   2.459   1.199   9.857 -2.9384 -1.4122  0.1384
   60SAPC  C210 4626   2.527   1.407   9.842  0.4315  0.1503  0.3396
   60SAPC  H10R 4627   2.593   1.468   9.907  2.5520 -0.3638 -1.2070
   60SAPC  H10S 4628   2.452   1.479   9.803  1.5904  0.9840 -0.4117
   60SAPC  C211 4629   2.611   1.372   9.720 -0.5955 -0.4448 -0.9295
   60SAPC  H11R 4630   2.712   1.358   9.762 -1.6419 -0.6932  1.6702
   60SAPC  C212 4631   2.575   1.347   9.590  0.1537  0.0957  0.2853
   60SAPC  H12R 4632   2.652   1.329   9.513  0.5420 -2.6763  1.1940
   60SAPC  C213 4633   2.430   1.351   9.547  0.6145  0.2181  0.2230
   60SAPC  H13R 4634   2.358   1.362   9.631 -0.3442 -1.6794 -0.2776
   60SAPC  H13S 4635   2.395   1.253   9.508  0.1416  0.0799  0.9652
   60SAPC  C214 4636   2.413   1.469   9.457 -0.5258  0.4631 -0.2324
   60SAPC  H14R 4637   2.489   1.549   9.462 -0.9130  0.7990  0.3793
   60SAPC  C215 4638   2.311   1.488   9.366  0.1415 -0.1127  0.7128
   60SAPC  H15R 4639   2.318   1.562   9.285  0.7308 -0.3039  0.5802
   60SAPC  C216 4640   2.204   1.382   9.352  0.1362  0.2533  0.1588
   60SAPC  H16R 4641   2.103   1.421   9.328  1.1087  1.4900 -2.2543
   60SAPC  H16S 4642   2.202   1.310   9.437  2.5296 -0.7796 -0.5929
   60SAPC  C217 4643   2.245   1.294   9.231 -0.6220  0.2447  0.0319
   60SAPC  H17R 4644   2.191   1.196   9.229  0.5236 -0.3996 -0.4829
   60SAPC  H17S 4645   2.352   1.274   9.248 -0.9582 -2.9122 -0.8915
   60SAPC  C218 4646   2.238   1.356   9.089 -0.3050  1.0032  0.5188
   60SAPC  H18R 4647   2.314   1.437   9.081  0.5622  0.0571 -1.9116
   60SAPC  H18S 4648   2.143   1.409   9.070  0.2407  1.7878 -0.1355
   60SAPC  C219 4649   2.282   1.255   8.973 -0.4145  0.1509  0.1863
   60SAPC  H19R 4650   2.375   1.198   8.993  0.6780  1.4626 -0.9624
   60SAPC  H19S 4651   2.297   1.315   8.880 -5.5114  1.8738  0.1654
   60SAPC  C220 4652   2.172   1.164   8.940 -0.6452  0.5470 -0.3127
   60SAPC  H20R 4653   2.142   1.088   9.015 -1.5073 -0.7575 -1.8892
   60SAPC  H20S 4654   2.186   1.099   8.851  0.3676 -0.0670  0.2726
   60SAPC  H20T 4655   2.080   1.224   8.922 -2.1469 -0.3613  3.4856
   60SAPC   C33 4656   1.797   1.771  10.194 -0.1754 -0.8868  0.2604
   60SAPC   H3X 4657   1.881   1.839  10.221 -0.9074  1.1729 -2.1932
   60SAPC   H3Y 4658   1.701   1.826  10.191  0.0207 -0.4562  1.6150
   60SAPC   C34 4659   1.828   1.704  10.060 -0.4063  0.3370 -0.6399
   60SAPC   H4X 4660   1.738   1.646  10.031 -0.3315  0.5407 -1.3058
   60SAPC   H4Y 4661   1.914   1.636  10.077 -0.2631  0.3935 -1.1226
   60SAPC   C35 4662   1.866   1.793   9.943 -0.2240 -0.2049 -0.7503
   60SAPC   H5X 4663   1.947   1.863   9.972  1.0571 -0.8785 -2.4713
   60SAPC   H5Y 4664   1.784   1.859   9.909 -1.0405 -0.6109  0.3659
   60SAPC   C36 4665   1.898   1.715   9.816  0.0910  0.3007 -0.5068
   60SAPC   H6X 4666   2.002   1.679   9.832  0.6560  1.5112 -1.3097
   60SAPC   H6Y 4667   1.919   1.781   9.729  3.0616  0.7696  0.4656
   60SAPC   C37 4668   1.793   1.610   9.759  0.2834 -0.5382 -0.3934
   60SAPC   H7X 4669   1.754   1.552   9.846  1.1643  0.9232  1.0110
   60SAPC   H7Y 4670   1.856   1.550   9.690  1.8678  0.7953 -0.1469
   60SAPC   C38 4671   1.679   1.673   9.668 -0.0961 -0.5715 -0.0344
   60SAPC   H8X 4672   1.608   1.733   9.729  0.9510 -0.3961  1.0607
   60SAPC   H8Y 4673   1.614   1.599   9.617 -0.1967 -0.8742  0.5172
   60SAPC   C39 4674   1.721   1.772   9.559 -0.0602  0.1712 -0.1204
   60SAPC   H9X 4675   1.763   1.868   9.597 -0.4436  0.7990 -1.2274
   60SAPC   H9Y 4676   1.626   1.785   9.504 -0.5224 -1.2700  0.3096
   60SAPC  C310 4677   1.825   1.722   9.450 -0.0256  0.1668 -0.1537
   60SAPC  H10X 4678   1.785   1.620   9.427 -0.0331 -0.2830  1.6576
   60SAPC  H10Y 4679   1.922   1.703   9.502 -1.4774  2.3573  3.8036
   60SAPC  C311 4680   1.837   1.802   9.319 -0.1450  0.1434 -0.8124
   60SAPC  H11X 4681   1.740   1.845   9.287  0.2877 -0.2740 -2.8145
   60SAPC  H11Y 4682   1.866   1.736   9.234  1.6649  0.6937 -0.6623
   60SAPC  C312 4683   1.940   1.916   9.327  0.3847 -0.3552  0.0521
   60SAPC  H12X 4684   2.043   1.880   9.345  0.3945 -0.3172  0.0723
   60SAPC  H12Y 4685   1.908   2.006   9.383 -0.1883  0.0044 -0.8327
   60SAPC  C313 4686   1.954   1.975   9.181  1.1464 -0.4671 -0.0970
   60SAPC  H13X 4687   1.858   2.015   9.143  1.1000  0.7062  1.2082
   60SAPC  H13Y 4688   1.982   1.885   9.121  0.6758 -1.2572  0.8381
   60SAPC  C314 4689   2.064   2.084   9.169  0.0680 -0.0589  0.2238
   60SAPC  H14X 4690   2.143   2.059   9.243  0.8252 -1.0660 -0.8968
   60SAPC  H14Y 4691   2.020   2.181   9.202  1.4123  0.5706  0.2616
   60SAPC  C315 4692   2.131   2.089   9.033 -0.3530 -0.1285 -0.4362
   60SAPC  H15X 4693   2.156   1.984   9.004 -1.0875 -0.7018  0.9277
   60SAPC  H15Y 4694   2.220   2.155   9.039 -0.2638 -0.2026 -0.8468
   60SAPC  C316 4695   2.041   2.152   8.927  0.1607  0.4215 -0.0927
   60SAPC  H16X 4696   1.981   2.234   8.971 -0.0019 -0.2279  0.9439
   60SAPC  H16Y 4697   1.966   2.078   8.892  2.6280 -2.7680  0.7627
   60SAPC  C317 4698   2.114   2.206   8.805 -0.4319 -0.4518 -0.1248
   60SAPC  H17X 4699   2.170   2.122   8.759  0.3801 -0.4203  0.7849
   60SAPC  H17Y 4700   2.181   2.290   8.835  0.3204 -1.5178  1.2816
   60SAPC  C318 4701   2.011   2.276   8.705 -0.3062 -0.5338  0.2983
   60SAPC  H18X 4702   1.940   2.204   8.661  1.9568 -3.0130  0.4369
   60SAPC  H18Y 4703   2.061   2.311   8.612 -0.1623  1.5110  1.0897
   60SAPC  H18Z 4704   1.964   2.363   8.756 -0.6989 -0.6462  0.1234
   61SAPC     N 4705   2.835   1.072  10.980  0.1994  0.5051  0.4084
   61SAPC   C12 4706   2.702   1.128  11.019 -0.5802  0.0419  0.6189
   61SAPC  H12A 4707   2.715   1.211  11.086 -1.2204  0.1721  0.5907
   61SAPC  H12B 4708   2.632   1.056  11.059 -0.0131 -1.0071 -0.2123
   61SAPC   C13 4709   2.897   1.176  10.897  0.5877  0.2025  0.2110
   61SAPC  H13A 4710   2.844   1.176  10.803 -0.8201 -2.4525  0.9132
   61SAPC  H13B 4711   2.893   1.270  10.950  1.8654 -0.6813  1.9613
   61SAPC  H13C 4712   2.998   1.145  10.878  0.2212 -0.3253 -0.9135
   61SAPC   C14 4713   2.921   1.057  11.103 -0.4753  0.0664  0.0751
   61SAPC  H14A 4714   2.883   0.982  11.171  0.0249 -0.3181 -0.0654
   61SAPC  H14B 4715   3.022   1.025  11.081 -0.6137 -1.7675  1.7800
   61SAPC  H14C 4716   2.908   1.151  11.155 -0.1737 -0.5472  1.2987
   61SAPC   C15 4717   2.819   0.942  10.911 -0.4063  0.1578 -0.0457
   61SAPC  H15A 4718   2.812   0.862  10.983 -0.3998  1.4532  1.4383
   61SAPC  H15B 4719   2.745   0.943  10.832 -1.6079  0.4839  1.0417
   61SAPC  H15C 4720   2.909   0.916  10.858 -0.0322  0.3005  0.5167
   61SAPC   C11 4721   2.622   1.195  10.895 -0.2740 -0.0317  0.1649
   61SAPC  H11A 4722   2.630   1.136  10.801 -0.2626 -0.4038  0.4002
   61SAPC  H11B 4723   2.664   1.293  10.864  2.1880 -1.7748 -2.6459
   61SAPC     P 4724   2.433   1.313  11.021 -0.2615  0.3338 -0.1591
   61SAPC   O13 4725   2.289   1.278  11.045  0.8906  0.1651 -0.3021
   61SAPC   O14 4726   2.514   1.330  11.145 -0.4036 -0.2735 -0.1077
   61SAPC   O12 4727   2.489   1.199  10.935 -0.5314 -0.2047  0.1688
   61SAPC   O11 4728   2.442   1.435  10.921  0.2936 -0.0868  0.0779
   61SAPC    C1 4729   2.345   1.448  10.819 -0.1293  0.6901 -0.0140
   61SAPC    HA 4730   2.242   1.410  10.837  0.0621  1.1120  2.1883
   61SAPC    HB 4731   2.330   1.556  10.797  0.7216  0.4212 -2.2114
   61SAPC    C2 4732   2.394   1.391  10.681 -0.3092  0.3225 -0.2259
   61SAPC    HS 4733   2.398   1.281  10.696 -1.3145  0.4266  1.0293
   61SAPC   O21 4734   2.519   1.449  10.641 -0.4009 -0.0908 -0.0928
   61SAPC   C21 4735   2.593   1.362  10.577 -0.2820  0.4193  0.1197
   61SAPC   O22 4736   2.580   1.241  10.574  0.6123  0.2856 -0.0636
   61SAPC   C22 4737   2.699   1.437  10.489 -0.1385  0.6667  0.4469
   61SAPC   H2R 4738   2.772   1.468  10.567 -1.0113 -0.5834  1.8081
   61SAPC   H2S 4739   2.745   1.362  10.421  0.2897  0.4686  0.9452
   61SAPC    C3 4740   2.294   1.419  10.566  0.6280 -0.5828  0.4328
   61SAPC    HX 4741   2.322   1.518  10.525  0.4647 -0.6452  0.1667
   61SAPC    HY 4742   2.192   1.422  10.610  0.7620  1.8345  0.6745
   61SAPC   O31 4743   2.303   1.320  10.460  0.5792 -0.2477  0.4606
   61SAPC   C31 4744   2.191   1.239  10.442 -0.0321 -0.4419  0.2692
   61SAPC   O32 4745   2.085   1.252  10.505 -0.6527  0.3624 -0.3540
   61SAPC   C32 4746   2.216   1.132  10.337 -0.2664  0.6361  0.5993
   61SAPC   H2X 4747   2.326   1.115  10.332 -0.5476 -1.5512  0.8922
   61SAPC   H2Y 4748   2.196   1.188  10.243 -0.8217 -3.1765 -1.7505
   61SAPC   C23 4749   2.630   1.549  10.410  0.0484  0.2578 -0.5315
   61SAPC   H3R 4750   2.612   1.637  10.474 -1.2305  0.3999 -1.0570
   61SAPC   H3S 4751   2.532   1.517  10.368 -1.1513  0.6464  1.8202
   61SAPC   C24 4752   2.708   1.573  10.280  0.3674 -0.6327 -0.2154
   61SAPC   H4R 4753   2.644   1.635  10.214  0.5476  1.2712  1.3266
   61SAPC   H4S 4754   2.713   1.482  10.216 -1.0097  0.9437 -2.7450
   61SAPC   C25 4755   2.840   1.642  10.290 -0.1939  0.2587  0.2772
   61SAPC   H5R 4756   2.874   1.670  10.390 -0.1562 -2.5451  1.1495
   61SAPC   C26 4757   2.933   1.661  10.200  0.3701 -1.1679  0.6126
   61SAPC   H6R 4758   3.020   1.718  10.236 -2.6588  3.7586  1.0995
   61SAPC   C27 4759   2.925   1.639  10.050  0.2086 -0.2469  0.2764
   61SAPC   H7R 4760   2.989   1.713   9.997  1.3240  0.9480  3.0745
   61SAPC   H7S 4761   2.820   1.666  10.029  1.0468  2.1308 -1.2667
   61SAPC   C28 4762   2.954   1.502  10.001 -0.6313 -0.4888  0.1951
   61SAPC   H8R 4763   2.975   1.438  10.088  0.7224 -1.9707 -1.1729
   61SAPC   C29 4764   2.944   1.455   9.873  0.2321 -1.1565 -0.7163
   61SAPC   H9R 4765   2.965   1.349   9.854  0.9930 -1.3825  1.1947
   61SAPC  C210 4766   2.906   1.549   9.755 -0.0011  0.5984  0.3831
   61SAPC  H10R 4767   2.814   1.609   9.768  0.2371  1.0997 -0.1750
   61SAPC  H10S 4768   2.868   1.470   9.686  1.3905  0.8268 -0.6933
   61SAPC  C211 4769   3.018   1.627   9.695  0.9063  0.2264  0.0697
   61SAPC  H11R 4770   3.111   1.570   9.684 -0.1882 -1.5740 -0.4373
   61SAPC  C212 4771   3.019   1.751   9.655  0.3662 -1.2709 -0.1871
   61SAPC  H12R 4772   3.110   1.789   9.605  0.1413  0.6151  0.7569
   61SAPC  C213 4773   2.907   1.850   9.660  0.1558 -0.4956  0.2954
   61SAPC  H13R 4774   2.914   1.911   9.752  0.1947 -1.6736  1.0993
   61SAPC  H13S 4775   2.812   1.796   9.680 -1.2993  0.6127 -2.9797
   61SAPC  C214 4776   2.890   1.938   9.540  0.3152 -0.6610 -0.1277
   61SAPC  H14R 4777   2.940   2.033   9.563 -1.4147  0.5417 -1.1271
   61SAPC  C215 4778   2.821   1.911   9.428  0.2245 -0.3624 -0.3355
   61SAPC  H15R 4779   2.837   1.974   9.338  0.8897 -0.3736 -0.2321
   61SAPC  C216 4780   2.752   1.778   9.400  0.0323  0.2023 -0.0314
   61SAPC  H16R 4781   2.650   1.768   9.444  0.6940  0.1652  1.5829
   61SAPC  H16S 4782   2.800   1.697   9.459 -1.7763 -2.7927 -2.3660
   61SAPC  C217 4783   2.731   1.736   9.246 -0.1617 -0.2612  0.3278
   61SAPC  H17R 4784   2.699   1.817   9.177  2.0169  1.3941  1.1509
   61SAPC  H17S 4785   2.672   1.642   9.243  1.9371 -1.6409 -0.0569
   61SAPC  C218 4786   2.868   1.699   9.201  0.2534 -0.2741 -0.3103
   61SAPC  H18R 4787   2.912   1.620   9.266 -0.8940 -1.8860 -1.4060
   61SAPC  H18S 4788   2.925   1.794   9.197 -3.0517  1.8387 -1.6424
   61SAPC  C219 4789   2.872   1.643   9.057 -0.7407  0.0245  0.1937
   61SAPC  H19R 4790   2.800   1.691   8.987  0.6758  0.2094 -1.1988
   61SAPC  H19S 4791   2.836   1.538   9.063 -0.9334  0.1614  1.7494
   61SAPC  C220 4792   3.015   1.644   9.000  0.5503  0.0793 -0.3037
   61SAPC  H20R 4793   3.050   1.546   8.962 -0.4662 -0.1685 -0.6495
   61SAPC  H20S 4794   3.080   1.678   9.083  1.2457 -0.7387 -0.4928
   61SAPC  H20T 4795   3.023   1.728   8.927 -1.7304  1.3626  0.8217
   61SAPC   C33 4796   2.134   1.006  10.353 -0.0527 -0.3679  0.2562
   61SAPC   H3X 4797   2.032   1.040  10.382 -0.1333  0.5093 -0.9594
   61SAPC   H3Y 4798   2.177   0.943  10.433 -1.1350  1.2730  2.2317
   61SAPC   C34 4799   2.115   0.922  10.225  0.0642  0.0397 -0.1327
   61SAPC   H4X 4800   2.222   0.897  10.206 -0.6633 -2.9092 -0.7655
   61SAPC   H4Y 4801   2.071   0.991  10.151 -1.2229  1.3727  1.7643
   61SAPC   C35 4802   2.024   0.803  10.240 -0.5235 -0.4493  0.0415
   61SAPC   H5X 4803   1.930   0.846  10.283 -0.0012  0.7340  0.0576
   61SAPC   H5Y 4804   2.067   0.724  10.304  0.2761  0.6585  0.9152
   61SAPC   C36 4805   1.980   0.738  10.098 -0.0467 -0.9264 -0.0919
   61SAPC   H6X 4806   1.950   0.821  10.032  3.3085  2.7365  2.5374
   61SAPC   H6Y 4807   1.889   0.675  10.115 -0.0162 -1.1369 -0.7106
   61SAPC   C37 4808   2.089   0.654  10.026 -0.2978 -0.5754  0.0048
   61SAPC   H7X 4809   2.157   0.593  10.089  0.1142  0.8682  1.0024
   61SAPC   H7Y 4810   2.160   0.723   9.975 -0.6402 -0.4022 -0.2458
   61SAPC   C38 4811   2.021   0.568   9.920  0.8534  0.0293  0.4646
   61SAPC   H8X 4812   1.924   0.618   9.897  1.8720  2.4691  1.1498
   61SAPC   H8Y 4813   1.997   0.471   9.969  0.7350  0.2897  0.9305
   61SAPC   C39 4814   2.100   0.536   9.787 -0.7104  0.2333  0.3204
   61SAPC   H9X 4815   2.158   0.442   9.796 -1.0870 -0.1019 -0.6174
   61SAPC   H9Y 4816   2.167   0.619   9.754  0.3291 -0.8574 -0.3903
   61SAPC  C310 4817   2.004   0.506   9.674 -0.4371 -0.8226  0.4463
   61SAPC  H10X 4818   1.950   0.598   9.644  0.2778 -0.7539 -0.7025
   61SAPC  H10Y 4819   1.924   0.434   9.700 -1.0282 -0.3479 -0.0432
   61SAPC  C311 4820   2.081   0.448   9.556 -0.5313  0.3783 -1.0353
   61SAPC  H11X 4821   2.128   0.355   9.594 -2.5335 -0.0624  0.5631
   61SAPC  H11Y 4822   2.158   0.521   9.522  0.6919 -1.3176 -2.0404
   61SAPC  C312 4823   1.987   0.422   9.438 -1.0386  0.1294 -0.3235
   61SAPC  H12X 4824   1.928   0.515   9.426 -1.7670 -0.3255 -0.3549
   61SAPC  H12Y 4825   1.929   0.330   9.460 -1.0951  0.0828 -0.6538
   61SAPC  C313 4826   2.065   0.396   9.309  0.3562  0.0928  0.1827
   61SAPC  H13X 4827   2.120   0.301   9.318 -0.6348 -0.7797 -2.1643
   61SAPC  H13Y 4828   2.139   0.478   9.293  2.5329 -1.7475  0.4444
   61SAPC  C314 4829   1.972   0.369   9.190  0.2548 -0.4627 -0.1351
   61SAPC  H14X 4830   1.898   0.451   9.187 -0.2154 -0.7637  1.9602
   61SAPC  H14Y 4831   1.924   0.269   9.195  1.4987 -1.0252  1.6149
   61SAPC  C315 4832   2.051   0.380   9.061 -0.7520 -0.9624  0.9611
   61SAPC  H15X 4833   2.142   0.315   9.063  1.0782  1.3939 -0.5680
   61SAPC  H15Y 4834   2.080   0.487   9.060  1.5824 -1.4994  2.0037
   61SAPC  C316 4835   1.983   0.346   8.931  0.6657 -0.3639 -0.6727
   61SAPC  H16X 4836   1.893   0.408   8.915  0.1659 -0.0272  2.6653
   61SAPC  H16Y 4837   1.957   0.238   8.924 -0.8412  0.0086 -0.9678
   61SAPC  C317 4838   2.072   0.350   8.814 -0.0040  0.3943  0.5273
   61SAPC  H17X 4839   2.163   0.291   8.838  0.6202  0.4207 -1.5646
   61SAPC  H17Y 4840   2.117   0.450   8.800 -1.9548  0.9799 -2.2797
   61SAPC  C318 4841   2.015   0.309   8.680  0.0567  0.4195  0.7146
   61SAPC  H18X 4842   1.913   0.351   8.675 -0.6237 -1.1866  0.2582
   61SAPC  H18Y 4843   2.002   0.199   8.671  0.9736  0.3000  0.7871
   61SAPC  H18Z 4844   2.072   0.342   8.590 -1.8441 -0.1353 -0.7706
   62SAPC     N 4845   3.436   6.335  11.166 -0.3897  0.0319  0.3898
   62SAPC   C12 4846   3.404   6.281  11.023 -0.2347  0.2867 -0.6817
   62SAPC  H12A 4847   3.469   6.196  11.004  0.4674  1.1542 -2.3100
   62SAPC  H12B 4848   3.436   6.349  10.946 -0.2311 -1.5876 -2.4158
   62SAPC   C13 4849   3.438   6.228  11.274  0.3814  0.6598  0.1221
   62SAPC  H13A 4850   3.336   6.201  11.295  1.1159 -3.8497 -0.9891
   62SAPC  H13B 4851   3.486   6.139  11.237 -0.5793 -0.2885  1.0816
   62SAPC  H13C 4852   3.480   6.273  11.362  2.0547 -2.3714  1.0124
   62SAPC   C14 4853   3.577   6.404  11.149 -0.2455  0.4728  0.5230
   62SAPC  H14A 4854   3.574   6.494  11.091 -0.4825  1.7036  2.3579
   62SAPC  H14B 4855   3.612   6.428  11.249 -0.2082  1.4685  0.2801
   62SAPC  H14C 4856   3.641   6.330  11.102  0.3868  1.8428 -0.8415
   62SAPC   C15 4857   3.338   6.435  11.212 -0.9377 -0.1429 -0.7916
   62SAPC  H15A 4858   3.238   6.394  11.222 -0.3766 -0.9486  3.2007
   62SAPC  H15B 4859   3.358   6.477  11.309 -1.7472  0.1735 -0.7526
   62SAPC  H15C 4860   3.331   6.518  11.143 -1.1908 -0.4333 -1.1229
   62SAPC   C11 4861   3.257   6.241  10.986 -0.2257  0.8291  0.6962
   62SAPC  H11A 4862   3.227   6.177  11.071  0.2438 -0.3693 -0.0126
   62SAPC  H11B 4863   3.259   6.175  10.897 -2.9360  1.5916 -0.0308
   62SAPC     P 4864   3.180   6.455  10.847 -0.4902 -0.0740  0.0210
   62SAPC   O13 4865   3.041   6.468  10.802  0.8273 -0.5104 -0.4171
   62SAPC   O14 4866   3.250   6.578  10.888  0.3202 -0.7755 -0.0404
   62SAPC   O12 4867   3.170   6.352  10.972  0.1016  0.2425  0.1464
   62SAPC   O11 4868   3.259   6.377  10.737 -0.0166 -0.1401  0.6869
   62SAPC    C1 4869   3.191   6.295  10.642  1.0833  0.3361  0.2352
   62SAPC    HA 4870   3.224   6.189  10.648  1.8860  0.3461 -2.5998
   62SAPC    HB 4871   3.081   6.301  10.652  1.3704  1.3020  4.1312
   62SAPC    C2 4872   3.226   6.336  10.494 -0.7239 -0.5669 -1.2167
   62SAPC    HS 4873   3.165   6.273  10.425 -0.5596 -0.2209 -1.6822
   62SAPC   O21 4874   3.364   6.318  10.459 -0.5550 -0.3447 -0.2456
   62SAPC   C21 4875   3.396   6.185  10.440 -0.0743 -0.7328 -0.8186
   62SAPC   O22 4876   3.320   6.090  10.431  0.4575 -0.0712  0.0525
   62SAPC   C22 4877   3.547   6.187  10.411 -0.6754  0.8312  0.3640
   62SAPC   H2R 4878   3.585   6.291  10.412 -0.5366  0.7768  1.1511
   62SAPC   H2S 4879   3.589   6.139  10.502  2.6787 -0.8458 -1.8327
   62SAPC    C3 4880   3.209   6.478  10.452  0.3842  0.7151 -0.0504
   62SAPC    HX 4881   3.249   6.489  10.349 -0.5935  0.4905 -0.4754
   62SAPC    HY 4882   3.275   6.542  10.514  2.4091 -1.4074  0.1111
   62SAPC   O31 4883   3.065   6.507  10.459  0.1088  0.6237  0.1776
   62SAPC   C31 4884   3.039   6.635  10.471 -0.4438  0.1862  0.6610
   62SAPC   O32 4885   3.133   6.715  10.492 -0.3072 -0.1560  0.1879
   62SAPC   C32 4886   2.890   6.659  10.448  0.0364  0.3754 -0.1613
   62SAPC   H2X 4887   2.871   6.766  10.467  0.8078  0.2926  1.2223
   62SAPC   H2Y 4888   2.829   6.612  10.528 -1.8196  1.1149 -1.1027
   62SAPC   C23 4889   3.598   6.096  10.297 -0.2883 -0.3894  0.3196
   62SAPC   H3R 4890   3.534   6.006  10.291 -1.9616  0.8193 -1.0125
   62SAPC   H3S 4891   3.704   6.076  10.320 -0.7038  0.5298  3.4460
   62SAPC   C24 4892   3.597   6.155  10.153  0.8584  0.5926 -0.9559
   62SAPC   H4R 4893   3.630   6.261  10.153  0.0627  0.8724 -2.7326
   62SAPC   H4S 4894   3.490   6.158  10.126 -0.2588 -1.9217  2.5453
   62SAPC   C25 4895   3.674   6.066  10.060  0.1653 -0.0569 -0.0351
   62SAPC   H5R 4896   3.619   5.974  10.034 -0.2752  0.1987 -0.0108
   62SAPC   C26 4897   3.779   6.106   9.985 -0.6521 -0.0326  0.2766
   62SAPC   H6R 4898   3.829   6.039   9.914  0.7759  1.4948 -0.2221
   62SAPC   C27 4899   3.846   6.244   9.998  0.0263 -0.2714 -0.7682
   62SAPC   H7R 4900   3.814   6.313  10.079  0.4698  0.8799 -1.5408
   62SAPC   H7S 4901   3.805   6.300   9.911  0.8592  3.6797  1.1207
   62SAPC   C28 4902   3.995   6.270   9.974  0.3085 -0.0341 -0.6957
   62SAPC   H8R 4903   4.052   6.304  10.061 -1.0757 -0.2100  0.3077
   62SAPC   C29 4904   4.064   6.248   9.864  0.2026 -0.0614 -0.2710
   62SAPC   H9R 4905   4.173   6.263   9.872  0.1732  0.2083 -0.3509
   62SAPC  C210 4906   4.014   6.210   9.725  0.4816  0.2928  0.1990
   62SAPC  H10R 4907   3.909   6.180   9.743  0.9288 -0.6846  1.3093
   62SAPC  H10S 4908   4.079   6.125   9.698 -0.2714 -0.3977  0.5326
   62SAPC  C211 4909   4.034   6.312   9.623  0.2420  0.2192  0.0758
   62SAPC  H11R 4910   4.122   6.376   9.643  0.4060  0.4323 -1.2387
   62SAPC  C212 4911   3.961   6.321   9.506  0.3049 -0.5427 -0.0016
   62SAPC  H12R 4912   3.991   6.392   9.428  1.6473  1.0147  1.8428
   62SAPC  C213 4913   3.860   6.223   9.464 -0.1751 -0.1606 -1.3974
   62SAPC  H13R 4914   3.881   6.125   9.513 -0.6020  0.7100  0.6558
   62SAPC  H13S 4915   3.875   6.218   9.354  0.0679 -0.4805 -1.3518
   62SAPC  C214 4916   3.719   6.251   9.503 -0.3987 -0.1948  0.1578
   62SAPC  H14R 4917   3.704   6.274   9.609 -2.8608  2.2796 -0.6113
   62SAPC  C215 4918   3.610   6.225   9.428 -0.3493  0.2645  0.1325
   62SAPC  H15R 4919   3.513   6.267   9.458 -1.0951 -0.3369 -1.3199
   62SAPC  C216 4920   3.614   6.175   9.283 -0.0043  0.2851 -0.0190
   62SAPC  H16R 4921   3.689   6.221   9.216 -0.7615  1.2800 -0.2148
   62SAPC  H16S 4922   3.522   6.214   9.235  0.8365  2.9968  0.4133
   62SAPC  C217 4923   3.612   6.020   9.265  1.0261  0.5871  0.0114
   62SAPC  H17R 4924   3.542   5.966   9.333  1.9238  0.1016  0.5723
   62SAPC  H17S 4925   3.708   5.976   9.301 -0.4331 -2.3106  0.6231
   62SAPC  C218 4926   3.565   5.962   9.128 -0.3342 -0.3948  0.0994
   62SAPC  H18R 4927   3.503   6.038   9.075  0.1886  1.9529  2.6326
   62SAPC  H18S 4928   3.504   5.870   9.144 -0.9694 -0.0470 -0.2883
   62SAPC  C219 4929   3.680   5.927   9.034  0.0879 -0.0169 -0.2248
   62SAPC  H19R 4930   3.740   5.843   9.076  1.2575  2.1024  2.6733
   62SAPC  H19S 4931   3.749   6.011   9.012 -0.2212  0.9484  2.2183
   62SAPC  C220 4932   3.620   5.885   8.898  0.3615  0.1157 -0.2020
   62SAPC  H20R 4933   3.528   5.941   8.874 -0.2652 -0.6579  0.3534
   62SAPC  H20S 4934   3.586   5.780   8.913  2.1888 -0.3985  0.7370
   62SAPC  H20T 4935   3.693   5.897   8.814  0.1790 -2.5311 -0.8290
   62SAPC   C33 4936   2.861   6.601  10.306  0.8140 -0.1094  0.0575
   62SAPC   H3X 4937   2.751   6.614  10.295  0.5571  0.1595  2.4374
   62SAPC   H3Y 4938   2.891   6.494  10.302  2.9314  0.4759 -1.8990
   62SAPC   C34 4939   2.918   6.682  10.189  0.0760 -0.1358 -0.0202
   62SAPC   H4X 4940   3.019   6.723  10.212  0.4120 -1.2822  0.6174
   62SAPC   H4Y 4941   2.859   6.776  10.181  2.1934  1.3582  0.9455
   62SAPC   C35 4942   2.933   6.600  10.064  0.2509  0.1759 -0.8432
   62SAPC   H5X 4943   2.829   6.577  10.030 -0.1107  0.7004 -0.1332
   62SAPC   H5Y 4944   2.963   6.494  10.082 -1.7065 -0.7806 -2.7339
   62SAPC   C36 4945   3.029   6.666   9.959  1.4457 -0.2642 -0.9427
   62SAPC   H6X 4946   3.128   6.665  10.009  0.4419  0.5200  1.1691
   62SAPC   H6Y 4947   3.004   6.774   9.965  0.4666 -0.5515  2.7362
   62SAPC   C37 4948   3.013   6.612   9.817  0.6957  0.6460  0.3401
   62SAPC   H7X 4949   2.905   6.619   9.796  0.6809  1.3579  0.6000
   62SAPC   H7Y 4950   3.036   6.504   9.821 -1.1557  0.2489  1.0795
   62SAPC   C38 4951   3.083   6.691   9.712  0.3246 -0.8049  0.0313
   62SAPC   H8X 4952   3.191   6.669   9.718  0.2776 -1.2666 -0.7203
   62SAPC   H8Y 4953   3.064   6.798   9.734  0.5001 -0.6387 -0.6074
   62SAPC   C39 4954   3.022   6.659   9.573  0.4910  0.1885  0.4860
   62SAPC   H9X 4955   2.916   6.693   9.570 -0.2127 -1.8917  0.6667
   62SAPC   H9Y 4956   3.040   6.550   9.569  0.2114  0.1592  0.0362
   62SAPC  C310 4957   3.088   6.742   9.464  0.1737  0.1560 -0.2346
   62SAPC  H10X 4958   3.198   6.754   9.475 -0.0938  0.6094  3.0131
   62SAPC  H10Y 4959   3.052   6.845   9.487 -0.6219 -0.8086  3.7229
   62SAPC  C311 4960   3.053   6.725   9.315 -0.5470  0.6141  0.2821
   62SAPC  H11X 4961   2.942   6.723   9.313 -0.5576 -1.2809  0.5474
   62SAPC  H11Y 4962   3.104   6.634   9.276  0.8260  0.6096  1.9606
   62SAPC  C312 4963   3.107   6.836   9.229  0.5928  0.4565 -0.1748
   62SAPC  H12X 4964   3.212   6.846   9.266 -0.1361  0.2722  2.1269
   62SAPC  H12Y 4965   3.050   6.927   9.254 -1.4640 -0.3234 -1.8026
   62SAPC  C313 4966   3.105   6.813   9.083  0.1744  0.1391  0.4931
   62SAPC  H13X 4967   3.168   6.723   9.069  1.1368  0.7582  0.7015
   62SAPC  H13Y 4968   3.165   6.898   9.043 -0.9534  2.1142  2.7421
   62SAPC  C314 4969   2.971   6.808   9.008  0.3922  0.2517 -0.2122
   62SAPC  H14X 4970   2.899   6.867   9.070  1.2747  1.0566  0.0675
   62SAPC  H14Y 4971   2.951   6.699   9.007  0.4181  0.2525 -0.6554
   62SAPC  C315 4972   2.988   6.864   8.861 -0.6123  0.1756 -0.4189
   62SAPC  H15X 4973   3.078   6.813   8.820 -1.0045 -2.1629  1.4477
   62SAPC  H15Y 4974   3.008   6.973   8.862  2.2243 -0.2624  1.8103
   62SAPC  C316 4975   2.864   6.820   8.785  0.4258  0.2282 -0.7116
   62SAPC  H16X 4976   2.775   6.876   8.820  1.7598  2.2002 -0.2651
   62SAPC  H16Y 4977   2.852   6.715   8.818 -1.2310  0.4239 -0.5836
   62SAPC  C317 4978   2.872   6.809   8.626 -0.1537 -0.7489 -0.2104
   62SAPC  H17X 4979   2.975   6.777   8.601  0.4676 -0.3416  1.7075
   62SAPC  H17Y 4980   2.859   6.907   8.576  1.0997  0.1827  1.2262
   62SAPC  C318 4981   2.782   6.698   8.573 -0.7158  0.1742 -0.6459
   62SAPC  H18X 4982   2.799   6.600   8.623  0.4166  0.5927 -0.1850
   62SAPC  H18Y 4983   2.809   6.679   8.467 -2.0851  0.7357 -1.1323
   62SAPC  H18Z 4984   2.675   6.728   8.574 -0.3941  1.4126 -1.1386
   63SAPC     N 4985   6.350   5.024   6.717 -0.2594  0.4820 -0.5802
   63SAPC   C12 4986   6.390   5.084   6.857 -0.2290  0.1076 -0.0925
   63SAPC  H12A 4987   6.477   5.028   6.888 -0.6312 -0.9359 -0.7931
   63SAPC  H12B 4988   6.309   5.070   6.927  1.3706 -2.3051  1.4363
   63SAPC   C13 4989   6.296   4.884   6.738 -0.2761  0.6708  0.0196
   63SAPC  H13A 4990   6.378   4.833   6.786  0.5105  0.9730 -0.9727
   63SAPC  H13B 4991   6.204   4.888   6.795  0.2633  1.2586  0.8812
   63SAPC  H13C 4992   6.264   4.841   6.644  0.1611 -0.1901  0.2569
   63SAPC   C14 4993   6.253   5.120   6.654  0.0290  0.7899 -0.5249
   63SAPC  H14A 4994   6.192   5.168   6.728  1.2586 -0.4921  1.4281
   63SAPC  H14B 4995   6.311   5.205   6.621 -0.1404  1.3903  0.6953
   63SAPC  H14C 4996   6.196   5.082   6.571 -0.3253  1.7675 -0.7428
   63SAPC   C15 4997   6.465   5.004   6.627 -0.4663  0.0684 -0.1418
   63SAPC  H15A 4998   6.514   5.096   6.600  1.8049 -0.7165  1.0888
   63SAPC  H15B 4999   6.538   4.937   6.670 -1.5879 -0.5572  0.8420
   63SAPC  H15C 5000   6.426   4.950   6.542 -2.0322  1.7437 -0.5510
   63SAPC   C11 5001   6.420   5.237   6.856  0.2219  0.1163 -0.7960
   63SAPC  H11A 5002   6.452   5.270   6.956  2.3656 -0.4237 -1.2461
   63SAPC  H11B 5003   6.328   5.294   6.832 -0.3485 -0.7932 -0.8197
   63SAPC     P 5004   6.530   5.387   6.660 -0.3494  0.0741 -0.3090
   63SAPC   O13 5005   6.671   5.383   6.612 -0.7633 -0.5217  0.2191
   63SAPC   O14 5006   6.419   5.391   6.572  0.4219  0.1758  0.5888
   63SAPC   O12 5007   6.518   5.264   6.752 -0.5058  0.3951  0.4292
   63SAPC   O11 5008   6.514   5.501   6.762 -0.3450  0.4871  0.1824
   63SAPC    C1 5009   6.628   5.528   6.848 -0.1613  0.6728  0.0269
   63SAPC    HA 5010   6.675   5.437   6.890  1.3722  2.0772  1.4999
   63SAPC    HB 5011   6.707   5.580   6.789  1.0590  0.2146  1.2125
   63SAPC    C2 5012   6.593   5.615   6.972  0.1043  0.5224 -0.3345
   63SAPC    HS 5013   6.521   5.547   7.023  1.4916 -1.3995 -0.8438
   63SAPC   O21 5014   6.535   5.738   6.924  0.5123  0.9926  0.3239
   63SAPC   C21 5015   6.460   5.795   7.017 -0.2004 -0.1472  0.7230
   63SAPC   O22 5016   6.426   5.741   7.121 -0.7070 -0.0536  0.5370
   63SAPC   C22 5017   6.427   5.935   6.978  0.0124  0.1389 -0.6988
   63SAPC   H2R 5018   6.513   6.002   6.999 -1.2673  1.0120  2.3171
   63SAPC   H2S 5019   6.404   5.926   6.870 -1.0943  0.4741 -0.5034
   63SAPC    C3 5020   6.716   5.647   7.060 -0.9555  0.4243  0.3389
   63SAPC    HX 5021   6.790   5.708   7.004  0.8910 -3.7239 -2.1900
   63SAPC    HY 5022   6.772   5.552   7.076 -1.0979 -0.0757 -1.7716
   63SAPC   O31 5023   6.684   5.714   7.185 -0.4948 -0.3092 -0.2882
   63SAPC   C31 5024   6.653   5.630   7.289  1.0231  0.1745  0.2374
   63SAPC   O32 5025   6.637   5.509   7.291  0.2130  0.4906  0.8681
   63SAPC   C32 5026   6.632   5.717   7.410  0.3889 -0.3126 -0.0606
   63SAPC   H2X 5027   6.525   5.746   7.407  0.3107 -0.6335 -0.3423
   63SAPC   H2Y 5028   6.684   5.814   7.393  0.5982 -0.5998 -1.1564
   63SAPC   C23 5029   6.301   5.987   7.045 -0.6147 -0.2736  0.3889
   63SAPC   H3R 5030   6.224   5.908   7.053 -1.2107  0.4258  2.3624
   63SAPC   H3S 5031   6.255   6.056   6.972 -1.1911 -0.4873  0.5457
   63SAPC   C24 5032   6.316   6.043   7.183 -0.7122  0.0782 -0.4505
   63SAPC   H4R 5033   6.396   6.120   7.178 -0.3353 -0.1708  1.1588
   63SAPC   H4S 5034   6.366   5.976   7.256  3.1432  1.5942 -1.4478
   63SAPC   C25 5035   6.182   6.086   7.243  0.1386  0.2561  0.0555
   63SAPC   H5R 5036   6.094   6.070   7.179  0.2666  1.0618 -0.3390
   63SAPC   C26 5037   6.172   6.129   7.371 -0.8118  0.7108  0.1081
   63SAPC   H6R 5038   6.074   6.139   7.420 -0.0125 -0.4844  2.1177
   63SAPC   C27 5039   6.289   6.135   7.464 -0.1158  0.0038 -0.0197
   63SAPC   H7R 5040   6.265   6.223   7.527 -2.5794  0.0066 -0.8622
   63SAPC   H7S 5041   6.386   6.156   7.414  0.6137 -1.0120  0.9230
   63SAPC   C28 5042   6.299   6.013   7.549 -0.5181  0.0962 -0.1215
   63SAPC   H8R 5043   6.272   5.923   7.492  0.4389 -1.4559  1.7606
   63SAPC   C29 5044   6.326   5.993   7.681 -0.6420  0.6781 -0.3952
   63SAPC   H9R 5045   6.334   5.893   7.726  1.7659  1.8914  2.2113
   63SAPC  C210 5046   6.356   6.100   7.776 -0.3238  0.4591 -0.1230
   63SAPC  H10R 5047   6.426   6.171   7.727 -0.9801  2.1395  1.2697
   63SAPC  H10S 5048   6.419   6.066   7.860  1.5444  2.8199 -0.4637
   63SAPC  C211 5049   6.227   6.166   7.820  0.3334  0.5328  0.4624
   63SAPC  H11R 5050   6.142   6.177   7.750 -0.1087 -0.8919  0.7427
   63SAPC  C212 5051   6.212   6.232   7.933 -0.8600  0.3887  0.2921
   63SAPC  H12R 5052   6.116   6.280   7.955 -0.9409  0.2651  0.2128
   63SAPC  C213 5053   6.323   6.255   8.033  0.0642  0.1689 -0.6502
   63SAPC  H13R 5054   6.312   6.362   8.061  0.0757  0.4733 -1.7700
   63SAPC  H13S 5055   6.424   6.243   7.989  1.8433  0.5433  2.9375
   63SAPC  C214 5056   6.330   6.161   8.155  0.2513 -0.4079  0.1452
   63SAPC  H14R 5057   6.304   6.056   8.133 -1.3656  0.3871 -2.1543
   63SAPC  C215 5058   6.358   6.194   8.281 -0.5283 -0.2914 -0.3489
   63SAPC  H15R 5059   6.351   6.131   8.371 -1.0891  0.5483  0.2110
   63SAPC  C216 5060   6.394   6.331   8.330 -0.1365  0.6023 -0.5275
   63SAPC  H16R 5061   6.379   6.411   8.254  2.8166  0.6048 -1.2428
   63SAPC  H16S 5062   6.499   6.340   8.365  0.0105 -1.8691 -0.1855
   63SAPC  C217 5063   6.309   6.369   8.459  0.4355  0.3662 -0.0380
   63SAPC  H17R 5064   6.349   6.313   8.546  1.8218  1.0242 -0.2172
   63SAPC  H17S 5065   6.202   6.347   8.444  0.3800  0.9862 -0.6026
   63SAPC  C218 5066   6.331   6.514   8.491 -0.1582 -0.1654 -0.1261
   63SAPC  H18R 5067   6.316   6.566   8.394 -0.7817 -1.7532 -0.9317
   63SAPC  H18S 5068   6.436   6.527   8.523  0.1393  1.3086 -1.5559
   63SAPC  C219 5069   6.242   6.570   8.608 -0.1044 -0.0340  0.4702
   63SAPC  H19R 5070   6.253   6.497   8.690  0.9630 -0.6359 -0.1948
   63SAPC  H19S 5071   6.133   6.558   8.587  0.0352  2.1699 -1.9943
   63SAPC  C220 5072   6.285   6.717   8.622  0.6101  0.6353  0.3654
   63SAPC  H20R 5073   6.226   6.770   8.699 -0.7228  0.6837 -0.6400
   63SAPC  H20S 5074   6.269   6.763   8.521  0.0904 -1.7605 -0.7033
   63SAPC  H20T 5075   6.393   6.735   8.637  0.6586  0.1516  0.5992
   63SAPC   C33 5076   6.679   5.640   7.535  0.0772  0.2610 -0.4070
   63SAPC   H3X 5077   6.786   5.613   7.520 -0.2433 -1.4924  0.2404
   63SAPC   H3Y 5078   6.621   5.546   7.535 -0.5010  0.5264  2.1093
   63SAPC   C34 5079   6.665   5.719   7.663  0.5498 -0.6050  0.0910
   63SAPC   H4X 5080   6.569   5.775   7.675  0.6996 -0.6230  1.6454
   63SAPC   H4Y 5081   6.747   5.793   7.675  0.2684 -0.4435  1.2266
   63SAPC   C35 5082   6.673   5.632   7.794  0.6205  0.4371  0.3432
   63SAPC   H5X 5083   6.776   5.592   7.801  0.9325  1.4629  2.0794
   63SAPC   H5Y 5084   6.602   5.548   7.781 -0.9999  1.9822 -1.7183
   63SAPC   C36 5085   6.637   5.712   7.918  0.3406  0.6020 -0.9651
   63SAPC   H6X 5086   6.533   5.750   7.928  0.1326 -0.3631  1.2148
   63SAPC   H6Y 5087   6.705   5.799   7.936  0.3005  0.2694  1.0301
   63SAPC   C37 5088   6.657   5.618   8.043 -0.1921  0.2302 -0.8473
   63SAPC   H7X 5089   6.764   5.587   8.041  0.1400  1.3739 -1.9181
   63SAPC   H7Y 5090   6.589   5.530   8.043  0.8399 -0.5921 -0.5041
   63SAPC   C38 5091   6.625   5.693   8.169  0.1634  0.5552 -0.6139
   63SAPC   H8X 5092   6.517   5.720   8.166  0.0245  0.1650  0.4459
   63SAPC   H8Y 5093   6.693   5.781   8.176  1.1221 -0.2386  0.4121
   63SAPC   C39 5094   6.652   5.612   8.293 -0.4184 -0.5020  0.3364
   63SAPC   H9X 5095   6.761   5.593   8.287 -0.5521 -1.0389 -0.7159
   63SAPC   H9Y 5096   6.594   5.517   8.300 -1.1773 -0.1069 -0.3671
   63SAPC  C310 5097   6.628   5.693   8.425  0.0870 -0.1390  0.0829
   63SAPC  H10X 5098   6.524   5.730   8.418 -0.0214 -0.3337  0.5993
   63SAPC  H10Y 5099   6.708   5.770   8.427 -0.3632  0.4068 -1.7201
   63SAPC  C311 5100   6.661   5.602   8.549  0.1268  0.0655 -0.1905
   63SAPC  H11X 5101   6.609   5.505   8.537 -1.0534  0.6948 -0.3219
   63SAPC  H11Y 5102   6.626   5.654   8.641  2.0438  1.1486 -0.0104
   63SAPC  C312 5103   6.813   5.601   8.559  0.6796 -0.3783 -0.6659
   63SAPC  H12X 5104   6.860   5.702   8.558  0.3991 -0.2363 -0.2093
   63SAPC  H12Y 5105   6.835   5.546   8.466 -1.7520 -0.6334 -1.1737
   63SAPC  C313 5106   6.850   5.509   8.677  0.2398 -0.3172 -0.1811
   63SAPC  H13X 5107   6.783   5.420   8.680 -0.1400 -0.0152  1.6289
   63SAPC  H13Y 5108   6.837   5.560   8.775 -1.3952 -0.5613 -0.2441
   63SAPC  C314 5109   6.994   5.459   8.672 -1.0837  0.6362 -0.1533
   63SAPC  H14X 5110   7.066   5.543   8.666 -1.0960  0.6220 -0.5631
   63SAPC  H14Y 5111   7.020   5.404   8.579  2.7594  1.1776  0.4337
   63SAPC  C315 5112   7.047   5.372   8.788 -0.2381  0.3359 -0.0196
   63SAPC  H15X 5113   7.045   5.447   8.870  0.8820 -1.2682  1.5368
   63SAPC  H15Y 5114   7.153   5.349   8.763  0.5267  3.5787 -0.2308
   63SAPC  C316 5115   6.967   5.251   8.825  1.2278 -0.0607 -0.0977
   63SAPC  H16X 5116   6.937   5.214   8.725  0.1319  0.6930 -0.0687
   63SAPC  H16Y 5117   6.873   5.292   8.867 -0.2381 -1.4469 -1.8390
   63SAPC  C317 5118   7.028   5.148   8.923  0.5816  0.1745  0.4664
   63SAPC  H17X 5119   6.954   5.071   8.954  1.8722 -1.0848  0.4998
   63SAPC  H17Y 5120   7.053   5.194   9.021 -0.7980 -0.0825  0.9681
   63SAPC  C318 5121   7.143   5.070   8.863 -0.2886  0.3487 -0.1491
   63SAPC  H18X 5122   7.108   4.980   8.807 -0.0361  1.9115 -2.9507
   63SAPC  H18Y 5123   7.200   5.048   8.956 -0.1531 -1.2375 -0.5801
   63SAPC  H18Z 5124   7.212   5.124   8.796  1.2800 -2.1605 -0.6768
   64SAPC     N 5125   2.306   6.142   5.861 -0.1176  0.4123 -0.5350
   64SAPC   C12 5126   2.270   6.207   5.996 -0.5204 -0.2382 -0.2167
   64SAPC  H12A 5127   2.163   6.216   6.008 -0.5043  1.1324 -0.8716
   64SAPC  H12B 5128   2.313   6.306   5.991 -2.6477  0.7494  0.4173
   64SAPC   C13 5129   2.245   6.003   5.856  0.7430  0.5188 -0.6477
   64SAPC  H13A 5130   2.291   5.948   5.937 -0.6353  1.1163  0.5923
   64SAPC  H13B 5131   2.139   6.015   5.867  0.8681  2.5571 -1.1889
   64SAPC  H13C 5132   2.262   5.965   5.757  2.3534 -1.3830  0.2872
   64SAPC   C14 5133   2.247   6.231   5.754 -0.1371 -0.5347  0.7145
   64SAPC  H14A 5134   2.278   6.189   5.660 -0.9885 -1.1169  0.6810
   64SAPC  H14B 5135   2.139   6.237   5.763 -0.2546  4.0692 -1.1412
   64SAPC  H14C 5136   2.284   6.332   5.765  2.6731 -1.5946  1.9022
   64SAPC   C15 5137   2.449   6.142   5.840 -0.6948 -0.5602 -0.9497
   64SAPC  H15A 5138   2.497   6.223   5.893 -1.1412 -0.5875 -0.4987
   64SAPC  H15B 5139   2.491   6.047   5.869  1.7203  0.9073  0.6573
   64SAPC  H15C 5140   2.492   6.138   5.740  0.5497 -0.8326 -0.4252
   64SAPC   C11 5141   2.334   6.141   6.118 -0.4379  0.2280 -0.0746
   64SAPC  H11A 5142   2.332   6.218   6.198  0.6766 -0.3863  0.5712
   64SAPC  H11B 5143   2.441   6.121   6.097 -0.6700 -1.8733  0.5266
   64SAPC     P 5144   2.102   6.037   6.197  0.0246  0.1484 -0.2775
   64SAPC   O13 5145   2.032   6.164   6.150 -0.1238 -0.5974 -0.0192
   64SAPC   O14 5146   2.035   5.911   6.170 -0.0502  0.1954  0.0082
   64SAPC   O12 5147   2.255   6.026   6.147  0.7621  0.3878  0.2526
   64SAPC   O11 5148   2.136   6.058   6.352  0.3874 -0.5136  0.5971
   64SAPC    C1 5149   2.243   6.012   6.426 -0.2559 -0.3048 -0.1221
   64SAPC    HA 5150   2.292   5.921   6.385  0.6071  0.5805 -1.0995
   64SAPC    HB 5151   2.310   6.097   6.450  0.4694 -0.9970  0.3740
   64SAPC    C2 5152   2.193   5.961   6.563  0.0643  0.5094 -0.0888
   64SAPC    HS 5153   2.117   5.880   6.549  1.2799 -0.6653 -0.0932
   64SAPC   O21 5154   2.129   6.071   6.642 -0.0095  0.3825  0.0153
   64SAPC   C21 5155   2.029   6.027   6.721 -0.3644  0.4745 -0.1128
   64SAPC   O22 5156   1.997   5.904   6.724  0.4569 -0.0296  0.1280
   64SAPC   C22 5157   1.958   6.135   6.805 -0.3458  0.0056 -0.2289
   64SAPC   H2R 5158   1.870   6.160   6.743 -0.0784 -2.1954 -1.6009
   64SAPC   H2S 5159   1.904   6.079   6.885 -0.1639  1.0351  0.6350
   64SAPC    C3 5160   2.311   5.894   6.653  0.0554 -0.7617  0.0524
   64SAPC    HX 5161   2.380   5.978   6.678  0.0135 -1.1140  1.4372
   64SAPC    HY 5162   2.362   5.826   6.582 -1.9302 -0.3508 -1.8679
   64SAPC   O31 5163   2.265   5.815   6.765 -0.0247 -0.0322 -0.0730
   64SAPC   C31 5164   2.282   5.865   6.887 -0.6495  0.2717 -0.6673
   64SAPC   O32 5165   2.350   5.963   6.909 -0.6471  0.0094  0.1426
   64SAPC   C32 5166   2.215   5.772   6.994  0.6400 -0.1832  0.0464
   64SAPC   H2X 5167   2.191   5.674   6.946  0.8856 -0.7754  1.1072
   64SAPC   H2Y 5168   2.116   5.819   7.012 -0.5426 -2.3698 -0.3600
   64SAPC   C23 5169   2.031   6.263   6.847  0.0537 -0.6048  0.7452
   64SAPC   H3R 5170   2.000   6.346   6.780  0.6387 -1.5394 -0.7392
   64SAPC   H3S 5171   2.140   6.262   6.828 -0.0599 -0.5861  0.0766
   64SAPC   C24 5172   2.019   6.300   6.995  0.3399  0.7370  0.3189
   64SAPC   H4R 5173   1.912   6.284   7.020 -0.5200  1.5244 -2.5605
   64SAPC   H4S 5174   2.039   6.409   7.006  0.9470  0.5533  1.1270
   64SAPC   C25 5175   2.107   6.220   7.084  0.9337  0.1455  0.6609
   64SAPC   H5R 5176   2.167   6.144   7.033  2.2026  0.9355  0.9279
   64SAPC   C26 5177   2.126   6.239   7.215 -0.8878  0.1493 -0.0623
   64SAPC   H6R 5178   2.194   6.167   7.262 -0.2535  0.4522 -0.4928
   64SAPC   C27 5179   2.070   6.340   7.312 -0.4809  0.0464  1.1272
   64SAPC   H7R 5180   1.976   6.387   7.276  1.9844  2.1023 -3.4752
   64SAPC   H7S 5181   2.142   6.424   7.301 -2.2071  1.3964 -0.7089
   64SAPC   C28 5182   2.051   6.295   7.456  0.0233 -0.0936  1.4389
   64SAPC   H8R 5183   1.955   6.243   7.464 -2.2831  3.7119  0.8500
   64SAPC   C29 5184   2.113   6.335   7.567 -0.0639  0.6960 -0.4164
   64SAPC   H9R 5185   2.093   6.281   7.661  2.3397  0.5807  0.0806
   64SAPC  C210 5186   2.233   6.425   7.572 -0.4475 -0.4027 -0.3771
   64SAPC  H10R 5187   2.277   6.449   7.472  2.9895 -2.3599  0.5092
   64SAPC  H10S 5188   2.315   6.372   7.624 -0.2234  1.7513  1.6342
   64SAPC  C211 5189   2.215   6.561   7.646 -0.2691 -0.4166 -0.2502
   64SAPC  H11R 5190   2.196   6.644   7.575 -3.5307  0.8041  1.8171
   64SAPC  C212 5191   2.234   6.588   7.775 -1.1582 -0.7206  0.7397
   64SAPC  H12R 5192   2.242   6.695   7.800 -0.9844 -0.5969  0.1742
   64SAPC  C213 5193   2.271   6.498   7.886  0.0614 -0.6442  0.2304
   64SAPC  H13R 5194   2.282   6.563   7.975 -0.6688  2.8342 -2.0265
   64SAPC  H13S 5195   2.378   6.477   7.862 -0.8163 -3.2253 -1.9303
   64SAPC  C214 5196   2.197   6.377   7.922 -0.1672 -0.1641 -0.0313
   64SAPC  H14R 5197   2.095   6.370   7.882  0.1541  0.3633 -0.9654
   64SAPC  C215 5198   2.246   6.289   8.015 -0.1015 -0.0982  0.2346
   64SAPC  H15R 5199   2.180   6.206   8.043  0.1908 -0.1892  0.6753
   64SAPC  C216 5200   2.374   6.301   8.097  0.9695  0.4818 -0.4920
   64SAPC  H16R 5201   2.418   6.399   8.068 -1.3007  1.6078 -0.3120
   64SAPC  H16S 5202   2.434   6.209   8.076 -0.9295 -0.5929 -1.4501
   64SAPC  C217 5203   2.336   6.296   8.242 -0.0559 -0.4762  0.3217
   64SAPC  H17R 5204   2.438   6.298   8.286  0.7841  1.5277 -1.5289
   64SAPC  H17S 5205   2.275   6.205   8.262 -1.4856  0.4236  0.2498
   64SAPC  C218 5206   2.262   6.421   8.293  0.0413  0.2249 -0.1324
   64SAPC  H18R 5207   2.163   6.430   8.242  0.4471 -0.3748 -1.0580
   64SAPC  H18S 5208   2.324   6.512   8.287  0.1030  0.2724  0.9922
   64SAPC  C219 5209   2.252   6.407   8.451 -0.6871  0.0974  0.1374
   64SAPC  H19R 5210   2.350   6.428   8.501 -0.8767 -0.1212  0.6118
   64SAPC  H19S 5211   2.210   6.311   8.486 -1.3433  0.5119  0.5032
   64SAPC  C220 5212   2.155   6.506   8.525 -0.0453  0.0080  0.0105
   64SAPC  H20R 5213   2.197   6.609   8.514  0.6526 -0.2169  0.4939
   64SAPC  H20S 5214   2.144   6.491   8.634  0.6592  0.4268  0.1475
   64SAPC  H20T 5215   2.053   6.502   8.482  0.4387 -0.9419 -1.0876
   64SAPC   C33 5216   2.284   5.747   7.128  0.1766 -0.2526 -0.5952
   64SAPC   H3X 5217   2.385   5.710   7.102  0.4813 -0.4598  0.8158
   64SAPC   H3Y 5218   2.233   5.673   7.193 -2.1111  0.2155 -1.7453
   64SAPC   C34 5219   2.312   5.878   7.208 -0.0990  0.0804 -0.8342
   64SAPC   H4X 5220   2.221   5.942   7.208  1.5086  2.5341 -0.0373
   64SAPC   H4Y 5221   2.391   5.930   7.151  1.4617  0.5493  1.6097
   64SAPC   C35 5222   2.348   5.856   7.359  0.2376 -0.2960 -0.3062
   64SAPC   H5X 5223   2.446   5.805   7.358 -0.3733 -1.5263 -0.0410
   64SAPC   H5Y 5224   2.282   5.783   7.411  2.5461 -1.4445  1.1717
   64SAPC   C36 5225   2.369   5.992   7.433 -1.0282  0.2796 -0.1105
   64SAPC   H6X 5226   2.269   6.040   7.445 -1.1125 -0.3586  2.2721
   64SAPC   H6Y 5227   2.441   6.052   7.374  0.8566  1.4074  3.0632
   64SAPC   C37 5228   2.432   5.992   7.573 -0.0567 -0.1578  0.7507
   64SAPC   H7X 5229   2.439   6.095   7.613  0.8409  0.9417 -1.9858
   64SAPC   H7Y 5230   2.537   5.956   7.576 -0.1778 -0.6040 -0.1139
   64SAPC   C38 5231   2.345   5.912   7.668  0.0527  0.8455  0.0034
   64SAPC   H8X 5232   2.355   5.806   7.635  1.4478 -0.3689  3.8393
   64SAPC   H8Y 5233   2.235   5.928   7.658 -0.0263 -0.4828 -1.7902
   64SAPC   C39 5234   2.390   5.921   7.813  0.5926  0.0807  0.2327
   64SAPC   H9X 5235   2.384   6.028   7.840 -0.3113 -0.2361  1.3662
   64SAPC   H9Y 5236   2.495   5.884   7.809  0.1304 -1.1721 -1.0811
   64SAPC  C310 5237   2.318   5.818   7.910  0.5389  0.0190  1.0488
   64SAPC  H10X 5238   2.304   5.719   7.863  1.5490 -0.5792  1.9660
   64SAPC  H10Y 5239   2.214   5.854   7.931  0.3707  0.6918 -0.7635
   64SAPC  C311 5240   2.380   5.810   8.051 -0.3965 -0.2513  0.5113
   64SAPC  H11X 5241   2.359   5.903   8.107  1.8653  0.0560  0.9489
   64SAPC  H11Y 5242   2.487   5.787   8.029 -0.6548 -0.7681 -0.2372
   64SAPC  C312 5243   2.338   5.686   8.137  0.3767  0.5366  0.0365
   64SAPC  H12X 5244   2.362   5.591   8.086 -0.6473  0.5690 -0.5193
   64SAPC  H12Y 5245   2.230   5.701   8.159  0.2932  0.1315 -0.0911
   64SAPC  C313 5246   2.408   5.680   8.279 -0.7939  0.1397  0.3105
   64SAPC  H13X 5247   2.379   5.770   8.338 -0.7490 -0.1634  0.8043
   64SAPC  H13Y 5248   2.519   5.679   8.268 -0.8513  0.8296 -0.4120
   64SAPC  C314 5249   2.371   5.562   8.365  0.5715  0.1991  0.1651
   64SAPC  H14X 5250   2.417   5.467   8.331 -0.8540 -0.4577 -0.0157
   64SAPC  H14Y 5251   2.261   5.554   8.356  0.8189 -1.8343 -2.4371
   64SAPC  C315 5252   2.401   5.583   8.513 -0.6627 -0.7497 -0.1169
   64SAPC  H15X 5253   2.359   5.680   8.547 -0.0185 -0.7775  0.7882
   64SAPC  H15Y 5254   2.511   5.586   8.527 -0.1590  0.6134 -3.4626
   64SAPC  C316 5255   2.319   5.483   8.600 -0.1139  0.2518 -0.7275
   64SAPC  H16X 5256   2.324   5.381   8.556  0.3768  0.3978 -1.0311
   64SAPC  H16Y 5257   2.215   5.519   8.610  0.9438  3.0158  1.8613
   64SAPC  C317 5258   2.373   5.457   8.741  0.3511 -0.0633  0.3887
   64SAPC  H17X 5259   2.295   5.408   8.802 -1.5992 -0.4804 -2.2534
   64SAPC  H17Y 5260   2.381   5.562   8.779 -1.3936  0.1547  0.2245
   64SAPC  C318 5261   2.506   5.382   8.750  0.6072 -0.6946 -0.5524
   64SAPC  H18X 5262   2.544   5.386   8.854  0.6177  1.5796 -0.5943
   64SAPC  H18Y 5263   2.584   5.431   8.688 -0.0076 -0.9045 -1.5196
   64SAPC  H18Z 5264   2.493   5.274   8.727  1.0257 -0.5692 -1.4260
   65SAPC     N 5265   2.682   1.908   6.165  0.3059  0.3398  0.5867
   65SAPC   C12 5266   2.620   2.051   6.166 -0.9154  0.4548 -0.1535
   65SAPC  H12A 5267   2.515   2.045   6.142 -0.1438 -1.0548 -3.8967
   65SAPC  H12B 5268   2.668   2.121   6.099 -0.3201  2.9987  2.6903
   65SAPC   C13 5269   2.588   1.818   6.234  0.7284 -0.3687  0.3368
   65SAPC  H13A 5270   2.496   1.813   6.177  1.1992  1.0699 -0.5815
   65SAPC  H13B 5271   2.634   1.721   6.225  3.2797  0.9349 -1.8405
   65SAPC  H13C 5272   2.578   1.843   6.339  1.1627 -2.2431  0.8647
   65SAPC   C14 5273   2.690   1.865   6.019 -0.6243  0.2133 -0.2888
   65SAPC  H14A 5274   2.754   1.935   5.967 -0.0442 -0.0012  0.1260
   65SAPC  H14B 5275   2.753   1.778   6.010 -0.9390 -0.3274  2.1383
   65SAPC  H14C 5276   2.593   1.860   5.971 -1.4333  3.8962  0.6480
   65SAPC   C15 5277   2.813   1.908   6.223  0.9949  0.2978 -0.2598
   65SAPC  H15A 5278   2.851   1.807   6.232  0.0754  0.1183  2.2478
   65SAPC  H15B 5279   2.877   1.980   6.175  1.7535  1.8148  2.7748
   65SAPC  H15C 5280   2.812   1.952   6.322  0.4201  1.3437 -0.7151
   65SAPC   C11 5281   2.623   2.118   6.304 -0.2365  0.5032  0.2427
   65SAPC  H11A 5282   2.730   2.125   6.333 -0.0967 -1.5237  0.3749
   65SAPC  H11B 5283   2.574   2.045   6.372 -0.8958 -0.7445 -1.4923
   65SAPC     P 5284   2.639   2.370   6.300 -0.0354 -0.3054 -0.1142
   65SAPC   O13 5285   2.784   2.343   6.314  0.2655  0.8713  0.4957
   65SAPC   O14 5286   2.607   2.447   6.179  0.2481  0.1141  0.1690
   65SAPC   O12 5287   2.557   2.237   6.290  0.0011  0.4352  0.1975
   65SAPC   O11 5288   2.586   2.454   6.428 -0.1842 -0.1242  0.7380
   65SAPC    C1 5289   2.668   2.487   6.532 -0.2210  0.4961 -0.4868
   65SAPC    HA 5290   2.765   2.521   6.489  0.0442  1.0183  0.4990
   65SAPC    HB 5291   2.623   2.571   6.589  0.3620 -2.1046  4.3359
   65SAPC    C2 5292   2.699   2.374   6.633 -0.3214  1.0938 -0.9586
   65SAPC    HS 5293   2.755   2.296   6.578  1.1753  0.9936  0.6206
   65SAPC   O21 5294   2.578   2.305   6.683 -0.0767 -0.0287  0.3014
   65SAPC   C21 5295   2.589   2.190   6.748  0.0394 -0.0168 -0.0533
   65SAPC   O22 5296   2.692   2.130   6.758 -0.3156  0.3231 -0.1110
   65SAPC   C22 5297   2.453   2.138   6.794 -0.1145 -0.3793  0.2323
   65SAPC   H2R 5298   2.383   2.217   6.828 -1.9392 -1.3777 -1.0203
   65SAPC   H2S 5299   2.414   2.089   6.702 -1.0264 -3.2119  1.9923
   65SAPC    C3 5300   2.786   2.419   6.748  0.1226 -0.0988  1.2538
   65SAPC    HX 5301   2.883   2.459   6.711 -0.8537  2.4904  1.2870
   65SAPC    HY 5302   2.810   2.333   6.815  1.1806 -0.2337  0.7311
   65SAPC   O31 5303   2.718   2.523   6.823 -0.3945 -0.3915  0.4784
   65SAPC   C31 5304   2.648   2.492   6.930 -0.4455  0.3820  0.1308
   65SAPC   O32 5305   2.659   2.385   6.986  0.0518 -0.2816 -0.1388
   65SAPC   C32 5306   2.560   2.612   6.963 -0.3295 -0.9473 -0.3287
   65SAPC   H2X 5307   2.459   2.608   6.916 -0.0466  2.8766 -1.6298
   65SAPC   H2Y 5308   2.600   2.705   6.916  0.4558 -2.5799 -3.1465
   65SAPC   C23 5309   2.469   2.031   6.904  0.2194 -0.6181  0.9620
   65SAPC   H3R 5310   2.532   2.070   6.988  0.1724 -0.5662  0.9725
   65SAPC   H3S 5311   2.526   1.944   6.865 -0.2881  0.1486 -1.6520
   65SAPC   C24 5312   2.340   1.972   6.961 -0.3520  0.4050  0.0862
   65SAPC   H4R 5313   2.373   1.914   7.049  1.1762  0.4042 -0.4496
   65SAPC   H4S 5314   2.301   1.896   6.890  2.6561 -0.7377 -0.5148
   65SAPC   C25 5315   2.228   2.073   6.985  0.1893 -0.1905  0.5251
   65SAPC   H5R 5316   2.145   2.085   6.913  1.4136  0.1721 -0.8738
   65SAPC   C26 5317   2.226   2.155   7.097 -0.0689 -0.0695  0.1578
   65SAPC   H6R 5318   2.138   2.221   7.095 -0.1140 -0.1360 -0.1207
   65SAPC   C27 5319   2.327   2.170   7.209 -0.2616  0.1329  0.1688
   65SAPC   H7R 5320   2.424   2.131   7.171 -1.3347 -3.0476  0.3926
   65SAPC   H7S 5321   2.291   2.104   7.291 -1.1662  0.6527  0.1913
   65SAPC   C28 5322   2.348   2.310   7.255 -0.1885 -0.4733 -0.3958
   65SAPC   H8R 5323   2.414   2.364   7.185  0.5032 -0.9849 -0.1442
   65SAPC   C29 5324   2.307   2.368   7.365 -0.0842  0.1984 -0.0537
   65SAPC   H9R 5325   2.328   2.475   7.379 -0.3741  0.2030  0.3841
   65SAPC  C210 5326   2.220   2.298   7.468 -0.3082 -0.1783 -0.5255
   65SAPC  H10R 5327   2.128   2.262   7.416 -0.2154 -1.1786 -0.0225
   65SAPC  H10S 5328   2.190   2.373   7.543  0.5563  1.5461 -1.8351
   65SAPC  C211 5329   2.277   2.172   7.538  0.3247 -0.2675 -0.2154
   65SAPC  H11R 5330   2.287   2.084   7.474  0.2990  0.2490 -0.9385
   65SAPC  C212 5331   2.308   2.165   7.669  0.6371  0.3362  0.3125
   65SAPC  H12R 5332   2.349   2.069   7.705  0.0726  0.2544  0.7557
   65SAPC  C213 5333   2.276   2.270   7.772 -0.2972  0.2235 -0.1413
   65SAPC  H13R 5334   2.176   2.313   7.752 -1.0093  0.6314  3.5243
   65SAPC  H13S 5335   2.344   2.357   7.757 -0.6269  0.3871 -0.7108
   65SAPC  C214 5336   2.286   2.221   7.918 -0.4360 -0.7222 -0.4622
   65SAPC  H14R 5337   2.386   2.181   7.942 -0.6281  0.7236  3.6738
   65SAPC  C215 5338   2.193   2.210   8.013  0.6013 -0.1839  0.6218
   65SAPC  H15R 5339   2.215   2.164   8.110 -0.1204 -0.4487  0.6631
   65SAPC  C216 5340   2.042   2.251   7.993 -0.3898 -0.3223 -0.2668
   65SAPC  H16R 5341   1.979   2.160   8.006 -0.4431 -0.4088 -1.0539
   65SAPC  H16S 5342   2.021   2.279   7.887 -0.6835  2.0504  0.3484
   65SAPC  C217 5343   2.014   2.369   8.089  0.8643  0.7042  0.2849
   65SAPC  H17R 5344   1.913   2.407   8.061  1.3920  0.9283 -1.3715
   65SAPC  H17S 5345   2.084   2.450   8.061  0.0294  0.9591 -1.1320
   65SAPC  C218 5346   2.014   2.330   8.230 -0.0149  0.0418 -0.5827
   65SAPC  H18R 5347   2.112   2.283   8.254  0.1646  2.1659  3.6495
   65SAPC  H18S 5348   1.933   2.258   8.250 -0.1973  0.2714 -0.4809
   65SAPC  C219 5349   1.999   2.451   8.321  0.0772  0.7801 -0.0041
   65SAPC  H19R 5350   2.073   2.527   8.289  2.4258 -1.6279 -0.6115
   65SAPC  H19S 5351   2.029   2.410   8.420  0.2513  1.6592  0.3175
   65SAPC  C220 5352   1.859   2.514   8.327  0.1967  0.8868  0.1502
   65SAPC  H20R 5353   1.790   2.441   8.375  0.1212  1.3222  0.7074
   65SAPC  H20S 5354   1.830   2.544   8.224  1.3678  1.8450  0.0786
   65SAPC  H20T 5355   1.871   2.606   8.389  1.0430  0.4089  0.7051
   65SAPC   C33 5356   2.544   2.631   7.117  0.6389 -0.8676 -0.2678
   65SAPC   H3X 5357   2.494   2.551   7.176 -0.8851 -0.0741 -0.4312
   65SAPC   H3Y 5358   2.479   2.721   7.124 -0.1452 -1.4963  0.8632
   65SAPC   C34 5359   2.670   2.675   7.203  0.4530 -0.1295  0.8005
   65SAPC   H4X 5360   2.726   2.749   7.143 -2.0433 -0.2444 -1.9355
   65SAPC   H4Y 5361   2.723   2.578   7.214 -1.3266 -1.0348  2.0411
   65SAPC   C35 5362   2.634   2.739   7.335  0.1213 -0.0029 -0.1977
   65SAPC   H5X 5363   2.576   2.831   7.312 -0.7817  0.3860  3.0788
   65SAPC   H5Y 5364   2.726   2.767   7.390 -0.7062 -0.8158  1.6890
   65SAPC   C36 5365   2.548   2.653   7.420 -0.5197  0.0218 -0.0032
   65SAPC   H6X 5366   2.590   2.549   7.415  0.5749  0.4680 -0.6323
   65SAPC   H6Y 5367   2.449   2.644   7.370 -0.3065 -2.1301 -0.1323
   65SAPC   C37 5368   2.540   2.686   7.574  1.0918  0.3533 -0.1601
   65SAPC   H7X 5369   2.482   2.781   7.566 -0.3311 -0.4087  0.7469
   65SAPC   H7Y 5370   2.638   2.710   7.621  0.9614 -0.1363  0.3709
   65SAPC   C38 5371   2.464   2.593   7.669 -0.8754  0.3998 -0.5639
   65SAPC   H8X 5372   2.530   2.508   7.695 -1.5505  0.6827  2.3381
   65SAPC   H8Y 5373   2.381   2.537   7.621 -0.8560 -1.3963  1.4029
   65SAPC   C39 5374   2.417   2.670   7.787 -0.2369 -1.0799  0.6783
   65SAPC   H9X 5375   2.325   2.727   7.761  1.5295  2.2787  1.1983
   65SAPC   H9Y 5376   2.493   2.746   7.818 -1.1131 -0.8287  2.3490
   65SAPC  C310 5377   2.382   2.579   7.910 -0.6371 -0.2703 -0.3552
   65SAPC  H10X 5378   2.468   2.516   7.939 -1.7428 -0.9282  1.6952
   65SAPC  H10Y 5379   2.303   2.508   7.880  1.0777 -1.6264 -1.9290
   65SAPC  C311 5380   2.346   2.660   8.030  0.5625  0.1989  0.3383
   65SAPC  H11X 5381   2.247   2.706   8.014  1.0667  0.5587 -2.2301
   65SAPC  H11Y 5382   2.429   2.733   8.036 -0.0582  0.9139  0.3181
   65SAPC  C312 5383   2.364   2.590   8.164  0.0188  0.2375 -0.1849
   65SAPC  H12X 5384   2.474   2.575   8.165  0.5176  3.3049 -0.2735
   65SAPC  H12Y 5385   2.300   2.499   8.171  1.0963 -0.5356 -0.1081
   65SAPC  C313 5386   2.328   2.680   8.277  0.4404 -0.2172  0.4010
   65SAPC  H13X 5387   2.223   2.717   8.273 -0.2906 -2.2226 -0.0317
   65SAPC  H13Y 5388   2.399   2.766   8.276 -0.1156  0.2697  1.4151
   65SAPC  C314 5389   2.336   2.606   8.410  0.7368  0.2552 -0.2658
   65SAPC  H14X 5390   2.438   2.565   8.429  0.5622  0.2848  0.8270
   65SAPC  H14Y 5391   2.268   2.519   8.419 -0.3190  1.0318 -0.5590
   65SAPC  C315 5392   2.299   2.698   8.534 -1.0263 -0.3271 -0.0544
   65SAPC  H15X 5393   2.299   2.630   8.622 -2.2934  0.5814  0.6835
   65SAPC  H15Y 5394   2.196   2.739   8.525  0.0365  3.0119  1.4102
   65SAPC  C316 5395   2.395   2.813   8.562  0.5153  0.2902  0.1382
   65SAPC  H16X 5396   2.383   2.902   8.496 -2.6322 -0.6411 -0.7001
   65SAPC  H16Y 5397   2.495   2.775   8.531  0.9391  2.9335 -2.1632
   65SAPC  C317 5398   2.407   2.849   8.708  0.0500  0.3977 -0.0950
   65SAPC  H17X 5399   2.484   2.930   8.706  1.3722 -0.8163 -2.4733
   65SAPC  H17Y 5400   2.441   2.768   8.776 -2.4102 -1.4440 -0.9352
   65SAPC  C318 5401   2.275   2.911   8.759 -0.0203  0.6399  0.9892
   65SAPC  H18X 5402   2.195   2.835   8.752 -0.3169  1.0653 -0.7530
   65SAPC  H18Y 5403   2.252   3.003   8.701  1.5474  0.4702  0.0316
   65SAPC  H18Z 5404   2.285   2.942   8.866 -1.1844 -0.7990  1.5431
   66SAPC     N 5405   5.916   6.323   6.347  0.7681  0.2523 -0.0867
   66SAPC   C12 5406   6.029   6.411   6.388  0.2270  0.4190 -0.3018
   66SAPC  H12A 5407   6.071   6.469   6.306  1.7090  2.2339  1.6107
   66SAPC  H12B 5408   6.102   6.341   6.427 -0.4128  0.2909  0.6940
   66SAPC   C13 5409   5.865   6.250   6.470  0.6189  0.4907 -0.8394
   66SAPC  H13A 5410   5.857   6.303   6.563  1.7186 -1.5887  0.5272
   66SAPC  H13B 5411   5.765   6.210   6.461  1.0496 -0.2287 -2.8978
   66SAPC  H13C 5412   5.930   6.168   6.497  0.0973  0.2658 -0.2399
   66SAPC   C14 5413   5.796   6.400   6.299  0.5920 -0.0691  0.5045
   66SAPC  H14A 5414   5.701   6.350   6.284  0.5409 -1.0985  3.6324
   66SAPC  H14B 5415   5.771   6.484   6.362  1.0532  0.3636  0.1207
   66SAPC  H14C 5416   5.809   6.450   6.204 -0.8801  1.3749  1.0032
   66SAPC   C15 5417   5.950   6.218   6.246  0.7098  0.5404  0.0525
   66SAPC  H15A 5418   5.862   6.160   6.221  1.3612 -0.4326 -0.0345
   66SAPC  H15B 5419   5.975   6.271   6.155 -0.6980 -0.3888 -0.9374
   66SAPC  H15C 5420   6.031   6.156   6.281  1.9469  3.1397  2.0837
   66SAPC   C11 5421   6.002   6.519   6.494  0.4347  0.3872  0.3293
   66SAPC  H11A 5422   6.098   6.567   6.522  0.9651  1.7361 -3.3236
   66SAPC  H11B 5423   5.959   6.477   6.587 -1.2697  2.0252  0.3514
   66SAPC     P 5424   5.945   6.738   6.351 -0.1970  0.3444 -0.2900
   66SAPC   O13 5425   6.062   6.705   6.271  0.1053  0.2291 -0.0687
   66SAPC   O14 5426   5.821   6.790   6.288  0.2583 -0.1576  0.0965
   66SAPC   O12 5427   5.904   6.609   6.442 -0.9117 -0.2531  0.1607
   66SAPC   O11 5428   5.987   6.843   6.471 -0.2173 -0.8873  0.3954
   66SAPC    C1 5429   5.888   6.869   6.568 -0.2531  0.4048 -0.3405
   66SAPC    HA 5430   5.790   6.845   6.523 -0.0777  0.5771 -0.8138
   66SAPC    HB 5431   5.900   6.793   6.649 -0.9204  0.0704 -0.5546
   66SAPC    C2 5432   5.882   7.010   6.623  0.4748 -0.3719 -0.0620
   66SAPC    HS 5433   5.902   7.082   6.541 -1.7797 -0.8683 -1.1065
   66SAPC   O21 5434   5.974   7.027   6.732  0.3781 -0.3456 -0.0990
   66SAPC   C21 5435   6.100   7.004   6.721  0.3096  0.4161 -0.6790
   66SAPC   O22 5436   6.168   6.997   6.623  0.0839  0.1697 -0.3155
   66SAPC   C22 5437   6.156   6.984   6.863  0.3272 -0.9024 -0.5505
   66SAPC   H2R 5438   6.236   7.059   6.876  1.1893 -1.9376  0.2815
   66SAPC   H2S 5439   6.079   7.008   6.941  0.7838  1.5990 -0.8016
   66SAPC    C3 5440   5.738   7.034   6.685  0.1086 -0.2516  0.7185
   66SAPC    HX 5441   5.686   7.063   6.591  3.9671 -0.1674 -1.6208
   66SAPC    HY 5442   5.735   7.135   6.731  0.4035  0.3930 -0.6122
   66SAPC   O31 5443   5.680   6.919   6.746  0.0719 -0.0245 -0.3197
   66SAPC   C31 5444   5.552   6.942   6.783  0.3625  0.8185 -0.2183
   66SAPC   O32 5445   5.491   7.045   6.761  0.3982 -0.7286  0.7047
   66SAPC   C32 5446   5.499   6.821   6.866 -0.2018  0.4564  0.2410
   66SAPC   H2X 5447   5.551   6.727   6.836 -2.6120 -0.2377 -2.1718
   66SAPC   H2Y 5448   5.393   6.805   6.836  0.5683 -2.1639 -1.5023
   66SAPC   C23 5449   6.206   6.841   6.891  0.1319  0.1366  0.1114
   66SAPC   H3R 5450   6.270   6.806   6.807 -0.6575 -3.2740  0.7532
   66SAPC   H3S 5451   6.125   6.764   6.894  1.0094 -0.9539 -1.8823
   66SAPC   C24 5452   6.304   6.835   7.013  0.0115  0.3020 -0.7395
   66SAPC   H4R 5453   6.387   6.907   6.995  0.2396  0.1422 -0.3281
   66SAPC   H4S 5454   6.339   6.730   7.006 -0.7580  0.0011 -0.2726
   66SAPC   C25 5455   6.230   6.849   7.143  0.6893 -0.4530 -0.4896
   66SAPC   H5R 5456   6.153   6.771   7.155  2.8869 -2.7719 -0.6473
   66SAPC   C26 5457   6.244   6.951   7.235 -0.1160  0.1929  0.0516
   66SAPC   H6R 5458   6.183   6.940   7.325 -0.9888  2.1004 -0.2682
   66SAPC   C27 5459   6.357   7.047   7.240 -0.8050  0.2374 -0.1172
   66SAPC   H7R 5460   6.324   7.152   7.250 -1.4143  0.0744 -0.3835
   66SAPC   H7S 5461   6.407   7.043   7.140  1.8339 -0.5326  1.1426
   66SAPC   C28 5462   6.465   7.008   7.342 -0.4975 -0.0577  0.0867
   66SAPC   H8R 5463   6.488   6.901   7.331  1.3791  0.5106 -2.5323
   66SAPC   C29 5464   6.517   7.065   7.452 -0.1535  0.0433  0.0235
   66SAPC   H9R 5465   6.599   7.022   7.511  0.6690  0.2795 -0.9395
   66SAPC  C210 5466   6.489   7.204   7.499  0.2058  0.5426  0.3262
   66SAPC  H10R 5467   6.437   7.208   7.597 -1.5724 -2.4061 -0.3358
   66SAPC  H10S 5468   6.426   7.259   7.425  2.0246 -0.9981 -2.5794
   66SAPC  C211 5469   6.613   7.287   7.510  0.5825  0.1253 -0.2548
   66SAPC  H11R 5470   6.665   7.277   7.607 -3.1563 -1.1702  1.8188
   66SAPC  C212 5471   6.667   7.371   7.423 -0.1406 -0.5972 -0.2046
   66SAPC  H12R 5472   6.761   7.421   7.449  1.2602 -2.5096 -1.2852
   66SAPC  C213 5473   6.626   7.398   7.277  0.4488 -1.0121  0.5202
   66SAPC  H13R 5474   6.663   7.498   7.249 -0.0749 -0.8819  0.2732
   66SAPC  H13S 5475   6.515   7.393   7.265  0.5221 -1.2780 -0.1016
   66SAPC  C214 5476   6.686   7.305   7.183 -0.6571  0.1414  0.0148
   66SAPC  H14R 5477   6.782   7.266   7.220 -0.0397  1.9072  0.3638
   66SAPC  C215 5478   6.648   7.280   7.058  0.3918 -0.5270  1.0450
   66SAPC  H15R 5479   6.709   7.215   6.994 -0.0880 -0.3071  0.3477
   66SAPC  C216 5480   6.520   7.338   6.998 -0.8627  0.1469  0.1555
   66SAPC  H16R 5481   6.542   7.440   6.960 -1.9568 -0.5807 -2.7368
   66SAPC  H16S 5482   6.428   7.348   7.059 -1.5397  0.9910 -0.9526
   66SAPC  C217 5483   6.469   7.260   6.872  0.0451 -0.4186 -0.5738
   66SAPC  H17R 5484   6.366   7.299   6.861 -0.3714  0.0609  3.4516
   66SAPC  H17S 5485   6.464   7.153   6.898  0.5290  0.0013  1.4301
   66SAPC  C218 5486   6.549   7.273   6.737 -0.2163 -0.3673 -0.3010
   66SAPC  H18R 5487   6.651   7.229   6.732 -0.8440 -1.8529 -0.7001
   66SAPC  H18S 5488   6.552   7.380   6.707 -1.8471 -0.3232 -0.3930
   66SAPC  C219 5489   6.456   7.211   6.620 -0.8097  0.5501 -0.4153
   66SAPC  H19R 5490   6.359   7.264   6.632 -0.2820  1.9427 -1.9722
   66SAPC  H19S 5491   6.443   7.103   6.642  0.0734  0.3698 -0.7201
   66SAPC  C220 5492   6.499   7.222   6.477 -0.0561 -0.6232  0.6520
   66SAPC  H20R 5493   6.418   7.198   6.405 -1.0318  1.4204  0.9912
   66SAPC  H20S 5494   6.588   7.156   6.463  1.0122  0.8318  0.3534
   66SAPC  H20T 5495   6.537   7.321   6.445  2.4789 -1.2473  1.4545
   66SAPC   C33 5496   5.506   6.842   7.022 -0.1103  0.2674  0.1168
   66SAPC   H3X 5497   5.609   6.865   7.057  1.0299 -0.4404 -2.5214
   66SAPC   H3Y 5498   5.481   6.743   7.065  1.0474 -0.5296 -0.9794
   66SAPC   C34 5499   5.401   6.940   7.061  0.1568 -0.0447  0.4112
   66SAPC   H4X 5500   5.301   6.892   7.072  0.8132 -1.7093 -0.4520
   66SAPC   H4Y 5501   5.397   7.027   6.993 -0.4207 -1.4736 -1.4836
   66SAPC   C35 5502   5.431   7.016   7.192 -0.1266  0.4038 -0.3394
   66SAPC   H5X 5503   5.379   7.114   7.191  1.2614  1.1665 -0.9299
   66SAPC   H5Y 5504   5.541   7.035   7.189  0.0963 -0.9430 -2.0527
   66SAPC   C36 5505   5.382   6.943   7.323 -0.0818  0.3893 -0.4936
   66SAPC   H6X 5506   5.420   6.839   7.319  2.5057  1.2582 -0.5142
   66SAPC   H6Y 5507   5.271   6.947   7.332 -0.0403 -1.8527  2.4505
   66SAPC   C37 5508   5.435   7.003   7.453  0.2643  0.6690  0.5500
   66SAPC   H7X 5509   5.412   7.112   7.454 -0.7979  0.4694 -0.4634
   66SAPC   H7Y 5510   5.542   6.973   7.453 -0.3530 -2.1889 -2.5935
   66SAPC   C38 5511   5.370   6.947   7.582 -0.2281  0.0112 -0.1631
   66SAPC   H8X 5512   5.379   6.837   7.581 -1.3975 -0.1001 -1.5172
   66SAPC   H8Y 5513   5.264   6.979   7.588 -0.3649 -0.6914  2.6759
   66SAPC   C39 5514   5.442   7.008   7.703  0.4947  0.1341 -0.0737
   66SAPC   H9X 5515   5.461   7.117   7.696 -1.4701  0.5016 -0.0921
   66SAPC   H9Y 5516   5.543   6.964   7.720  0.7005  0.4517 -0.4827
   66SAPC  C310 5517   5.356   7.000   7.830 -0.3190  0.5217  0.2292
   66SAPC  H10X 5518   5.333   6.894   7.852  0.8827 -0.1393 -1.4605
   66SAPC  H10Y 5519   5.263   7.050   7.792  0.0796  0.4566 -0.8839
   66SAPC  C311 5520   5.419   7.080   7.947 -0.1835  0.0050  0.0350
   66SAPC  H11X 5521   5.432   7.184   7.911 -1.9079  0.8444  1.6442
   66SAPC  H11Y 5522   5.519   7.038   7.969 -1.2474 -2.0772  1.2315
   66SAPC  C312 5523   5.330   7.079   8.080  0.0714  0.8360 -0.3529
   66SAPC  H12X 5524   5.305   6.975   8.111  1.3460  1.1705  2.0555
   66SAPC  H12Y 5525   5.235   7.136   8.072  0.6172  2.4977  3.3462
   66SAPC  C313 5526   5.403   7.160   8.194 -0.2747 -0.1593 -0.5893
   66SAPC  H13X 5527   5.437   7.252   8.142  0.1657 -1.7736 -3.3615
   66SAPC  H13Y 5528   5.486   7.099   8.236  0.5755  2.1114  1.2508
   66SAPC  C314 5529   5.303   7.202   8.305  0.3336 -0.1088  0.7712
   66SAPC  H14X 5530   5.212   7.246   8.259 -0.6097 -1.6998  1.0775
   66SAPC  H14Y 5531   5.339   7.286   8.369  0.9572 -0.0025  0.2979
   66SAPC  C315 5532   5.266   7.078   8.393 -0.5634  0.3209 -0.4679
   66SAPC  H15X 5533   5.361   7.049   8.443 -1.2315 -0.4334  0.3981
   66SAPC  H15Y 5534   5.221   7.001   8.328 -0.6015  2.0609 -2.5993
   66SAPC  C316 5535   5.166   7.114   8.501  0.5610 -0.4093  0.0191
   66SAPC  H16X 5536   5.060   7.129   8.470  0.8425 -1.2671 -1.5077
   66SAPC  H16Y 5537   5.203   7.208   8.547  2.1777 -1.2159  0.4456
   66SAPC  C317 5538   5.167   7.009   8.614 -0.2691 -0.0296 -0.5196
   66SAPC  H17X 5539   5.269   7.006   8.658  0.1011 -0.5994 -1.3907
   66SAPC  H17Y 5540   5.155   6.901   8.593  0.9747  0.0240 -1.6189
   66SAPC  C318 5541   5.078   7.053   8.724 -0.1960 -0.0263 -0.2450
   66SAPC  H18X 5542   4.974   7.020   8.701 -0.3438 -1.3042  1.9492
   66SAPC  H18Y 5543   5.081   7.163   8.742  0.1103  0.5655 -3.4024
   66SAPC  H18Z 5544   5.115   6.999   8.814  0.2196 -3.6204 -2.3669
   67SAPC     N 5545   1.471   2.200   6.704  0.0264  0.2692 -0.2828
   67SAPC   C12 5546   1.531   2.080   6.776  0.2259 -0.1544  0.9182
   67SAPC  H12A 5547   1.591   2.109   6.861  1.1387  0.3280  0.1342
   67SAPC  H12B 5548   1.599   2.022   6.715  0.5248  1.2372 -0.1191
   67SAPC   C13 5549   1.379   2.278   6.792 -0.2474 -0.0675 -0.7477
   67SAPC  H13A 5550   1.296   2.212   6.813  0.6387 -1.7196 -2.1874
   67SAPC  H13B 5551   1.425   2.324   6.878 -3.0917 -2.3842  2.3307
   67SAPC  H13C 5552   1.330   2.353   6.732 -0.4787  0.1544 -0.2865
   67SAPC   C14 5553   1.580   2.292   6.651  0.2533  0.2601 -0.0549
   67SAPC  H14A 5554   1.652   2.244   6.587  1.2336 -0.9727  1.8869
   67SAPC  H14B 5555   1.534   2.375   6.600 -0.5838 -0.3494 -0.3061
   67SAPC  H14C 5556   1.637   2.335   6.732  1.3883  0.2700 -0.8286
   67SAPC   C15 5557   1.391   2.157   6.588  0.2669  0.1782  0.5837
   67SAPC  H15A 5558   1.461   2.125   6.512  0.0000  0.9156  0.0176
   67SAPC  H15B 5559   1.316   2.087   6.620 -0.0916 -0.3934 -1.3585
   67SAPC  H15C 5560   1.339   2.244   6.550  3.1796  3.2556  3.0254
   67SAPC   C11 5561   1.437   1.976   6.831  0.4201  0.8930 -0.6298
   67SAPC  H11A 5562   1.357   2.021   6.893  2.1113  0.9952  1.6212
   67SAPC  H11B 5563   1.493   1.908   6.898  0.7903  0.4216 -1.3981
   67SAPC     P 5564   1.458   1.775   6.668  0.0190  0.2321 -0.2625
   67SAPC   O13 5565   1.357   1.709   6.589 -0.0649  0.4582  0.2098
   67SAPC   O14 5566   1.585   1.826   6.600  0.4243  0.2988  0.4467
   67SAPC   O12 5567   1.379   1.900   6.725  0.0196  0.3392  0.0703
   67SAPC   O11 5568   1.504   1.690   6.799  0.1835  0.6722 -1.0057
   67SAPC    C1 5569   1.529   1.553   6.791  0.0734  0.3560  0.0510
   67SAPC    HA 5570   1.437   1.500   6.826 -0.4491  0.6860 -0.8142
   67SAPC    HB 5571   1.566   1.517   6.693  2.2816  0.6263  0.7396
   67SAPC    C2 5572   1.639   1.516   6.901  0.2209 -0.2294  0.1181
   67SAPC    HS 5573   1.640   1.407   6.922  0.9987 -0.2528 -0.0103
   67SAPC   O21 5574   1.625   1.595   7.023 -0.5551  0.1825 -0.2130
   67SAPC   C21 5575   1.525   1.561   7.101  1.4845  0.4200  0.9850
   67SAPC   O22 5576   1.442   1.474   7.075 -0.4712  0.7271  0.2853
   67SAPC   C22 5577   1.514   1.655   7.217  0.3133  0.7734  0.3339
   67SAPC   H2R 5578   1.573   1.746   7.193 -0.9404  1.2094 -1.3067
   67SAPC   H2S 5579   1.409   1.691   7.225  0.1852  0.9215 -1.5643
   67SAPC    C3 5580   1.774   1.559   6.843 -0.3310  0.6961  0.1017
   67SAPC    HX 5581   1.762   1.663   6.804 -2.9401  0.3185 -0.3148
   67SAPC    HY 5582   1.793   1.489   6.759 -2.8809  0.2288 -0.1890
   67SAPC   O31 5583   1.865   1.546   6.949  0.3048 -0.0612  0.7030
   67SAPC   C31 5584   1.982   1.589   6.924  0.1714 -0.4111  0.6889
   67SAPC   O32 5585   2.030   1.616   6.814 -0.8184 -0.1980  0.1458
   67SAPC   C32 5586   2.054   1.614   7.053  0.0985 -0.4321 -0.1653
   67SAPC   H2X 5587   2.159   1.632   7.024 -0.5636  0.0576 -2.4887
   67SAPC   H2Y 5588   2.047   1.527   7.122 -0.7404  0.7750  1.3505
   67SAPC   C23 5589   1.568   1.592   7.353  0.3374  0.0037  0.3144
   67SAPC   H3R 5590   1.673   1.571   7.322  1.6058  4.3452  0.9608
   67SAPC   H3S 5591   1.520   1.493   7.361 -0.1305  0.2296  0.3528
   67SAPC   C24 5592   1.552   1.685   7.472 -0.7487  0.4294  0.7606
   67SAPC   H4R 5593   1.625   1.764   7.443 -0.2252 -0.5193 -0.6336
   67SAPC   H4S 5594   1.605   1.639   7.558  2.7520  1.1679 -0.8178
   67SAPC   C25 5595   1.408   1.722   7.492  0.1942 -0.2891  0.4035
   67SAPC   H5R 5596   1.361   1.779   7.411 -2.9366 -2.3251  0.5721
   67SAPC   C26 5597   1.339   1.722   7.606 -0.1893  0.1644 -0.1048
   67SAPC   H6R 5598   1.242   1.774   7.608  0.1364  0.7664  0.7035
   67SAPC   C27 5599   1.379   1.666   7.744 -0.0266 -0.5257 -0.2124
   67SAPC   H7R 5600   1.434   1.751   7.789 -0.1957 -0.7119  0.3581
   67SAPC   H7S 5601   1.445   1.577   7.736 -2.2928 -2.2073 -1.3203
   67SAPC   C28 5602   1.269   1.636   7.847  0.4914  0.5440  0.7613
   67SAPC   H8R 5603   1.166   1.627   7.809  1.6852 -0.8365 -2.5881
   67SAPC   C29 5604   1.290   1.617   7.978 -0.1083 -0.4896 -0.0359
   67SAPC   H9R 5605   1.204   1.593   8.043  0.0212 -0.0891  0.2911
   67SAPC  C210 5606   1.428   1.629   8.050 -0.1065 -0.8725 -0.5591
   67SAPC  H10R 5607   1.501   1.672   7.978 -2.6635 -0.2614 -2.9370
   67SAPC  H10S 5608   1.461   1.530   8.089  0.1938  0.0148  1.6093
   67SAPC  C211 5609   1.444   1.729   8.168 -0.0682 -0.0027  0.3632
   67SAPC  H11R 5610   1.389   1.822   8.151 -0.0365  0.0548  0.5743
   67SAPC  C212 5611   1.499   1.699   8.290  0.2668  0.0618  0.6990
   67SAPC  H12R 5612   1.507   1.780   8.364  3.4841  0.2148  0.3237
   67SAPC  C213 5613   1.572   1.572   8.332  0.4058 -0.0655  0.5061
   67SAPC  H13R 5614   1.647   1.565   8.251  0.0368  1.1830  0.0311
   67SAPC  H13S 5615   1.503   1.485   8.331 -0.1739  0.2614  3.0989
   67SAPC  C214 5616   1.645   1.568   8.468  0.0587 -0.3098  0.1879
   67SAPC  H14R 5617   1.749   1.534   8.476  0.2188  0.3140  0.9157
   67SAPC  C215 5618   1.573   1.571   8.586 -0.3449  0.2899 -0.1518
   67SAPC  H15R 5619   1.636   1.594   8.673  3.0732  0.8620 -2.5556
   67SAPC  C216 5620   1.428   1.577   8.604 -0.0697 -0.2965 -0.0564
   67SAPC  H16R 5621   1.400   1.494   8.672  4.0059 -1.7773  0.0651
   67SAPC  H16S 5622   1.374   1.568   8.507 -0.4132 -0.1137  0.1177
   67SAPC  C217 5623   1.376   1.716   8.668 -0.8184  0.6372  0.7647
   67SAPC  H17R 5624   1.396   1.795   8.592  2.7911 -2.5824 -2.0730
   67SAPC  H17S 5625   1.446   1.736   8.751  1.3088  1.1027 -1.0265
   67SAPC  C218 5626   1.229   1.717   8.709  0.3717  0.4340 -0.8929
   67SAPC  H18R 5627   1.212   1.810   8.768 -0.2033 -0.4081  0.3307
   67SAPC  H18S 5628   1.211   1.633   8.780 -0.3967  0.4794 -1.0225
   67SAPC  C219 5629   1.134   1.712   8.598  0.5577 -0.2806  0.8094
   67SAPC  H19R 5630   1.137   1.610   8.555 -2.1162 -0.6992  1.4490
   67SAPC  H19S 5631   1.167   1.774   8.511  0.7872  0.8205  1.6523
   67SAPC  C220 5632   0.987   1.740   8.650 -0.6683 -0.8912 -0.3468
   67SAPC  H20R 5633   0.973   1.671   8.737  2.3599 -0.7961  0.3252
   67SAPC  H20S 5634   0.922   1.725   8.561 -0.0309 -0.5435 -0.8718
   67SAPC  H20T 5635   0.993   1.843   8.692  1.5751 -0.6970 -1.0688
   67SAPC   C33 5636   1.984   1.747   7.103  0.0159  0.1360  0.2793
   67SAPC   H3X 5637   1.874   1.731   7.105  0.0451 -0.0224  0.6247
   67SAPC   H3Y 5638   2.013   1.829   7.034  0.9029  0.9289  1.5674
   67SAPC   C34 5639   2.023   1.784   7.248 -0.2219 -0.1711 -0.1473
   67SAPC   H4X 5640   2.133   1.781   7.265 -0.3102  1.9551  1.1705
   67SAPC   H4Y 5641   1.969   1.714   7.315 -2.5362  1.9347  0.3667
   67SAPC   C35 5642   1.966   1.919   7.283  0.1035  0.1405 -0.7634
   67SAPC   H5X 5643   1.856   1.912   7.270  0.2058  0.4494 -1.8851
   67SAPC   H5Y 5644   2.017   1.982   7.206  2.6452 -0.5141  0.2588
   67SAPC   C36 5645   2.013   1.962   7.426 -0.1554 -0.2147  0.4720
   67SAPC   H6X 5646   1.978   2.065   7.447 -0.4734 -0.5994  1.9126
   67SAPC   H6Y 5647   2.124   1.973   7.433 -0.1112  1.1776 -1.4372
   67SAPC   C37 5648   1.967   1.873   7.541 -0.2386  0.3935  0.4517
   67SAPC   H7X 5649   2.018   1.775   7.536  0.0156  0.5750 -3.0420
   67SAPC   H7Y 5650   1.862   1.862   7.509 -0.6110  2.3773  0.8244
   67SAPC   C38 5651   1.984   1.923   7.682  0.7592  0.1977  0.7635
   67SAPC   H8X 5652   1.931   2.020   7.693  0.6063  0.0534  1.2907
   67SAPC   H8Y 5653   2.089   1.948   7.710  0.8784 -2.3481  2.9137
   67SAPC   C39 5654   1.926   1.834   7.800 -0.4390 -0.1848  0.1510
   67SAPC   H9X 5655   1.991   1.745   7.808 -0.3050  0.0592  2.8395
   67SAPC   H9Y 5656   1.818   1.807   7.790 -1.4347  2.6513  1.9367
   67SAPC  C310 5657   1.932   1.910   7.935  0.1129  0.0231  0.9176
   67SAPC  H10X 5658   1.863   1.997   7.925  3.0964  2.3731 -1.0723
   67SAPC  H10Y 5659   2.031   1.956   7.955 -0.2187 -0.1099  3.0513
   67SAPC  C311 5660   1.878   1.825   8.049  0.0540 -0.9040  0.5107
   67SAPC  H11X 5661   1.901   1.717   8.038 -0.5807 -1.1565  1.5235
   67SAPC  H11Y 5662   1.768   1.836   8.062  0.0666  1.9132 -1.0419
   67SAPC  C312 5663   1.955   1.871   8.177  0.6224 -0.3805  0.2260
   67SAPC  H12X 5664   1.954   1.981   8.192 -1.2383 -0.4844  1.0245
   67SAPC  H12Y 5665   2.054   1.823   8.161 -0.0737 -2.1071  0.8886
   67SAPC  C313 5666   1.879   1.822   8.302 -0.9838 -0.0493  0.2865
   67SAPC  H13X 5667   1.864   1.712   8.305  0.4138 -0.2941 -0.8274
   67SAPC  H13Y 5668   1.789   1.882   8.326 -0.4988  1.8046 -2.2419
   67SAPC  C314 5669   1.971   1.835   8.423  0.3387 -0.0486  0.3922
   67SAPC  H14X 5670   1.979   1.946   8.435 -0.7668 -0.0747  1.5612
   67SAPC  H14Y 5671   2.070   1.794   8.394  0.9680  0.6228  1.5076
   67SAPC  C315 5672   1.918   1.767   8.547  0.0738 -0.3491 -0.3846
   67SAPC  H15X 5673   1.899   1.659   8.526 -2.0287  0.0252 -0.5974
   67SAPC  H15Y 5674   1.824   1.810   8.587  1.2506  2.1571 -0.1237
   67SAPC  C316 5675   2.026   1.774   8.655 -0.1006  0.3057 -0.0162
   67SAPC  H16X 5676   2.067   1.877   8.663  0.9195  0.0703 -1.5860
   67SAPC  H16Y 5677   2.118   1.720   8.624 -1.1332 -0.6231 -1.6718
   67SAPC  C317 5678   1.983   1.717   8.792 -0.6337  0.5709 -0.0014
   67SAPC  H17X 5679   1.879   1.740   8.824  0.3442  2.1994  2.2672
   67SAPC  H17Y 5680   2.039   1.782   8.862 -1.5178  0.7283  0.5852
   67SAPC  C318 5681   2.010   1.566   8.810 -0.0448 -0.1096 -0.5195
   67SAPC  H18X 5682   2.119   1.542   8.810  0.4007  1.7568 -0.6273
   67SAPC  H18Y 5683   1.950   1.526   8.726 -1.6398  1.6190 -0.2617
   67SAPC  H18Z 5684   1.963   1.527   8.903  2.4269 -0.5991  0.6118
   68SAPC     N 5685   0.512   6.172   6.190  0.5098 -0.3562 -0.4716
   68SAPC   C12 5686   0.536   6.148   6.346  0.1146  0.5625 -0.0435
   68SAPC  H12A 5687   0.529   6.045   6.376  2.4917  0.5746  0.7271
   68SAPC  H12B 5688   0.459   6.198   6.402  2.8150  1.9388  2.7079
   68SAPC   C13 5689   0.634   6.118   6.117  0.6112  0.1590 -0.6659
   68SAPC  H13A 5690   0.612   6.013   6.106 -1.5056  0.6254 -1.5207
   68SAPC  H13B 5691   0.640   6.160   6.017  0.0486  1.5040 -0.1668
   68SAPC  H13C 5692   0.722   6.148   6.172  0.3985 -0.4043 -0.0105
   68SAPC   C14 5693   0.396   6.095   6.152  0.1963  0.1790 -0.2868
   68SAPC  H14A 5694   0.428   5.992   6.152  1.7059  0.6081 -1.4952
   68SAPC  H14B 5695   0.321   6.105   6.229  1.1554 -1.5886  0.9446
   68SAPC  H14C 5696   0.362   6.121   6.053  2.6547 -3.5905 -2.3712
   68SAPC   C15 5697   0.501   6.318   6.171  0.5072  0.6379 -0.0475
   68SAPC  H15A 5698   0.508   6.344   6.066 -1.5157 -0.2995 -0.4699
   68SAPC  H15B 5699   0.405   6.351   6.206 -0.2279 -2.5045  1.2974
   68SAPC  H15C 5700   0.584   6.361   6.225  0.6412 -1.0652  1.1924
   68SAPC   C11 5701   0.666   6.193   6.417  0.1391  0.1679  0.3294
   68SAPC  H11A 5702   0.649   6.178   6.525 -1.2565  1.5179  0.3456
   68SAPC  H11B 5703   0.680   6.302   6.398  0.8016  0.0422  0.0735
   68SAPC     P 5704   0.805   5.974   6.423 -0.0982 -0.3563 -0.0196
   68SAPC   O13 5705   0.685   5.890   6.436 -0.3773 -0.7054 -0.1649
   68SAPC   O14 5706   0.920   5.915   6.351 -0.1216 -0.1501 -0.5759
   68SAPC   O12 5707   0.777   6.121   6.373 -0.6345 -0.6467  0.0785
   68SAPC   O11 5708   0.848   5.993   6.574 -0.4657 -0.6049 -0.3028
   68SAPC    C1 5709   0.948   6.096   6.614 -0.1406  0.1236  0.1652
   68SAPC    HA 5710   1.005   6.140   6.529  0.0185  0.7886  0.6089
   68SAPC    HB 5711   0.910   6.190   6.660  2.2585 -0.4713  3.6953
   68SAPC    C2 5712   1.060   6.032   6.710  1.2572 -0.3151 -0.1190
   68SAPC    HS 5713   1.103   5.951   6.647  1.2956  1.3559 -2.3790
   68SAPC   O21 5714   0.999   6.011   6.836  0.3075 -0.0965 -0.6499
   68SAPC   C21 5715   0.960   5.881   6.845  0.5542 -0.0939  0.1246
   68SAPC   O22 5716   0.983   5.789   6.766 -0.6991 -0.0886 -0.2046
   68SAPC   C22 5717   0.902   5.865   6.989 -0.0419  0.1162 -0.0522
   68SAPC   H2R 5718   0.959   5.928   7.061 -2.2346 -0.6574  2.5338
   68SAPC   H2S 5719   0.800   5.906   6.978  0.2651  0.5335 -1.5392
   68SAPC    C3 5720   1.185   6.130   6.739  0.9795  1.2186 -0.1409
   68SAPC    HX 5721   1.227   6.172   6.644  1.9920 -0.0498 -0.2846
   68SAPC    HY 5722   1.266   6.069   6.786  2.0408  1.3566 -1.7026
   68SAPC   O31 5723   1.148   6.239   6.825  0.3143 -0.2540 -0.3784
   68SAPC   C31 5724   1.164   6.362   6.792 -0.0201  0.3307 -0.1010
   68SAPC   O32 5725   1.217   6.408   6.688 -0.0394 -0.5530  0.0403
   68SAPC   C32 5726   1.107   6.455   6.909  0.2833  1.1066 -0.5161
   68SAPC   H2X 5727   1.013   6.497   6.866 -0.4637 -0.2147 -0.2288
   68SAPC   H2Y 5728   1.177   6.540   6.928  0.6415  1.3103 -2.4824
   68SAPC   C23 5729   0.888   5.722   7.038  0.1362  0.3725 -0.1665
   68SAPC   H3R 5730   0.826   5.665   6.966 -0.1532 -1.0247  1.1375
   68SAPC   H3S 5731   0.829   5.726   7.132  0.9137 -2.3888  0.5236
   68SAPC   C24 5732   1.022   5.656   7.065 -0.3591 -0.0697  0.2710
   68SAPC   H4R 5733   1.090   5.718   7.128  1.2240 -0.7743 -0.6708
   68SAPC   H4S 5734   1.083   5.650   6.973  1.6987  0.9727  1.4938
   68SAPC   C25 5735   1.009   5.514   7.122 -0.7769  0.5307  0.2790
   68SAPC   H5R 5736   0.959   5.441   7.056  2.7124 -0.3532 -1.6689
   68SAPC   C26 5737   1.034   5.468   7.246 -0.6849  0.3414 -0.0106
   68SAPC   H6R 5738   1.010   5.364   7.272  2.5931 -0.3605  0.6920
   68SAPC   C27 5739   1.085   5.539   7.369  0.4625 -0.1257 -0.0633
   68SAPC   H7R 5740   1.190   5.576   7.358  1.8883 -3.0648  2.2811
   68SAPC   H7S 5741   1.106   5.463   7.447  1.7887 -0.1766 -0.4421
   68SAPC   C28 5742   0.998   5.650   7.420  0.4894  0.9464 -0.4559
   68SAPC   H8R 5743   0.955   5.709   7.338  0.0395 -1.1862 -1.8610
   68SAPC   C29 5744   0.974   5.691   7.547 -0.4187  0.0406 -0.3622
   68SAPC   H9R 5745   0.901   5.772   7.562 -0.6737 -0.1987 -0.3161
   68SAPC  C210 5746   1.040   5.630   7.678  0.5531  0.0271  0.6392
   68SAPC  H10R 5747   1.119   5.560   7.646 -1.1240 -1.8663  0.4826
   68SAPC  H10S 5748   0.965   5.565   7.727  1.5265 -1.7950 -0.1922
   68SAPC  C211 5749   1.085   5.731   7.777  0.0356  0.0615 -0.1117
   68SAPC  H11R 5750   1.138   5.819   7.737 -0.6597  0.9190  0.7802
   68SAPC  C212 5751   1.060   5.733   7.906  0.6423  0.7801 -0.4061
   68SAPC  H12R 5752   1.100   5.813   7.970  0.9103 -0.8915  1.6484
   68SAPC  C213 5753   0.975   5.637   7.988  0.2262  0.2059  0.3982
   68SAPC  H13R 5754   1.020   5.536   8.004 -1.2459 -0.3872  0.9361
   68SAPC  H13S 5755   0.877   5.613   7.943 -0.1535  3.3495 -0.6704
   68SAPC  C214 5756   0.931   5.684   8.125  0.1051  0.2298 -0.1170
   68SAPC  H14R 5757   0.822   5.690   8.130  0.0166 -1.5270  0.7148
   68SAPC  C215 5758   1.008   5.717   8.229  0.6009  0.2498 -0.4428
   68SAPC  H15R 5759   0.970   5.772   8.316  0.5058 -0.5518  0.0303
   68SAPC  C216 5760   1.150   5.692   8.243 -0.8495 -1.1427  0.8692
   68SAPC  H16R 5761   1.191   5.791   8.274 -0.5724 -0.3846 -1.7188
   68SAPC  H16S 5762   1.209   5.673   8.151  0.6914 -1.5292  1.8932
   68SAPC  C217 5763   1.183   5.590   8.351  1.1276 -0.1288 -0.4300
   68SAPC  H17R 5764   1.287   5.552   8.357  1.8538  2.0232  2.9348
   68SAPC  H17S 5765   1.133   5.497   8.316 -2.4744  1.3946  0.2292
   68SAPC  C218 5766   1.128   5.614   8.495  0.5385 -0.4397 -0.0127
   68SAPC  H18R 5767   1.018   5.603   8.506  0.2521 -0.8771 -2.6476
   68SAPC  H18S 5768   1.152   5.717   8.529 -2.9093  1.5927 -3.1311
   68SAPC  C219 5769   1.175   5.509   8.601  0.1453 -0.0495  0.0629
   68SAPC  H19R 5770   1.274   5.465   8.575 -0.2967 -0.2197 -1.4290
   68SAPC  H19S 5771   1.107   5.422   8.595  1.7151 -1.3421  0.2408
   68SAPC  C220 5772   1.180   5.572   8.741 -0.0751 -0.4714  0.0001
   68SAPC  H20R 5773   1.264   5.639   8.769 -1.5853  0.6668  2.0858
   68SAPC  H20S 5774   1.188   5.492   8.818 -0.9870 -0.8292 -0.2662
   68SAPC  H20T 5775   1.088   5.633   8.751  0.8241  0.9551 -0.1824
   68SAPC   C33 5776   1.079   6.374   7.037  0.0799 -0.1342 -0.1315
   68SAPC   H3X 5777   1.169   6.315   7.064 -0.3372 -0.5379  0.4098
   68SAPC   H3Y 5778   0.998   6.299   7.027  2.4504 -3.0932  1.0470
   68SAPC   C34 5779   1.060   6.470   7.153  0.0136 -0.2081 -0.4303
   68SAPC   H4X 5780   0.956   6.507   7.152 -0.4608 -1.2564  2.0848
   68SAPC   H4Y 5781   1.132   6.554   7.146  1.5139 -1.2680  1.1896
   68SAPC   C35 5782   1.077   6.403   7.285  0.0768 -0.0768  0.1421
   68SAPC   H5X 5783   1.174   6.350   7.294 -0.6972 -1.3830  1.3505
   68SAPC   H5Y 5784   0.985   6.341   7.301  0.8270 -0.9275  1.4542
   68SAPC   C36 5785   1.085   6.518   7.389 -0.3438  0.0576 -0.5644
   68SAPC   H6X 5786   0.989   6.574   7.384 -1.0421 -1.2375 -2.8504
   68SAPC   H6Y 5787   1.163   6.592   7.362  0.9274 -0.8683  0.4657
   68SAPC   C37 5788   1.125   6.477   7.534 -0.2357  0.6200 -0.1358
   68SAPC   H7X 5789   1.126   6.574   7.588 -0.6639  0.3739  0.3295
   68SAPC   H7Y 5790   1.225   6.430   7.543 -0.5242  0.0264 -0.0121
   68SAPC   C38 5791   1.014   6.395   7.604 -0.7210  0.4928  0.3864
   68SAPC   H8X 5792   0.993   6.304   7.545  1.1563  0.4626 -0.2947
   68SAPC   H8Y 5793   0.922   6.457   7.598 -0.9092  0.0680 -1.6794
   68SAPC   C39 5794   1.040   6.359   7.747  0.2070  0.7995 -0.1367
   68SAPC   H9X 5795   1.048   6.453   7.806  0.5269  0.4023  0.4599
   68SAPC   H9Y 5796   1.132   6.298   7.756 -0.7768 -0.6580  0.4651
   68SAPC  C310 5797   0.929   6.274   7.820 -0.7084 -0.1042 -0.1361
   68SAPC  H10X 5798   0.924   6.177   7.765 -2.1468  0.0658 -0.3468
   68SAPC  H10Y 5799   0.826   6.316   7.809  0.5869  3.6416  0.5162
   68SAPC  C311 5800   0.967   6.240   7.964  0.5259  0.0978 -0.3416
   68SAPC  H11X 5801   1.069   6.197   7.963  0.0437 -1.3167 -3.8348
   68SAPC  H11Y 5802   0.906   6.168   8.022 -1.9475  1.7368 -0.7445
   68SAPC  C312 5803   0.973   6.356   8.069  0.0180 -0.7231  0.2514
   68SAPC  H12X 5804   1.020   6.439   8.013 -1.1921  0.7170  1.2618
   68SAPC  H12Y 5805   1.045   6.325   8.148 -0.0430  0.5015  0.8064
   68SAPC  C313 5806   0.840   6.408   8.120  0.0776  0.2116  0.2301
   68SAPC  H13X 5807   0.810   6.324   8.186  2.4845  1.7877  3.6317
   68SAPC  H13Y 5808   0.771   6.428   8.035  0.4589  1.1564  0.1330
   68SAPC  C314 5809   0.844   6.536   8.203 -0.0002 -0.0292 -0.3077
   68SAPC  H14X 5810   0.752   6.538   8.266 -0.4461  1.5280 -0.9509
   68SAPC  H14Y 5811   0.851   6.629   8.142  1.9938  0.1360  0.0952
   68SAPC  C315 5812   0.950   6.542   8.312 -0.5084 -0.0895 -0.2094
   68SAPC  H15X 5813   1.045   6.594   8.287 -0.4722  0.6847  1.4196
   68SAPC  H15Y 5814   0.981   6.436   8.325  0.9091  0.1627 -1.3211
   68SAPC  C316 5815   0.902   6.588   8.447  0.1652  0.3418 -0.4459
   68SAPC  H16X 5816   0.812   6.529   8.478 -0.5184  0.8002 -1.5013
   68SAPC  H16Y 5817   0.871   6.691   8.419 -1.7069 -0.0469  0.0020
   68SAPC  C317 5818   1.013   6.604   8.548 -0.0636  0.0731 -0.1780
   68SAPC  H17X 5819   0.971   6.644   8.643 -1.2078  0.8752 -0.9930
   68SAPC  H17Y 5820   1.078   6.681   8.500  0.7787  0.2529  1.1802
   68SAPC  C318 5821   1.097   6.482   8.571  0.1270 -0.8924  0.2652
   68SAPC  H18X 5822   1.030   6.399   8.600 -2.1385 -0.1237 -2.3623
   68SAPC  H18Y 5823   1.171   6.510   8.649 -1.0288  3.3212  0.0492
   68SAPC  H18Z 5824   1.150   6.458   8.476  1.3757  0.1782  0.6637
   69SLPC     N 5825   3.421   4.405  11.030  1.2244 -0.3497  0.7426
   69SLPC   C13 5826   3.451   4.320  11.149  0.0956  0.1260 -0.1159
   69SLPC  H13A 5827   3.546   4.270  11.137  0.6035  1.0172  0.1154
   69SLPC  H13B 5828   3.450   4.378  11.240 -0.0041  0.6709 -0.4577
   69SLPC  H13C 5829   3.378   4.242  11.162  0.6595 -0.8200 -2.0765
   69SLPC   C14 5830   3.273   4.446  11.039 -0.2537  0.0312  0.4794
   69SLPC  H14A 5831   3.253   4.516  11.119 -0.5734  1.5678 -0.8900
   69SLPC  H14B 5832   3.238   4.490  10.947 -1.2045  0.0594  0.8380
   69SLPC  H14C 5833   3.211   4.358  11.047  0.6744 -0.9149 -1.9145
   69SLPC   C15 5834   3.448   4.326  10.904 -0.0974  0.2639  0.4832
   69SLPC  H15A 5835   3.550   4.292  10.907 -0.9486 -2.5388  0.3711
   69SLPC  H15B 5836   3.394   4.232  10.899  0.7473 -0.1989 -0.2218
   69SLPC  H15C 5837   3.407   4.373  10.816 -0.7439 -2.9295 -1.0911
   69SLPC   C12 5838   3.507   4.533  11.029 -0.6060 -0.4785  0.0849
   69SLPC  H12A 5839   3.490   4.589  10.938 -1.6501 -0.3877  0.3220
   69SLPC  H12B 5840   3.612   4.506  11.022 -0.4669  0.3877 -2.7038
   69SLPC   C11 5841   3.503   4.634  11.146  0.4516 -0.0036  0.2169
   69SLPC  H11A 5842   3.400   4.675  11.155  0.3572  0.0001 -0.7837
   69SLPC  H11B 5843   3.562   4.725  11.122  1.0663 -1.0714 -2.7120
   69SLPC     P 5844   3.668   4.612  11.346  0.3084  0.0743  0.2472
   69SLPC   O13 5845   3.689   4.758  11.366  0.1330 -0.4020 -0.1559
   69SLPC   O14 5846   3.673   4.524  11.472  0.8087 -0.2771  0.2155
   69SLPC   O12 5847   3.527   4.575  11.274  0.3080 -0.2076 -0.8444
   69SLPC   O11 5848   3.776   4.571  11.246 -0.8435 -0.0826 -0.1131
   69SLPC    C1 5849   3.807   4.434  11.223  0.2173  0.1529 -0.0703
   69SLPC    HA 5850   3.874   4.392  11.301  0.4807 -1.4753 -1.1184
   69SLPC    HB 5851   3.713   4.375  11.222 -2.6629  4.3047  0.3565
   69SLPC    C2 5852   3.878   4.418  11.085 -0.9452  0.6005  0.6316
   69SLPC    HS 5853   3.980   4.462  11.095  0.5604 -1.8121 -2.5230
   69SLPC   O21 5854   3.807   4.485  10.976 -0.3407  0.0007  0.3554
   69SLPC   C21 5855   3.890   4.531  10.880  0.4127  0.7068 -0.4920
   69SLPC   O22 5856   4.009   4.551  10.886  0.0502 -0.0316  0.0655
   69SLPC   C22 5857   3.813   4.553  10.753 -0.3697 -0.0280  0.8365
   69SLPC   H2R 5858   3.729   4.623  10.772 -1.6063 -1.0613 -0.6036
   69SLPC   H2S 5859   3.885   4.591  10.678 -2.5620 -0.1440 -1.4650
   69SLPC    C3 5860   3.894   4.268  11.046  0.1601 -0.3703 -0.1118
   69SLPC    HX 5861   3.806   4.201  11.052  0.0251 -0.1119  1.1732
   69SLPC    HY 5862   3.958   4.220  11.123  0.2176 -0.1735 -0.0348
   69SLPC   O31 5863   3.945   4.246  10.910  0.0403 -0.3292  0.2077
   69SLPC   C31 5864   4.064   4.233  10.881  0.3641  0.5588  0.0249
   69SLPC   O32 5865   4.158   4.219  10.960  0.3077 -1.0099 -0.0417
   69SLPC   C32 5866   4.084   4.197  10.736  0.2380  0.0863  0.1940
   69SLPC   H2X 5867   3.993   4.219  10.676  0.4178 -2.4945 -1.2159
   69SLPC   H2Y 5868   4.120   4.091  10.735  0.9813  0.3187 -1.4556
   69SLPC   C23 5869   3.755   4.422  10.700 -0.0489 -1.0001 -0.4902
   69SLPC   H3R 5870   3.699   4.374  10.783 -1.4740 -1.7933 -1.8515
   69SLPC   H3S 5871   3.846   4.366  10.669 -1.6485 -3.3263 -1.2463
   69SLPC   C24 5872   3.645   4.453  10.599 -0.0035  0.3043  0.2761
   69SLPC   H4R 5873   3.577   4.520  10.656  0.7591  0.8247  0.5947
   69SLPC   H4S 5874   3.599   4.357  10.568 -0.1419  1.3813 -3.3166
   69SLPC   C25 5875   3.704   4.531  10.474 -0.0716  0.4614  0.1060
   69SLPC   H5R 5876   3.751   4.628  10.503 -0.3606  0.7694 -0.4505
   69SLPC   H5S 5877   3.631   4.552  10.394 -1.3166  2.0427  1.5671
   69SLPC   C26 5878   3.808   4.432  10.408  0.3749  0.2298  0.1535
   69SLPC   H6R 5879   3.763   4.332  10.392 -2.2949  1.6499 -2.0632
   69SLPC   H6S 5880   3.900   4.419  10.469  1.2786  1.8590 -0.7820
   69SLPC   C27 5881   3.847   4.486  10.269 -0.0770  0.4193 -0.7467
   69SLPC   H7R 5882   3.930   4.555  10.294 -0.8832  0.4498  2.1532
   69SLPC   H7S 5883   3.762   4.547  10.232 -0.0231 -0.3681 -2.2625
   69SLPC   C28 5884   3.897   4.391  10.163 -0.4482 -0.3206 -0.2990
   69SLPC   H8R 5885   3.813   4.322  10.140 -1.2120  1.3647 -3.1275
   69SLPC   H8S 5886   3.984   4.335  10.203 -0.4786 -1.6206 -1.9588
   69SLPC   C29 5887   3.941   4.473  10.046 -0.2771  0.2878  0.3438
   69SLPC   H9R 5888   3.962   4.580  10.057 -0.0371  0.3179 -0.3644
   69SLPC  C210 5889   3.942   4.418   9.920  0.1261 -0.1749 -0.4245
   69SLPC  H10R 5890   3.970   4.488   9.840 -3.8427 -0.1529 -2.0088
   69SLPC  C211 5891   3.907   4.278   9.880 -0.6704 -0.2713 -0.0727
   69SLPC  H11R 5892   3.800   4.260   9.856 -0.2527 -0.6351 -1.7529
   69SLPC  H11S 5893   3.920   4.202   9.960  1.6322 -1.1789 -1.2058
   69SLPC  C212 5894   3.992   4.231   9.760  0.1683 -0.5778  0.0590
   69SLPC  H12R 5895   4.073   4.157   9.772 -0.3454 -0.6999  3.6872
   69SLPC  C213 5896   3.963   4.269   9.636 -0.0729  0.6587 -0.0394
   69SLPC  H13R 5897   4.042   4.256   9.560 -1.4948  1.3561 -1.7103
   69SLPC  C214 5898   3.849   4.353   9.586 -0.4305 -0.2520 -0.0801
   69SLPC  H14R 5899   3.860   4.451   9.638  4.0072  0.0944 -1.2596
   69SLPC  H14S 5900   3.752   4.302   9.604 -0.1505 -0.3816  1.1306
   69SLPC  C215 5901   3.879   4.407   9.444 -0.2478 -0.0985  0.3928
   69SLPC  H15R 5902   3.985   4.440   9.444 -0.4831  0.6807 -0.0088
   69SLPC  H15S 5903   3.803   4.488   9.432  0.4350  0.3951 -0.8052
   69SLPC  C216 5904   3.862   4.303   9.338 -0.2409 -0.3582  0.2353
   69SLPC  H16R 5905   3.758   4.266   9.346  0.4723 -2.0856  2.7663
   69SLPC  H16S 5906   3.929   4.216   9.351  0.4890 -0.1443 -1.7487
   69SLPC  C217 5907   3.887   4.357   9.203 -0.0882  0.4354  0.2805
   69SLPC  H17R 5908   3.981   4.416   9.202  0.0936  0.1656  0.9039
   69SLPC  H17S 5909   3.807   4.429   9.176 -2.0843 -2.1390 -1.2223
   69SLPC  C218 5910   3.894   4.254   9.087  0.1110  0.6315  0.0904
   69SLPC  H18R 5911   3.803   4.205   9.047  0.8362 -0.7825  0.1155
   69SLPC  H18S 5912   3.955   4.164   9.113  1.5951 -0.2220 -5.2188
   69SLPC  H18T 5913   3.940   4.296   8.995  0.5227  0.0756  0.0389
   69SLPC   C33 5914   4.206   4.277  10.674  0.7811  0.4316 -0.5505
   69SLPC   H3X 5915   4.291   4.258  10.743 -0.4142 -1.7281  0.4272
   69SLPC   H3Y 5916   4.186   4.386  10.681 -2.3772  0.0232 -1.6804
   69SLPC   C34 5917   4.263   4.229  10.538  0.7376  0.6951 -0.2522
   69SLPC   H4X 5918   4.322   4.136  10.554  3.7741  2.8173  1.8990
   69SLPC   H4Y 5919   4.349   4.289  10.503  1.7016 -0.4385  0.0954
   69SLPC   C35 5920   4.163   4.211  10.422  0.5188  0.2887 -0.1096
   69SLPC   H5X 5921   4.124   4.314  10.408 -0.6799  0.0596  1.3495
   69SLPC   H5Y 5922   4.090   4.135  10.457  1.9259 -0.7409  0.6956
   69SLPC   C36 5923   4.214   4.162  10.279 -0.1332 -0.3366 -0.2637
   69SLPC   H6X 5924   4.121   4.157  10.218  0.4992  1.8550 -1.4888
   69SLPC   H6Y 5925   4.266   4.065  10.292 -1.7045 -1.4055 -1.4689
   69SLPC   C37 5926   4.307   4.264  10.199  0.5094  0.6810  0.0165
   69SLPC   H7X 5927   4.397   4.259  10.263  0.2569 -0.0015  0.3303
   69SLPC   H7Y 5928   4.264   4.366  10.209  1.6196  1.1412  0.3090
   69SLPC   C38 5929   4.324   4.232  10.053 -0.0114  0.0191  0.7129
   69SLPC   H8X 5930   4.228   4.233   9.996  0.0158  1.1264  0.6546
   69SLPC   H8Y 5931   4.365   4.129  10.045  0.2225  0.2328 -1.1400
   69SLPC   C39 5932   4.405   4.344   9.988  0.2183 -0.2660 -0.0395
   69SLPC   H9X 5933   4.496   4.365  10.049  0.7254 -0.9176 -0.5563
   69SLPC   H9Y 5934   4.350   4.439  10.002 -2.5253 -1.6936 -0.3670
   69SLPC  C310 5935   4.453   4.316   9.843 -0.1086  0.1711 -0.0161
   69SLPC  H10X 5936   4.478   4.208   9.839 -4.1201 -0.9719  1.1099
   69SLPC  H10Y 5937   4.533   4.390   9.821 -0.9314  0.9930 -0.3078
   69SLPC  C311 5938   4.345   4.331   9.737  0.1712 -0.0795  0.9580
   69SLPC  H11X 5939   4.285   4.422   9.763  1.7634  0.9695  1.0788
   69SLPC  H11Y 5940   4.294   4.232   9.739 -0.8467  0.3976 -0.3584
   69SLPC  C312 5941   4.415   4.342   9.597  0.4190  0.0144 -0.2249
   69SLPC  H12X 5942   4.472   4.250   9.573 -0.1143 -0.8244  1.5618
   69SLPC  H12Y 5943   4.502   4.409   9.614  0.7550 -0.6898  0.9208
   69SLPC  C313 5944   4.319   4.390   9.486 -0.0780  0.0007 -0.4735
   69SLPC  H13X 5945   4.312   4.501   9.498  0.6042 -0.1672  1.7668
   69SLPC  H13Y 5946   4.226   4.330   9.492 -0.4226  0.5847  0.1145
   69SLPC  C314 5947   4.366   4.363   9.341 -0.2218 -0.2713  0.0635
   69SLPC  H14X 5948   4.429   4.272   9.328  0.5313  0.2864 -0.2750
   69SLPC  H14Y 5949   4.443   4.439   9.314 -0.9557  0.6126  0.3834
   69SLPC  C315 5950   4.252   4.372   9.235  0.0353 -0.3186  0.1657
   69SLPC  H15X 5951   4.195   4.467   9.245 -1.6504 -1.4628  2.3576
   69SLPC  H15Y 5952   4.183   4.289   9.262 -0.1463 -0.2961 -0.2228
   69SLPC  C316 5953   4.309   4.365   9.092 -0.5633  0.4156  0.0824
   69SLPC  H16X 5954   4.380   4.281   9.078 -2.0055 -0.4063 -3.0534
   69SLPC  H16Y 5955   4.377   4.451   9.074  0.6945 -0.6866 -0.6133
   69SLPC  C317 5956   4.214   4.358   8.973  0.0158  0.7750 -0.1171
   69SLPC  H17X 5957   4.155   4.451   8.962 -1.3097  0.0463  0.5801
   69SLPC  H17Y 5958   4.155   4.265   8.988  1.4105  0.2077  2.3444
   69SLPC  C318 5959   4.292   4.337   8.849  0.1247 -0.6713  0.1501
   69SLPC  H18X 5960   4.220   4.300   8.772 -1.6849  0.0974  1.4086
   69SLPC  H18Y 5961   4.371   4.262   8.870  0.1209 -1.3093 -1.8504
   69SLPC  H18Z 5962   4.330   4.436   8.816 -1.8901  0.3982  0.8132
   70SLPC     N 5963   4.557   3.208  11.306  0.0890  0.4188  0.0087
   70SLPC   C13 5964   4.686   3.141  11.282 -0.3152  0.2532  0.0621
   70SLPC  H13A 5965   4.667   3.036  11.295 -1.6315  0.7006  2.2798
   70SLPC  H13B 5966   4.703   3.150  11.175 -1.0410  0.0297 -0.0809
   70SLPC  H13C 5967   4.775   3.178  11.331 -0.6413 -0.6988  1.4179
   70SLPC   C14 5968   4.579   3.348  11.261 -0.5982  0.4998 -0.4156
   70SLPC  H14A 5969   4.591   3.366  11.155 -3.0002  1.9608 -0.5044
   70SLPC  H14B 5970   4.501   3.413  11.297 -0.4980  0.1838  0.3989
   70SLPC  H14C 5971   4.668   3.380  11.314 -0.1416 -3.5754  1.7112
   70SLPC   C15 5972   4.533   3.212  11.453 -1.0823  0.9495  0.9908
   70SLPC  H15A 5973   4.541   3.115  11.501 -1.1386  0.0581 -0.7309
   70SLPC  H15B 5974   4.607   3.271  11.504  2.2496 -1.5868 -0.5585
   70SLPC  H15C 5975   4.432   3.242  11.480 -2.1026 -2.0760  0.9202
   70SLPC   C12 5976   4.440   3.147  11.242 -0.5266 -0.2900 -0.3786
   70SLPC  H12A 5977   4.357   3.216  11.251 -1.4553 -1.0460 -2.6838
   70SLPC  H12B 5978   4.414   3.055  11.291  2.2891 -0.1201  1.7571
   70SLPC   C11 5979   4.460   3.111  11.096 -0.3995 -0.0718 -0.6784
   70SLPC  H11A 5980   4.544   3.040  11.080  0.8444  1.3055 -0.3899
   70SLPC  H11B 5981   4.479   3.199  11.030 -3.9769  0.7425 -0.8264
   70SLPC     P 5982   4.308   2.912  11.045  0.0260  0.0130 -0.1045
   70SLPC   O13 5983   4.357   2.854  11.172 -0.0042  0.4322 -0.3160
   70SLPC   O14 5984   4.164   2.890  11.005 -0.1575 -0.5130 -0.8757
   70SLPC   O12 5985   4.334   3.063  11.045 -0.0978  0.1210 -0.7355
   70SLPC   O11 5986   4.395   2.853  10.929 -0.4360  0.0280  0.4733
   70SLPC    C1 5987   4.425   2.931  10.805 -0.4058  0.5238 -1.0670
   70SLPC    HA 5988   4.499   3.014  10.811 -0.6747  0.7859 -1.3370
   70SLPC    HB 5989   4.469   2.856  10.735  0.0365  0.2024 -0.4548
   70SLPC    C2 5990   4.297   2.990  10.728  0.7539 -0.4458 -0.8313
   70SLPC    HS 5991   4.219   3.015  10.803  0.1348  1.9803 -2.1886
   70SLPC   O21 5992   4.242   2.883  10.653  0.3700  0.2689 -0.3349
   70SLPC   C21 5993   4.130   2.909  10.591  0.6517 -0.1053  0.4015
   70SLPC   O22 5994   4.044   2.989  10.624 -0.4226  0.0820  0.3665
   70SLPC   C22 5995   4.124   2.823  10.467 -0.3506  0.5632  0.3689
   70SLPC   H2R 5996   4.170   2.723  10.484  0.3706  1.1988  2.4399
   70SLPC   H2S 5997   4.016   2.801  10.451 -0.6297  0.2428  2.4468
   70SLPC    C3 5998   4.328   3.113  10.647  0.1041 -1.4067 -0.4155
   70SLPC    HX 5999   4.382   3.180  10.719  0.4845 -1.6739 -0.4469
   70SLPC    HY 6000   4.230   3.153  10.613  0.0306 -0.2178  1.0557
   70SLPC   O31 6001   4.413   3.083  10.534 -0.0938  0.1729  0.3052
   70SLPC   C31 6002   4.440   3.195  10.459 -0.1030 -1.0664  0.5254
   70SLPC   O32 6003   4.408   3.307  10.492  0.2896  0.7198  0.1907
   70SLPC   C32 6004   4.519   3.168  10.335 -0.1385  0.4644  0.2026
   70SLPC   H2X 6005   4.526   3.057  10.335 -0.2189  0.4598 -0.3488
   70SLPC   H2Y 6006   4.620   3.206  10.364 -0.3368 -0.1985  1.8988
   70SLPC   C23 6007   4.183   2.884  10.336  0.0416 -0.0750  0.2017
   70SLPC   H3R 6008   4.293   2.878  10.336  0.0049 -0.7940  0.0457
   70SLPC   H3S 6009   4.159   2.992  10.342 -0.3686 -0.2077  1.2009
   70SLPC   C24 6010   4.122   2.821  10.205 -0.3883  0.3017 -0.3564
   70SLPC   H4R 6011   4.013   2.843  10.210 -0.2664  0.7684  3.4278
   70SLPC   H4S 6012   4.115   2.710  10.218 -0.9107  0.3674 -0.0331
   70SLPC   C25 6013   4.192   2.888  10.081 -0.4395 -0.2546  0.3053
   70SLPC   H5R 6014   4.299   2.879  10.107 -0.1307 -0.0315 -0.8316
   70SLPC   H5S 6015   4.161   2.992  10.057  0.3440 -0.6706 -3.1378
   70SLPC   C26 6016   4.156   2.815   9.948  0.1528  0.4818 -0.1601
   70SLPC   H6R 6017   4.052   2.822   9.909  0.7633 -0.9693 -2.2230
   70SLPC   H6S 6018   4.181   2.707   9.950 -0.0016  0.4269 -0.8131
   70SLPC   C27 6019   4.254   2.869   9.838  0.2145  0.3220  0.2178
   70SLPC   H7R 6020   4.357   2.889   9.873 -0.5951  0.6730  2.5848
   70SLPC   H7S 6021   4.217   2.969   9.805 -0.3122 -0.1423 -0.6231
   70SLPC   C28 6022   4.260   2.778   9.715  0.2368 -0.6363  0.3259
   70SLPC   H8R 6023   4.316   2.686   9.742  1.2139  0.0625  0.7691
   70SLPC   H8S 6024   4.322   2.834   9.641  1.6455 -3.1056 -0.4732
   70SLPC   C29 6025   4.130   2.731   9.652 -0.3913 -0.6220 -0.0809
   70SLPC   H9R 6026   4.066   2.666   9.713  0.4272 -1.7708 -0.4169
   70SLPC  C210 6027   4.096   2.763   9.526 -0.2465  0.1120 -0.1003
   70SLPC  H10R 6028   3.996   2.727   9.499 -1.0264 -0.6457  3.3281
   70SLPC  C211 6029   4.162   2.864   9.429  0.2870 -0.2858  0.9473
   70SLPC  H11R 6030   4.135   2.826   9.328 -3.0642 -2.4987  2.5038
   70SLPC  H11S 6031   4.274   2.864   9.432  0.3028  0.9212  0.7375
   70SLPC  C212 6032   4.120   3.010   9.434 -0.0082  0.4046  0.9901
   70SLPC  H12R 6033   4.196   3.078   9.474  0.5794  0.5173 -0.2831
   70SLPC  C213 6034   3.998   3.057   9.399 -0.1133 -0.3123  0.4440
   70SLPC  H13R 6035   3.976   3.163   9.416 -0.3601 -0.4526  1.0289
   70SLPC  C214 6036   3.884   2.976   9.353  0.4039  0.3510 -0.4302
   70SLPC  H14R 6037   3.797   2.964   9.421  0.0165  1.3346 -0.7302
   70SLPC  H14S 6038   3.920   2.872   9.341  1.7759  0.6345  0.8513
   70SLPC  C215 6039   3.818   3.015   9.219 -0.3489 -0.8357  0.1229
   70SLPC  H15R 6040   3.888   3.010   9.133 -0.5813  1.5573 -0.2876
   70SLPC  H15S 6041   3.789   3.122   9.230  1.8988 -0.2456  0.6965
   70SLPC  C216 6042   3.694   2.929   9.200  0.5282 -0.3210 -0.5873
   70SLPC  H16R 6043   3.635   2.922   9.295 -1.7158  1.1713 -1.7754
   70SLPC  H16S 6044   3.721   2.826   9.169 -2.0582 -1.2600 -0.0273
   70SLPC  C217 6045   3.595   2.978   9.095  1.1418 -0.1920  0.3108
   70SLPC  H17R 6046   3.643   2.982   8.995 -0.6458 -1.1378 -0.6332
   70SLPC  H17S 6047   3.556   3.080   9.116 -0.6255 -0.6785 -0.4381
   70SLPC  C218 6048   3.472   2.879   9.073  0.7627 -0.0236 -1.1858
   70SLPC  H18R 6049   3.410   2.927   8.994 -0.9529  1.3481  0.8860
   70SLPC  H18S 6050   3.418   2.872   9.170  1.9396 -1.7993 -0.5959
   70SLPC  H18T 6051   3.509   2.784   9.027 -0.1180 -0.7157 -0.4962
   70SLPC   C33 6052   4.451   3.215  10.210 -0.2893  0.4783 -0.2447
   70SLPC   H3X 6053   4.444   3.326  10.213  0.7844  0.5411  1.8961
   70SLPC   H3Y 6054   4.355   3.161  10.198 -1.3993  2.4388 -0.6253
   70SLPC   C34 6055   4.541   3.182  10.090 -0.3717 -0.1309 -0.6274
   70SLPC   H4X 6056   4.573   3.075  10.096  0.7577  0.2711  2.4811
   70SLPC   H4Y 6057   4.630   3.248  10.100  0.0742 -0.9787  1.8106
   70SLPC   C35 6058   4.468   3.215   9.961 -0.4957 -0.3633 -0.3318
   70SLPC   H5X 6059   4.439   3.322   9.953 -0.6348 -0.4936 -2.0229
   70SLPC   H5Y 6060   4.374   3.155   9.961 -1.3492  0.9006  1.0525
   70SLPC   C36 6061   4.550   3.183   9.833  0.0155 -0.0091  0.6221
   70SLPC   H6X 6062   4.594   3.083   9.850  1.0442  0.2703 -0.3242
   70SLPC   H6Y 6063   4.632   3.256   9.821 -0.0411 -0.0413  0.0075
   70SLPC   C37 6064   4.467   3.190   9.704  0.1623 -0.4678  0.0585
   70SLPC   H7X 6065   4.410   3.286   9.709 -0.9630 -1.1463  0.6205
   70SLPC   H7Y 6066   4.395   3.105   9.701 -0.2627 -0.1082 -0.1145
   70SLPC   C38 6067   4.534   3.195   9.570  0.0830 -0.2524 -0.2636
   70SLPC   H8X 6068   4.619   3.124   9.569 -0.5450 -1.0440  0.4711
   70SLPC   H8Y 6069   4.581   3.294   9.550 -0.7756  0.1788 -0.2117
   70SLPC   C39 6070   4.448   3.160   9.448  0.6251 -0.0878  0.3096
   70SLPC   H9X 6071   4.351   3.209   9.469  0.4240  0.3364 -1.3978
   70SLPC   H9Y 6072   4.433   3.051   9.439 -2.0330  0.2874 -0.5938
   70SLPC  C310 6073   4.483   3.231   9.314 -0.3471  1.4688 -0.0632
   70SLPC  H10X 6074   4.494   3.341   9.331 -0.0470  1.6774 -1.4456
   70SLPC  H10Y 6075   4.403   3.231   9.236  0.5899  2.7730 -1.0907
   70SLPC  C311 6076   4.618   3.183   9.247  0.6911 -0.9760 -0.0654
   70SLPC  H11X 6077   4.699   3.181   9.324  0.0346  1.8653  0.8121
   70SLPC  H11Y 6078   4.648   3.262   9.176 -0.9301  1.4084  1.7199
   70SLPC  C312 6079   4.610   3.037   9.193 -0.1173  0.2946  0.0902
   70SLPC  H12X 6080   4.580   2.965   9.272 -0.5352  1.2657  0.8496
   70SLPC  H12Y 6081   4.710   3.004   9.161  0.0213  1.0839 -0.3332
   70SLPC  C313 6082   4.508   3.020   9.079  0.7100 -0.6846 -0.2212
   70SLPC  H13X 6083   4.531   3.100   9.004 -0.3498  0.6899  0.8593
   70SLPC  H13Y 6084   4.404   3.048   9.106  0.6374  0.0422 -1.1757
   70SLPC  C314 6085   4.522   2.875   9.023  1.1124 -0.5654 -0.1199
   70SLPC  H14X 6086   4.426   2.819   9.022 -0.7370  2.3220  1.1599
   70SLPC  H14Y 6087   4.579   2.805   9.087  1.0751 -0.0343  0.5005
   70SLPC  C315 6088   4.574   2.864   8.877  0.5232  0.4581  0.2615
   70SLPC  H15X 6089   4.673   2.912   8.865  1.0008 -0.6820 -0.5291
   70SLPC  H15Y 6090   4.496   2.903   8.808  1.9086  1.0742 -0.9811
   70SLPC  C316 6091   4.589   2.714   8.828 -0.0182  0.3040 -0.3866
   70SLPC  H16X 6092   4.658   2.652   8.889 -1.3682 -0.8678  0.0295
   70SLPC  H16Y 6093   4.627   2.726   8.724  0.7780  1.3595  0.0085
   70SLPC  C317 6094   4.471   2.620   8.809 -0.0941 -0.2068  0.0090
   70SLPC  H17X 6095   4.436   2.581   8.907 -3.3723  0.9603 -0.5644
   70SLPC  H17Y 6096   4.501   2.535   8.745 -0.3599 -0.2582 -0.0515
   70SLPC  C318 6097   4.351   2.684   8.740 -0.1145  0.0334  0.6795
   70SLPC  H18X 6098   4.379   2.739   8.647 -1.3670 -0.8371 -0.2473
   70SLPC  H18Y 6099   4.315   2.767   8.804  1.3953  1.6129 -0.4219
   70SLPC  H18Z 6100   4.272   2.610   8.718 -0.4937  0.9477 -1.3105
   71SLPC     N 6101   5.909   1.763  10.973 -0.3696  0.3268 -0.3994
   71SLPC   C13 6102   6.051   1.811  10.964  0.3883  0.0640 -0.0992
   71SLPC  H13A 6103   6.110   1.724  10.937  0.0875 -1.2764  3.1820
   71SLPC  H13B 6104   6.074   1.884  10.887 -1.9677  1.3628  0.3400
   71SLPC  H13C 6105   6.097   1.854  11.052  0.6007  2.2425 -1.2041
   71SLPC   C14 6106   5.834   1.889  10.985  0.2765  0.2206 -0.2852
   71SLPC  H14A 6107   5.844   1.953  10.899 -0.4556 -1.2523 -1.5021
   71SLPC  H14B 6108   5.727   1.870  10.988  0.4147 -0.6544 -0.7466
   71SLPC  H14C 6109   5.871   1.948  11.068 -0.9084 -2.1287  2.0899
   71SLPC   C15 6110   5.883   1.683  11.100 -0.2971 -0.2949  0.1173
   71SLPC  H15A 6111   5.948   1.597  11.112 -1.4492 -0.9658  1.7648
   71SLPC  H15B 6112   5.885   1.748  11.186 -5.0727  2.2085 -1.3466
   71SLPC  H15C 6113   5.783   1.644  11.097 -0.2621 -0.3325 -1.1508
   71SLPC   C12 6114   5.878   1.683  10.849 -0.4593  0.0990  0.6847
   71SLPC  H12A 6115   5.929   1.588  10.855  0.4213  0.3572 -1.7789
   71SLPC  H12B 6116   5.912   1.741  10.765 -0.3004 -0.2725  0.4880
   71SLPC   C11 6117   5.730   1.646  10.821 -0.3503  0.7155 -0.7951
   71SLPC  H11A 6118   5.719   1.615  10.715  0.8639  1.6672 -1.2212
   71SLPC  H11B 6119   5.674   1.739  10.843 -1.2157  0.4637 -1.8896
   71SLPC     P 6120   5.561   1.471  10.923 -0.2453 -0.0666  0.2432
   71SLPC   O13 6121   5.551   1.424  11.064 -0.1616  0.5483  0.0664
   71SLPC   O14 6122   5.450   1.553  10.868  0.8221 -0.0135 -0.1525
   71SLPC   O12 6123   5.696   1.543  10.914  0.5679  0.9133  0.4494
   71SLPC   O11 6124   5.592   1.342  10.833 -0.2788 -0.0624  0.7741
   71SLPC    C1 6125   5.731   1.315  10.795  0.2483 -0.0147  0.3322
   71SLPC    HA 6126   5.779   1.387  10.725  0.3887 -0.4547 -0.0360
   71SLPC    HB 6127   5.799   1.314  10.882  2.6201  1.3402 -1.3813
   71SLPC    C2 6128   5.752   1.181  10.717  0.9028 -0.7387 -0.4728
   71SLPC    HS 6129   5.859   1.184  10.685  0.1112  1.9594 -3.3794
   71SLPC   O21 6130   5.667   1.171  10.601 -0.0399 -0.0947 -0.3589
   71SLPC   C21 6131   5.678   1.266  10.512  0.2494  0.7229  0.4724
   71SLPC   O22 6132   5.776   1.337  10.497 -0.1290  0.6503  0.2349
   71SLPC   C22 6133   5.554   1.276  10.426  0.3787  0.0552 -0.3998
   71SLPC   H2R 6134   5.508   1.179  10.400  1.3973 -0.1393 -1.5460
   71SLPC   H2S 6135   5.478   1.329  10.488  0.1367  0.4552 -1.0366
   71SLPC    C3 6136   5.726   1.058  10.815 -0.7566  0.9436  0.6360
   71SLPC    HX 6137   5.635   1.067  10.878 -1.4454 -0.2751 -0.1377
   71SLPC    HY 6138   5.804   1.063  10.894 -0.4011 -0.8439  0.4520
   71SLPC   O31 6139   5.721   0.928  10.743  0.4302 -0.2077  0.1889
   71SLPC   C31 6140   5.599   0.909  10.682 -0.1771  0.2384 -0.0698
   71SLPC   O32 6141   5.500   0.970  10.709  0.4053 -0.7137  0.3011
   71SLPC   C32 6142   5.625   0.811  10.579  0.9034  0.2623  0.1587
   71SLPC   H2X 6143   5.528   0.799  10.528  0.5031 -2.2146  1.3149
   71SLPC   H2Y 6144   5.644   0.710  10.622 -1.5085 -0.6063 -0.6932
   71SLPC   C23 6145   5.577   1.344  10.287  0.5324  0.2197 -0.7676
   71SLPC   H3R 6146   5.626   1.442  10.306  1.0875 -0.2153  0.0392
   71SLPC   H3S 6147   5.473   1.366  10.253 -0.2779  0.0778  1.4574
   71SLPC   C24 6148   5.640   1.259  10.176  0.3376 -0.0261 -0.1101
   71SLPC   H4R 6149   5.576   1.170  10.157 -0.0941  0.1178  0.6388
   71SLPC   H4S 6150   5.738   1.224  10.216  0.1559  0.7242  1.0508
   71SLPC   C25 6151   5.645   1.333  10.041 -0.2412  0.2922  0.2106
   71SLPC   H5R 6152   5.722   1.413  10.045 -1.6016  1.5998  2.7112
   71SLPC   H5S 6153   5.548   1.388  10.034  0.5605  1.6109 -1.0728
   71SLPC   C26 6154   5.654   1.238   9.919 -0.1225  0.0564 -0.0125
   71SLPC   H6R 6155   5.550   1.231   9.881 -1.3760 -1.5362  3.2743
   71SLPC   H6S 6156   5.692   1.139   9.953 -0.0704 -0.4045 -1.3629
   71SLPC   C27 6157   5.745   1.294   9.820  0.2292 -0.1849 -0.0740
   71SLPC   H7R 6158   5.848   1.281   9.860 -0.4327 -0.4244  1.6482
   71SLPC   H7S 6159   5.725   1.402   9.809  0.3043  0.2139  3.0139
   71SLPC   C28 6160   5.749   1.218   9.683  0.7996 -0.4671  0.3725
   71SLPC   H8R 6161   5.643   1.195   9.660  0.1378  1.0972  1.6413
   71SLPC   H8S 6162   5.805   1.122   9.689  0.1490 -0.9537 -0.9239
   71SLPC   C29 6163   5.807   1.312   9.574 -0.4468 -0.3575  0.6517
   71SLPC   H9R 6164   5.901   1.365   9.595 -1.3233  1.1517  0.9892
   71SLPC  C210 6165   5.744   1.351   9.465  0.2750  0.2236  0.2395
   71SLPC  H10R 6166   5.802   1.422   9.403 -0.9564  2.8085  1.8810
   71SLPC  C211 6167   5.608   1.309   9.421  0.3180  0.2171  0.2162
   71SLPC  H11R 6168   5.572   1.386   9.350 -1.1705  0.7968  1.5402
   71SLPC  H11S 6169   5.542   1.315   9.510 -1.5455 -1.2737 -1.0043
   71SLPC  C212 6170   5.600   1.165   9.365  0.6848 -0.6871 -0.0123
   71SLPC  H12R 6171   5.601   1.088   9.443 -2.4226 -1.3656 -0.5210
   71SLPC  C213 6172   5.572   1.129   9.238  0.4497 -0.7174  0.3849
   71SLPC  H13R 6173   5.558   1.021   9.221  0.8772 -1.2381  2.8395
   71SLPC  C214 6174   5.541   1.230   9.126 -0.4493  0.2844 -0.5941
   71SLPC  H14R 6175   5.556   1.338   9.146 -1.4618  0.4117 -0.4510
   71SLPC  H14S 6176   5.440   1.201   9.090 -0.7633 -0.9631  1.1438
   71SLPC  C215 6177   5.636   1.188   9.006 -0.4516  0.6598 -0.4432
   71SLPC  H15R 6178   5.671   1.083   9.022 -1.5641  0.3751  0.1938
   71SLPC  H15S 6179   5.726   1.253   8.995 -0.7494  1.0071 -0.8423
   71SLPC  C216 6180   5.577   1.202   8.864  0.3276 -0.6156 -0.3108
   71SLPC  H16R 6181   5.546   1.306   8.845 -1.0177 -1.1176 -0.9709
   71SLPC  H16S 6182   5.487   1.137   8.856 -0.0725 -0.1442  0.2628
   71SLPC  C217 6183   5.678   1.177   8.749  0.3693  0.0203  0.4096
   71SLPC  H17R 6184   5.723   1.076   8.754  3.3177  0.8922 -3.7160
   71SLPC  H17S 6185   5.758   1.252   8.765 -0.4276  0.7955  0.9261
   71SLPC  C218 6186   5.637   1.196   8.603  0.3016  0.3453  0.3358
   71SLPC  H18R 6187   5.653   1.303   8.577  0.9846  0.3751  0.8506
   71SLPC  H18S 6188   5.530   1.178   8.576  0.7655  2.3131 -3.5099
   71SLPC  H18T 6189   5.709   1.150   8.533  3.2591  1.9988  2.0893
   71SLPC   C33 6190   5.743   0.843  10.484  0.1389 -0.5507  0.2791
   71SLPC   H3X 6191   5.839   0.838  10.540  0.5799 -3.2128 -0.5958
   71SLPC   H3Y 6192   5.720   0.939  10.433 -1.4275 -1.2445 -0.3920
   71SLPC   C34 6193   5.749   0.742  10.368 -0.2764  0.5549  0.0222
   71SLPC   H4X 6194   5.651   0.735  10.316 -0.1295 -0.1863 -0.1588
   71SLPC   H4Y 6195   5.770   0.645  10.419  0.3505 -0.7589 -2.5723
   71SLPC   C35 6196   5.859   0.773  10.265  0.5005  0.8128  0.6080
   71SLPC   H5X 6197   5.957   0.785  10.314  1.0064 -3.2392  0.9213
   71SLPC   H5Y 6198   5.841   0.870  10.213  1.1338  1.2710  1.2310
   71SLPC   C36 6199   5.877   0.661  10.162  0.1245  0.4743 -0.1451
   71SLPC   H6X 6200   5.858   0.565  10.215 -0.7062  1.2456  1.0014
   71SLPC   H6Y 6201   5.986   0.674  10.143  0.1710  1.8367  0.8936
   71SLPC   C37 6202   5.796   0.677  10.028 -0.7744 -0.7512 -1.1980
   71SLPC   H7X 6203   5.713   0.748  10.045 -0.6441 -0.2465 -2.5142
   71SLPC   H7Y 6204   5.746   0.578  10.024 -1.9423 -0.1409 -2.3224
   71SLPC   C38 6205   5.882   0.709   9.905 -0.3792  0.4403 -0.0469
   71SLPC   H8X 6206   5.958   0.630   9.886  1.7930  2.4908 -0.3659
   71SLPC   H8Y 6207   5.923   0.812   9.918 -0.9148  0.5776  0.5838
   71SLPC   C39 6208   5.790   0.706   9.785 -0.1239 -0.1373  0.0156
   71SLPC   H9X 6209   5.698   0.768   9.796  0.7136  1.4515 -1.4160
   71SLPC   H9Y 6210   5.740   0.608   9.775  0.9302 -0.8628  1.5057
   71SLPC  C310 6211   5.860   0.756   9.660 -0.2803  0.3800  0.0032
   71SLPC  H10X 6212   5.954   0.699   9.644  0.0475  0.7649  0.5257
   71SLPC  H10Y 6213   5.880   0.865   9.672  0.0191  0.3430 -0.1306
   71SLPC  C311 6214   5.775   0.747   9.529 -0.9196  0.3937  0.0899
   71SLPC  H11X 6215   5.696   0.825   9.531  2.0490  3.7386 -1.4368
   71SLPC  H11Y 6216   5.730   0.646   9.519  0.7274 -0.3663  0.0120
   71SLPC  C312 6217   5.870   0.760   9.400 -0.6173 -0.3278 -0.3759
   71SLPC  H12X 6218   5.938   0.673   9.406 -0.9948 -0.5831  0.4416
   71SLPC  H12Y 6219   5.928   0.854   9.402 -2.3877  0.8075  1.2155
   71SLPC  C313 6220   5.787   0.778   9.274 -0.5352 -1.1965  0.0734
   71SLPC  H13X 6221   5.724   0.868   9.283  1.8050  0.9509 -2.7388
   71SLPC  H13Y 6222   5.728   0.684   9.260  1.3795 -2.5217  0.4173
   71SLPC  C314 6223   5.864   0.792   9.141 -0.3516 -0.1913  0.1095
   71SLPC  H14X 6224   5.893   0.898   9.123  0.8041 -0.3391  1.0404
   71SLPC  H14Y 6225   5.800   0.756   9.057 -0.0300  1.5816 -0.9423
   71SLPC  C315 6226   5.995   0.711   9.135  0.3253  0.4117 -0.2376
   71SLPC  H15X 6227   5.974   0.613   9.181 -0.8915 -0.9953 -3.4498
   71SLPC  H15Y 6228   6.064   0.778   9.191  0.4202 -1.4788  2.0445
   71SLPC  C316 6229   6.040   0.682   8.995 -0.3050 -0.4664  0.0557
   71SLPC  H16X 6230   5.969   0.613   8.945  0.7617 -1.7567  0.2588
   71SLPC  H16Y 6231   6.136   0.625   8.996  0.3692  0.6160 -0.7593
   71SLPC  C317 6232   6.051   0.798   8.897  0.5384 -0.5673  0.1107
   71SLPC  H17X 6233   6.108   0.880   8.945 -0.4158 -0.7535  1.6266
   71SLPC  H17Y 6234   5.945   0.830   8.887  0.6562  0.0421  0.7094
   71SLPC  C318 6235   6.090   0.766   8.745  0.4554  0.3713 -0.0849
   71SLPC  H18X 6236   6.198   0.746   8.726  0.4293  1.8571 -2.1090
   71SLPC  H18Y 6237   6.054   0.851   8.683  0.9098  0.5924 -0.0536
   71SLPC  H18Z 6238   6.037   0.679   8.702  1.4457  0.5655 -1.7715
   72SLPC     N 6239   6.413   6.625  10.988  0.0328  0.8788 -0.0221
   72SLPC   C13 6240   6.484   6.751  10.994  0.3703  0.6391  0.3863
   72SLPC  H13A 6241   6.533   6.755  11.091  0.8947 -0.8668  0.2132
   72SLPC  H13B 6242   6.553   6.757  10.911  0.5793 -0.5690  0.4608
   72SLPC  H13C 6243   6.414   6.832  10.979 -1.2395 -0.9219 -0.9770
   72SLPC   C14 6244   6.493   6.526  11.061 -0.1765  0.1449 -0.1238
   72SLPC  H14A 6245   6.434   6.437  11.077 -0.9031  0.4039 -1.2136
   72SLPC  H14B 6246   6.583   6.512  11.002 -2.0361 -1.4390 -2.8481
   72SLPC  H14C 6247   6.514   6.566  11.158 -0.8408  0.2127 -0.0003
   72SLPC   C15 6248   6.402   6.575  10.847  0.5469 -0.4725 -0.2676
   72SLPC  H15A 6249   6.347   6.483  10.853 -2.2469  1.0459 -0.8985
   72SLPC  H15B 6250   6.348   6.648  10.788  1.8983 -0.3881 -1.4615
   72SLPC  H15C 6251   6.499   6.566  10.800  0.2877  0.6771 -1.0833
   72SLPC   C12 6252   6.273   6.639  11.057 -0.1575 -0.7599  0.1203
   72SLPC  H12A 6253   6.235   6.737  11.030 -0.7204 -0.5286  1.7039
   72SLPC  H12B 6254   6.283   6.639  11.164  0.7252  0.1144  0.0564
   72SLPC   C11 6255   6.171   6.529  11.032  0.9975  0.5427 -0.0531
   72SLPC  H11A 6256   6.133   6.530  10.928 -2.2965 -1.6401  0.9692
   72SLPC  H11B 6257   6.083   6.555  11.096 -0.1540  1.1021 -1.7983
   72SLPC     P 6258   6.137   6.281  11.077  0.2721  0.1938  0.0893
   72SLPC   O13 6259   6.214   6.156  11.091  0.1265 -0.0506  0.4344
   72SLPC   O14 6260   6.017   6.298  11.167  0.1909  0.9010  0.4832
   72SLPC   O12 6261   6.220   6.401  11.075 -0.4644 -0.1487  0.8455
   72SLPC   O11 6262   6.060   6.278  10.938  0.8605 -0.4830  0.5582
   72SLPC    C1 6263   5.942   6.192  10.936 -0.1808 -0.2034  0.7493
   72SLPC    HA 6264   5.969   6.086  10.953  0.3450 -0.0974  0.5977
   72SLPC    HB 6265   5.872   6.226  11.015  0.2170  0.6478  0.7449
   72SLPC    C2 6266   5.858   6.206  10.800  0.2429 -0.0494  0.1693
   72SLPC    HS 6267   5.771   6.138  10.815 -0.7430  1.8867  5.5713
   72SLPC   O21 6268   5.946   6.183  10.690  0.0937  0.3500  0.6292
   72SLPC   C21 6269   5.991   6.058  10.671 -0.5523  0.5277 -0.2201
   72SLPC   O22 6270   5.942   5.960  10.727 -0.2711  0.4117 -0.3348
   72SLPC   C22 6271   6.102   6.051  10.572  0.0613 -0.3182  0.2965
   72SLPC   H2R 6272   6.165   6.139  10.601 -1.3038  0.8972 -0.2938
   72SLPC   H2S 6273   6.161   5.957  10.578  2.0470  0.9305  1.8352
   72SLPC    C3 6274   5.793   6.345  10.776  0.4193  0.0298 -0.0871
   72SLPC    HX 6275   5.862   6.431  10.788  1.0624 -0.3858 -0.7062
   72SLPC    HY 6276   5.708   6.363  10.844 -1.0770  0.2986 -1.9417
   72SLPC   O31 6277   5.736   6.342  10.640 -0.5421 -0.6221  0.4422
   72SLPC   C31 6278   5.820   6.367  10.540  0.5786  0.3753  0.0745
   72SLPC   O32 6279   5.937   6.402  10.551  0.0415 -0.0764  0.2498
   72SLPC   C32 6280   5.741   6.340  10.408 -0.3049 -0.7761  0.2054
   72SLPC   H2X 6281   5.637   6.380  10.413 -0.8511 -2.1958  0.8664
   72SLPC   H2Y 6282   5.738   6.229  10.403  4.1498 -0.9938 -1.8105
   72SLPC   C23 6283   6.054   6.075  10.434  0.7556  0.8370  0.4624
   72SLPC   H3R 6284   5.985   6.162  10.426  1.2661  1.6373  3.4349
   72SLPC   H3S 6285   5.994   5.987  10.402  1.2186  0.3491  0.9097
   72SLPC   C24 6286   6.173   6.093  10.338  0.6057  0.4555  0.0712
   72SLPC   H4R 6287   6.249   6.011  10.344  0.4647  0.4199  1.9717
   72SLPC   H4S 6288   6.215   6.194  10.355  1.9898 -0.1251  0.2543
   72SLPC   C25 6289   6.139   6.086  10.192 -0.4080  0.0382  0.6215
   72SLPC   H5R 6290   6.044   6.143  10.182  1.5200  3.9019  2.2435
   72SLPC   H5S 6291   6.120   5.986  10.146 -1.0762  0.1297  0.6902
   72SLPC   C26 6292   6.234   6.167  10.094  0.0595  0.1700  0.0811
   72SLPC   H6R 6293   6.317   6.109  10.049  1.8251  1.7793  1.1037
   72SLPC   H6S 6294   6.286   6.243  10.155 -0.6251  0.9223 -0.2476
   72SLPC   C27 6295   6.163   6.240   9.973  0.3327 -0.4760  0.0464
   72SLPC   H7R 6296   6.236   6.300   9.914  0.2516  0.1417  0.5630
   72SLPC   H7S 6297   6.097   6.308  10.031 -1.3487 -1.5325 -0.5611
   72SLPC   C28 6298   6.093   6.140   9.880  0.0868 -0.1626  0.5657
   72SLPC   H8R 6299   6.025   6.076   9.940  1.9904 -1.5127  1.3997
   72SLPC   H8S 6300   6.173   6.070   9.848  0.8709  0.1712  1.7538
   72SLPC   C29 6301   6.021   6.212   9.768 -0.2338 -0.7287 -0.2306
   72SLPC   H9R 6302   5.921   6.250   9.793  0.2603  1.0370 -0.7908
   72SLPC  C210 6303   6.072   6.242   9.651 -0.2162  0.0772 -0.7436
   72SLPC  H10R 6304   6.011   6.300   9.580 -3.4131  1.1507  2.5663
   72SLPC  C211 6305   6.214   6.209   9.607 -0.1423 -0.2983  0.5492
   72SLPC  H11R 6306   6.288   6.178   9.685  2.2090 -0.9902 -1.8115
   72SLPC  H11S 6307   6.252   6.307   9.572  0.5158 -0.8665 -0.3742
   72SLPC  C212 6308   6.207   6.112   9.491  0.0889 -0.4431  0.4826
   72SLPC  H12R 6309   6.146   6.023   9.512  1.1869 -1.4575 -0.5653
   72SLPC  C213 6310   6.257   6.140   9.367 -0.0329  0.3978 -0.0958
   72SLPC  H13R 6311   6.234   6.068   9.287 -2.7506 -0.5894  1.4355
   72SLPC  C214 6312   6.327   6.262   9.319 -0.1256  0.0871 -0.2235
   72SLPC  H14R 6313   6.425   6.262   9.372  0.9198 -3.5746 -1.7910
   72SLPC  H14S 6314   6.274   6.356   9.346  0.0053 -0.6889  3.2478
   72SLPC  C215 6315   6.355   6.258   9.169 -0.1690 -0.1009  0.0738
   72SLPC  H15R 6316   6.256   6.252   9.119 -0.6219  2.4723  0.5142
   72SLPC  H15S 6317   6.412   6.169   9.135 -0.0228 -1.2194  2.9222
   72SLPC  C216 6318   6.436   6.384   9.120 -0.0542 -0.1256  0.1930
   72SLPC  H16R 6319   6.501   6.414   9.206 -0.7571 -1.9015  1.4176
   72SLPC  H16S 6320   6.367   6.467   9.097  1.7495  1.2404 -0.5388
   72SLPC  C217 6321   6.506   6.351   8.985 -0.0910  0.2273 -0.3920
   72SLPC  H17R 6322   6.433   6.332   8.904  1.7789 -0.1866 -2.0523
   72SLPC  H17S 6323   6.571   6.264   9.007 -0.6396  0.2620  1.5225
   72SLPC  C218 6324   6.588   6.471   8.946 -0.6668 -0.0974 -0.3580
   72SLPC  H18R 6325   6.517   6.554   8.925  0.1889  1.0236  0.9464
   72SLPC  H18S 6326   6.636   6.449   8.848 -0.5321 -0.9838 -0.0960
   72SLPC  H18T 6327   6.654   6.496   9.033  0.7114 -1.8353 -0.8442
   72SLPC   C33 6328   5.819   6.388  10.285 -0.3632  0.0200 -0.5795
   72SLPC   H3X 6329   5.904   6.330  10.242  1.9046  2.0340  0.9126
   72SLPC   H3Y 6330   5.852   6.493  10.300  1.8732 -0.6377 -0.4693
   72SLPC   C34 6331   5.716   6.391  10.170  0.5154  0.1615  0.4064
   72SLPC   H4X 6332   5.633   6.461  10.189 -0.8936 -0.6725 -2.1785
   72SLPC   H4Y 6333   5.669   6.294  10.143  0.6316  0.0457  0.6161
   72SLPC   C35 6334   5.780   6.449  10.043 -0.2086  0.2408 -0.2760
   72SLPC   H5X 6335   5.889   6.425  10.041 -0.4102 -0.7128 -0.6532
   72SLPC   H5Y 6336   5.777   6.560  10.047  0.4376  0.4312 -3.0771
   72SLPC   C36 6337   5.702   6.421   9.912  0.9443  0.4097 -0.9325
   72SLPC   H6X 6338   5.595   6.431   9.940  1.4866  0.3566  1.3154
   72SLPC   H6Y 6339   5.720   6.314   9.886 -4.0054 -1.5646  2.3195
   72SLPC   C37 6340   5.727   6.513   9.795  0.2202  0.3097 -0.1384
   72SLPC   H7X 6341   5.829   6.487   9.759  1.7822  1.9710  2.7599
   72SLPC   H7Y 6342   5.736   6.614   9.840 -1.6924  0.4938 -0.0789
   72SLPC   C38 6343   5.619   6.502   9.684  0.2864 -0.1601  0.4431
   72SLPC   H8X 6344   5.629   6.578   9.604 -0.8941 -1.6356 -1.2037
   72SLPC   H8Y 6345   5.518   6.509   9.729  0.5773 -0.7619  1.2208
   72SLPC   C39 6346   5.617   6.364   9.624 -0.4015 -0.5224 -0.2364
   72SLPC   H9X 6347   5.509   6.346   9.603 -1.2966  1.7033  1.9864
   72SLPC   H9Y 6348   5.647   6.289   9.700 -0.7732 -1.0420 -0.5945
   72SLPC  C310 6349   5.691   6.349   9.493 -0.3548 -0.6165  1.0067
   72SLPC  H10X 6350   5.699   6.240   9.471  0.1688 -0.8624  2.2738
   72SLPC  H10Y 6351   5.792   6.396   9.490 -0.7636  0.2303 -1.2807
   72SLPC  C311 6352   5.615   6.419   9.379  0.0301  0.6764 -0.3271
   72SLPC  H11X 6353   5.648   6.524   9.362  0.3814  0.9651  1.8142
   72SLPC  H11Y 6354   5.508   6.433   9.402 -0.5491 -0.1273 -2.3723
   72SLPC  C312 6355   5.619   6.346   9.244  0.1374  0.1170 -0.2035
   72SLPC  H12X 6356   5.574   6.247   9.264 -0.2442  0.2467 -0.4078
   72SLPC  H12Y 6357   5.725   6.335   9.213  0.2880  2.6259 -0.8532
   72SLPC  C313 6358   5.565   6.420   9.129 -0.0338 -0.1316 -0.1138
   72SLPC  H13X 6359   5.599   6.526   9.123 -2.0688  0.5255 -0.5719
   72SLPC  H13Y 6360   5.457   6.436   9.147 -0.3530 -1.1363 -1.0788
   72SLPC  C314 6361   5.584   6.350   8.999  0.1314 -0.1086 -0.6279
   72SLPC  H14X 6362   5.542   6.247   9.005  0.4865 -0.2909 -1.1212
   72SLPC  H14Y 6363   5.694   6.340   8.995  0.2668 -0.5278  2.2712
   72SLPC  C315 6364   5.531   6.432   8.880  0.4393  0.1906  0.1723
   72SLPC  H15X 6365   5.426   6.404   8.859 -0.1761  1.6043  1.1332
   72SLPC  H15Y 6366   5.590   6.411   8.788 -0.2224 -0.0199 -0.2089
   72SLPC  C316 6367   5.526   6.588   8.893  0.6445 -0.6151 -0.3537
   72SLPC  H16X 6368   5.626   6.634   8.881  0.0726  1.2539  1.5036
   72SLPC  H16Y 6369   5.486   6.625   8.990 -1.0201 -2.4889 -0.2554
   72SLPC  C317 6370   5.430   6.644   8.781  0.2932  0.1501  0.2410
   72SLPC  H17X 6371   5.326   6.620   8.810  0.4177 -0.7044  0.0164
   72SLPC  H17Y 6372   5.448   6.595   8.683 -2.5847 -0.7209  0.0482
   72SLPC  C318 6373   5.427   6.796   8.766 -0.2598 -0.4547  1.0478
   72SLPC  H18X 6374   5.449   6.832   8.663 -2.6552 -1.1050  0.2471
   72SLPC  H18Y 6375   5.509   6.842   8.825  0.3885  1.1145 -0.9589
   72SLPC  H18Z 6376   5.337   6.839   8.816 -0.7200  0.2398 -0.3365
   73SLPC     N 6377   6.575   4.715  11.527 -0.3526 -0.2807  0.0610
   73SLPC   C13 6378   6.580   4.842  11.597  0.5125  0.7486 -0.2526
   73SLPC  H13A 6379   6.512   4.847  11.681  0.0731  2.1330 -0.6540
   73SLPC  H13B 6380   6.681   4.849  11.635  0.6439 -2.2941  0.1969
   73SLPC  H13C 6381   6.570   4.925  11.528 -2.7014  1.7095  1.1531
   73SLPC   C14 6382   6.429   4.691  11.480  0.6361 -0.1684 -0.2560
   73SLPC  H14A 6383   6.428   4.611  11.408 -0.5212 -1.0935  0.7342
   73SLPC  H14B 6384   6.358   4.673  11.560  0.0378 -2.1875 -1.1661
   73SLPC  H14C 6385   6.399   4.787  11.441 -0.5327  1.1555  3.4488
   73SLPC   C15 6386   6.601   4.597  11.617 -0.2499 -0.2527 -0.0508
   73SLPC  H15A 6387   6.703   4.606  11.650 -0.3183 -0.1287  0.1280
   73SLPC  H15B 6388   6.529   4.594  11.697 -0.4605 -0.1982 -0.2381
   73SLPC  H15C 6389   6.594   4.504  11.562  2.4917 -1.3208  1.2232
   73SLPC   C12 6390   6.673   4.709  11.409  0.4465 -0.2645  0.1303
   73SLPC  H12A 6391   6.658   4.797  11.349  2.7891  0.9408  1.1933
   73SLPC  H12B 6392   6.657   4.621  11.349  1.1811  0.9922 -1.9833
   73SLPC   C11 6393   6.826   4.727  11.449 -0.4103  0.3981 -0.2797
   73SLPC  H11A 6394   6.897   4.686  11.373  1.2491  2.3681  0.1149
   73SLPC  H11B 6395   6.832   4.657  11.535 -2.3003  0.6814  0.1321
   73SLPC     P 6396   6.842   4.975  11.374  0.0206  0.2096 -0.2102
   73SLPC   O13 6397   6.723   5.053  11.412 -0.0540 -0.2997  0.0627
   73SLPC   O14 6398   6.965   5.055  11.355  0.5809  0.4539  0.2129
   73SLPC   O12 6399   6.872   4.858  11.474  0.0728 -0.3446 -0.4285
   73SLPC   O11 6400   6.812   4.896  11.240 -0.3382 -0.4513  0.0968
   73SLPC    C1 6401   6.751   4.973  11.133 -0.2396 -0.1674 -0.0977
   73SLPC    HA 6402   6.643   4.978  11.159 -0.2743 -3.0516  0.6655
   73SLPC    HB 6403   6.788   5.078  11.137  1.8630 -0.8800  0.0292
   73SLPC    C2 6404   6.779   4.907  10.996  0.1155  0.6957  0.3831
   73SLPC    HS 6405   6.723   4.959  10.915 -1.2057  0.8550  1.3685
   73SLPC   O21 6406   6.755   4.763  11.013  0.4510  0.0527  0.0753
   73SLPC   C21 6407   6.695   4.707  10.897 -0.5234 -0.5157 -0.5018
   73SLPC   O22 6408   6.676   4.766  10.795  0.4861 -0.4415  0.3193
   73SLPC   C22 6409   6.667   4.563  10.927  0.8180  0.5321 -0.4552
   73SLPC   H2R 6410   6.765   4.512  10.935  0.6942  0.4056  0.3701
   73SLPC   H2S 6411   6.613   4.556  11.024 -0.4620  0.7847 -1.1303
   73SLPC    C3 6412   6.926   4.934  10.950  0.9437  0.2781 -0.2225
   73SLPC    HX 6413   6.986   4.889  11.032 -0.7827  0.0786  1.0060
   73SLPC    HY 6414   6.940   5.044  10.940 -2.8887  1.0065  0.6068
   73SLPC   O31 6415   6.958   4.861  10.828  0.2296  0.3743 -0.3783
   73SLPC   C31 6416   6.910   4.930  10.710 -1.0129  0.5081 -0.6558
   73SLPC   O32 6417   6.870   5.043  10.710  0.2268  0.1183 -0.1431
   73SLPC   C32 6418   6.940   4.850  10.584 -0.0726  0.4751  0.7064
   73SLPC   H2X 6419   6.862   4.772  10.579 -3.2372  3.3512  1.5827
   73SLPC   H2Y 6420   7.049   4.828  10.582 -0.2215 -0.1970 -0.3360
   73SLPC   C23 6421   6.582   4.497  10.812  0.3732 -0.1621  0.0399
   73SLPC   H3R 6422   6.630   4.527  10.717  0.7767  1.5838  0.7519
   73SLPC   H3S 6423   6.480   4.541  10.809  0.1518 -0.6945 -0.4731
   73SLPC   C24 6424   6.586   4.344  10.813  0.7098  0.5666 -0.1686
   73SLPC   H4R 6425   6.534   4.308  10.904 -0.1269  0.4942 -0.6704
   73SLPC   H4S 6426   6.689   4.302  10.812  0.4024 -0.3943  2.0926
   73SLPC   C25 6427   6.505   4.270  10.694  0.0358 -0.0778 -0.1483
   73SLPC   H5R 6428   6.402   4.302  10.718 -0.2005 -0.9455  0.0163
   73SLPC   H5S 6429   6.524   4.163  10.714  1.2916  0.1823  0.1456
   73SLPC   C26 6430   6.562   4.298  10.560  0.7653  0.9506  0.3683
   73SLPC   H6R 6431   6.641   4.220  10.546 -0.1837  0.0394 -0.0648
   73SLPC   H6S 6432   6.617   4.394  10.548  4.9825 -1.5511 -3.5327
   73SLPC   C27 6433   6.474   4.272  10.438 -0.4894 -0.9424  0.3179
   73SLPC   H7R 6434   6.530   4.267  10.342 -1.7501 -0.2618 -0.4699
   73SLPC   H7S 6435   6.406   4.359  10.426  0.2910 -0.2190  0.9918
   73SLPC   C28 6436   6.386   4.141  10.438 -0.0867 -1.4807  0.2103
   73SLPC   H8R 6437   6.317   4.143  10.351 -0.9915 -0.9926  0.9177
   73SLPC   H8S 6438   6.331   4.148  10.535 -1.6226  1.9245 -0.7774
   73SLPC   C29 6439   6.467   4.016  10.438 -1.0160  0.3164  0.2774
   73SLPC   H9R 6440   6.534   4.009  10.524 -1.1504  4.1681  0.9007
   73SLPC  C210 6441   6.456   3.923  10.341  0.4046  0.0078  0.2960
   73SLPC  H10R 6442   6.532   3.844  10.331 -0.5644 -0.8446 -0.5706
   73SLPC  C211 6443   6.367   3.920  10.214 -0.5500 -0.4449 -0.3608
   73SLPC  H11R 6444   6.262   3.941  10.245 -0.4580  0.7991 -0.8144
   73SLPC  H11S 6445   6.367   3.818  10.171  0.4293 -1.1776  1.2482
   73SLPC  C212 6446   6.395   4.033  10.109 -0.7138  0.2898 -0.9416
   73SLPC  H12R 6447   6.414   4.128  10.160  0.9948 -1.0822  1.1928
   73SLPC  C213 6448   6.422   4.024   9.977  0.1222 -0.5304 -0.7420
   73SLPC  H13R 6449   6.436   4.121   9.927 -0.8620 -0.2190 -0.4469
   73SLPC  C214 6450   6.400   3.908   9.890 -0.0619  0.8405 -0.4160
   73SLPC  H14R 6451   6.342   3.831   9.944 -0.4041  0.2799 -1.5488
   73SLPC  H14S 6452   6.498   3.860   9.870  0.5675  2.3748 -1.2638
   73SLPC  C215 6453   6.321   3.945   9.765 -0.0107  0.1319  0.3894
   73SLPC  H15R 6454   6.248   4.027   9.779  1.4571  1.5879 -0.1911
   73SLPC  H15S 6455   6.266   3.850   9.744 -1.8417  1.2659 -0.1976
   73SLPC  C216 6456   6.417   3.992   9.649 -0.4765  0.3133  0.4131
   73SLPC  H16R 6457   6.501   3.921   9.634 -1.3714 -0.8058  0.6424
   73SLPC  H16S 6458   6.453   4.089   9.690  0.1213  0.7062 -0.9513
   73SLPC  C217 6459   6.347   4.008   9.519  0.3201 -0.0240 -0.4983
   73SLPC  H17R 6460   6.251   4.063   9.527  0.1280 -0.0603 -2.0982
   73SLPC  H17S 6461   6.310   3.908   9.488  0.6639 -0.3576  0.1508
   73SLPC  C218 6462   6.429   4.069   9.408 -0.0844 -0.1127 -0.3856
   73SLPC  H18R 6463   6.463   4.165   9.452 -0.1660 -1.1508  2.1055
   73SLPC  H18S 6464   6.367   4.087   9.318  1.1099  1.7950 -0.8799
   73SLPC  H18T 6465   6.509   4.000   9.373 -1.6838 -2.2583 -0.0843
   73SLPC   C33 6466   6.915   4.939  10.451  0.5323  0.5385 -0.1801
   73SLPC   H3X 6467   6.976   5.031  10.449 -0.5206  1.3399  1.6466
   73SLPC   H3Y 6468   6.811   4.980  10.455  0.3847  0.3050 -1.2949
   73SLPC   C34 6469   6.921   4.857  10.316 -0.5462  0.6470 -0.0240
   73SLPC   H4X 6470   6.848   4.774  10.323  0.7514 -0.5746 -0.4534
   73SLPC   H4Y 6471   7.025   4.821  10.298 -1.3207 -0.4596 -2.7348
   73SLPC   C35 6472   6.894   4.936  10.189  0.4671 -0.2488  0.3461
   73SLPC   H5X 6473   6.969   5.017  10.175 -0.8199  0.8321 -0.5300
   73SLPC   H5Y 6474   6.793   4.981  10.191  0.2562 -0.6940 -0.1183
   73SLPC   C36 6475   6.896   4.854  10.061 -0.4600  0.0367  0.2753
   73SLPC   H6X 6476   6.822   4.771  10.065 -0.1394 -0.2427  0.3478
   73SLPC   H6Y 6477   6.991   4.799  10.049 -1.1143 -0.7423 -1.7137
   73SLPC   C37 6478   6.887   4.949   9.932  0.1678  0.0542  0.2275
   73SLPC   H7X 6479   6.987   4.996   9.927  0.8997 -1.4341  0.3224
   73SLPC   H7Y 6480   6.813   5.029   9.956 -0.6138 -0.3959 -0.6201
   73SLPC   C38 6481   6.862   4.884   9.792 -0.6241  0.4650 -1.0871
   73SLPC   H8X 6482   6.766   4.829   9.792 -0.5530  0.0517  2.5847
   73SLPC   H8Y 6483   6.940   4.807   9.770  0.6749  1.6099 -0.6514
   73SLPC   C39 6484   6.851   4.987   9.679  0.0354 -0.8681  0.1656
   73SLPC   H9X 6485   6.953   5.024   9.652 -0.8019 -0.9747 -3.8689
   73SLPC   H9Y 6486   6.797   5.079   9.710 -1.4352 -1.6787  0.0784
   73SLPC  C310 6487   6.789   4.931   9.552 -0.6947  0.4721  1.0220
   73SLPC  H10X 6488   6.679   4.916   9.561 -1.4345  2.3737 -2.6892
   73SLPC  H10Y 6489   6.843   4.836   9.535  0.6724  1.1433  1.5362
   73SLPC  C311 6490   6.825   5.020   9.430 -0.2420  1.1738 -0.5628
   73SLPC  H11X 6491   6.824   5.124   9.470  0.0694  1.0342 -0.1892
   73SLPC  H11Y 6492   6.746   5.010   9.351 -2.0860  0.0609  1.3215
   73SLPC  C312 6493   6.956   4.987   9.352  1.1573  0.2662  0.0079
   73SLPC  H12X 6494   7.041   4.975   9.424  1.1408 -0.6476 -0.1035
   73SLPC  H12Y 6495   6.986   5.074   9.290 -1.2752  0.5593 -0.8621
   73SLPC  C313 6496   6.937   4.856   9.275 -0.0993  0.0320  0.0557
   73SLPC  H13X 6497   6.850   4.853   9.205 -0.7138 -1.0562  0.8259
   73SLPC  H13Y 6498   6.932   4.773   9.349  1.4760  0.5809  0.8255
   73SLPC  C314 6499   7.058   4.830   9.173 -0.1355 -0.0695 -0.0367
   73SLPC  H14X 6500   7.149   4.804   9.232 -0.0838 -0.1415 -0.1476
   73SLPC  H14Y 6501   7.094   4.920   9.118  0.3724 -0.0704  0.2781
   73SLPC  C315 6502   7.033   4.721   9.071 -0.2608 -0.1883 -0.8964
   73SLPC  H15X 6503   6.942   4.754   9.017  0.3301 -1.0114 -2.4357
   73SLPC  H15Y 6504   7.015   4.620   9.114 -2.7126  1.2651  1.9526
   73SLPC  C316 6505   7.144   4.678   8.976  0.1021  0.6946  0.5449
   73SLPC  H16X 6506   7.205   4.596   9.019  0.6589  0.7707 -0.0754
   73SLPC  H16Y 6507   7.213   4.765   8.966  0.2883  0.4329 -0.5084
   73SLPC  C317 6508   7.099   4.635   8.838 -1.5702  0.2054  0.3697
   73SLPC  H17X 6509   7.198   4.617   8.791 -1.9772 -1.0792 -0.0129
   73SLPC  H17Y 6510   7.045   4.719   8.789 -4.2093 -1.8145 -0.3916
   73SLPC  C318 6511   7.014   4.511   8.821  0.4938  0.5812 -0.4266
   73SLPC  H18X 6512   6.912   4.529   8.860 -0.3944  0.3594 -2.4814
   73SLPC  H18Y 6513   7.060   4.416   8.857  0.0575  0.7594  0.6165
   73SLPC  H18Z 6514   6.989   4.496   8.714 -0.7654 -1.2234  0.0810
   74SLPC     N 6515   2.764   6.226  10.992  0.3122 -0.0994  0.1522
   74SLPC   C13 6516   2.744   6.370  11.030 -0.1306  0.0380  0.3703
   74SLPC  H13A 6517   2.737   6.430  10.941 -2.2734 -0.4523  0.1607
   74SLPC  H13B 6518   2.665   6.384  11.102 -0.5279 -2.1416  0.4438
   74SLPC  H13C 6519   2.829   6.408  11.086 -1.1658  2.6244  0.3184
   74SLPC   C14 6520   2.737   6.129  11.102  0.3479  0.0680 -0.0649
   74SLPC  H14A 6521   2.792   6.146  11.193  0.0934 -1.4898  0.4025
   74SLPC  H14B 6522   2.635   6.128  11.136  0.9132 -1.7159  1.7876
   74SLPC  H14C 6523   2.763   6.028  11.076  0.9675  0.3482 -0.5726
   74SLPC   C15 6524   2.905   6.200  10.935 -1.4830 -0.0737 -0.2721
   74SLPC  H15A 6525   2.904   6.106  10.882  0.7892  1.3270 -3.0627
   74SLPC  H15B 6526   2.934   6.270  10.858  1.9649 -2.7227 -1.6743
   74SLPC  H15C 6527   2.979   6.212  11.013 -1.3963  0.8886 -0.4887
   74SLPC   C12 6528   2.668   6.201  10.876 -0.1384 -0.2833 -0.4178
   74SLPC  H12A 6529   2.568   6.217  10.915  0.0354 -4.6056  2.4090
   74SLPC  H12B 6530   2.673   6.097  10.848 -2.9106 -1.1353  1.7884
   74SLPC   C11 6531   2.685   6.291  10.744  0.1674  0.1996 -0.4151
   74SLPC  H11A 6532   2.644   6.250  10.650  1.1377  2.2451 -1.8127
   74SLPC  H11B 6533   2.792   6.305  10.718  0.4771 -1.6346 -0.2389
   74SLPC     P 6534   2.494   6.467  10.743 -0.1432 -0.2084  0.2336
   74SLPC   O13 6535   2.399   6.377  10.817  0.4314 -0.3428  0.0170
   74SLPC   O14 6536   2.481   6.615  10.755 -0.3236 -0.2814  0.1883
   74SLPC   O12 6537   2.638   6.421  10.768 -0.1024  0.6218  0.2939
   74SLPC   O11 6538   2.489   6.417  10.598  0.6442 -0.0063  0.7488
   74SLPC    C1 6539   2.513   6.505  10.491 -0.5821 -0.0756  0.5175
   74SLPC    HA 6540   2.582   6.592  10.499 -0.3976  0.0739 -1.9070
   74SLPC    HB 6541   2.569   6.446  10.415  0.5032 -1.6993  2.5008
   74SLPC    C2 6542   2.385   6.561  10.423  0.4433 -0.5393  0.1257
   74SLPC    HS 6543   2.345   6.636  10.494  1.2237  2.7956 -2.6595
   74SLPC   O21 6544   2.294   6.450  10.404  0.1531 -0.1869 -0.1185
   74SLPC   C21 6545   2.171   6.500  10.390 -0.9834  0.8724  0.6566
   74SLPC   O22 6546   2.149   6.618  10.371  0.4837 -0.3580  0.5411
   74SLPC   C22 6547   2.069   6.389  10.408 -0.3219 -0.1786  0.0109
   74SLPC   H2R 6548   2.098   6.301  10.468 -0.3409 -0.7621 -0.8136
   74SLPC   H2S 6549   1.976   6.432  10.452  0.9243  0.2525  2.3616
   74SLPC    C3 6550   2.421   6.642  10.296 -0.2543 -0.3851  0.3674
   74SLPC    HX 6551   2.485   6.728  10.327 -2.5528  0.3232  3.6771
   74SLPC    HY 6552   2.331   6.691  10.256 -0.6082 -1.7575 -0.5926
   74SLPC   O31 6553   2.499   6.570  10.193  0.0081 -0.2592 -0.0138
   74SLPC   C31 6554   2.423   6.502  10.106 -1.3191  0.2469 -0.7654
   74SLPC   O32 6555   2.305   6.510  10.093 -0.1768  0.8850  0.4465
   74SLPC   C32 6556   2.523   6.428  10.020 -0.5932  0.4250  0.6445
   74SLPC   H2X 6557   2.571   6.344  10.074 -0.6650  1.1515  1.8693
   74SLPC   H2Y 6558   2.605   6.501  10.005  0.0447 -0.1286  1.4069
   74SLPC   C23 6559   2.042   6.315  10.280 -0.5921  0.4668 -0.1895
   74SLPC   H3R 6560   2.041   6.382  10.191  1.4241  0.5641 -0.1806
   74SLPC   H3S 6561   1.945   6.260  10.271  0.5305 -1.3490 -1.9874
   74SLPC   C24 6562   2.145   6.196  10.255  0.1755 -0.2406  0.4994
   74SLPC   H4R 6563   2.152   6.123  10.338 -0.4748 -0.6119  0.2365
   74SLPC   H4S 6564   2.240   6.253  10.252 -0.4615  0.8242 -1.0032
   74SLPC   C25 6565   2.122   6.125  10.124  1.4964 -0.6480 -0.3697
   74SLPC   H5R 6566   2.032   6.062  10.144  1.3219 -0.2117  0.2771
   74SLPC   H5S 6567   2.212   6.065  10.099  1.9564 -0.3624  0.5604
   74SLPC   C26 6568   2.100   6.219  10.002  0.7889 -0.1771 -0.9832
   74SLPC   H6R 6569   2.168   6.306  10.014 -2.8389  3.0438 -1.8010
   74SLPC   H6S 6570   1.997   6.261   9.994  0.8631  0.0399 -0.7991
   74SLPC   C27 6571   2.124   6.153   9.866  0.8792  0.2411  0.2380
   74SLPC   H7R 6572   2.034   6.091   9.850 -0.4777  2.1570  0.1451
   74SLPC   H7S 6573   2.213   6.087   9.866 -0.1621 -1.2331  1.2950
   74SLPC   C28 6574   2.131   6.249   9.740  0.5566  0.6140  0.8716
   74SLPC   H8R 6575   2.225   6.307   9.728 -0.5532  1.9177 -3.6331
   74SLPC   H8S 6576   2.048   6.321   9.755 -0.4735 -0.1449 -0.7577
   74SLPC   C29 6577   2.114   6.165   9.610 -0.1633  0.6339 -0.0954
   74SLPC   H9R 6578   2.021   6.109   9.593  0.0769 -0.3792  1.7093
   74SLPC  C210 6579   2.186   6.163   9.493 -0.3459  0.1395  0.2228
   74SLPC  H10R 6580   2.135   6.118   9.407  0.2277 -0.5097  0.2143
   74SLPC  C211 6581   2.315   6.238   9.456  0.5260  0.2310 -0.2472
   74SLPC  H11R 6582   2.395   6.175   9.413 -0.9192 -2.4383  0.7353
   74SLPC  H11S 6583   2.367   6.260   9.552  0.2710 -0.1268 -0.0252
   74SLPC  C212 6584   2.292   6.371   9.389 -0.8627 -0.3828 -0.2334
   74SLPC  H12R 6585   2.277   6.457   9.456  0.3452  0.5395 -1.1022
   74SLPC  C213 6586   2.314   6.389   9.257 -0.5024 -0.2044 -0.6196
   74SLPC  H13R 6587   2.289   6.486   9.211 -1.1815 -0.1833 -0.2291
   74SLPC  C214 6588   2.360   6.284   9.159 -0.0710 -0.0362  0.0821
   74SLPC  H14R 6589   2.414   6.203   9.211  0.6990  0.2453 -0.2748
   74SLPC  H14S 6590   2.431   6.330   9.088  0.9160  0.7837  1.5608
   74SLPC  C215 6591   2.247   6.218   9.081 -0.2424  0.3310 -0.3847
   74SLPC  H15R 6592   2.179   6.166   9.152  2.5937 -1.2134  1.4069
   74SLPC  H15S 6593   2.294   6.137   9.020  2.4566  1.6386 -0.1913
   74SLPC  C216 6594   2.157   6.317   8.994 -0.6256 -0.3352  0.5854
   74SLPC  H16R 6595   2.230   6.342   8.914  0.5294 -1.7266  1.1504
   74SLPC  H16S 6596   2.130   6.404   9.057 -3.0399 -0.8791  0.3890
   74SLPC  C217 6597   2.024   6.262   8.936 -0.8818  0.0882  0.2346
   74SLPC  H17R 6598   1.965   6.236   9.026 -0.8651  0.0397  0.2310
   74SLPC  H17S 6599   2.042   6.165   8.885  2.2223  0.2160  0.8656
   74SLPC  C218 6600   1.944   6.356   8.848 -0.3986 -0.2779 -0.1681
   74SLPC  H18R 6601   1.900   6.444   8.900  3.0981  1.8486 -0.4733
   74SLPC  H18S 6602   1.876   6.301   8.779  1.1270 -0.0188 -1.9705
   74SLPC  H18T 6603   2.027   6.399   8.788 -0.8916 -0.2712 -0.8580
   74SLPC   C33 6604   2.465   6.366   9.893 -0.3884 -0.6373  0.4713
   74SLPC   H3X 6605   2.406   6.434   9.827  0.1630 -0.8487 -0.2612
   74SLPC   H3Y 6606   2.396   6.284   9.921  0.5037 -0.4886  3.4022
   74SLPC   C34 6607   2.582   6.318   9.800 -0.1071  0.4962 -0.0150
   74SLPC   H4X 6608   2.533   6.302   9.702  0.2519 -0.5703 -0.0319
   74SLPC   H4Y 6609   2.602   6.227   9.861 -1.5398 -0.2611 -0.6462
   74SLPC   C35 6610   2.711   6.396   9.779  0.8457  0.1211 -0.0751
   74SLPC   H5X 6611   2.752   6.406   9.882  0.6864  1.5185 -0.1215
   74SLPC   H5Y 6612   2.678   6.495   9.741  0.1116 -0.4423 -0.9486
   74SLPC   C36 6613   2.803   6.333   9.673  0.1206  0.7689 -0.4068
   74SLPC   H6X 6614   2.839   6.235   9.711 -0.4034  0.3193 -1.0606
   74SLPC   H6Y 6615   2.896   6.393   9.659  0.4616 -0.0619 -1.8569
   74SLPC   C37 6616   2.745   6.313   9.535 -0.3547  0.3682  0.3884
   74SLPC   H7X 6617   2.665   6.236   9.542  1.8044 -1.9098  1.5802
   74SLPC   H7Y 6618   2.823   6.276   9.466  1.7537  1.9324  1.7953
   74SLPC   C38 6619   2.685   6.441   9.475 -0.1749  0.7970  0.6852
   74SLPC   H8X 6620   2.755   6.527   9.472  0.4071  0.3079 -0.7042
   74SLPC   H8Y 6621   2.600   6.481   9.534 -0.9085  0.8131 -0.3428
   74SLPC   C39 6622   2.651   6.419   9.325  0.0810 -0.1514  0.4182
   74SLPC   H9X 6623   2.568   6.485   9.294 -1.8688 -1.9109  1.6315
   74SLPC   H9Y 6624   2.601   6.320   9.317 -0.0741 -0.0325 -0.0839
   74SLPC  C310 6625   2.769   6.423   9.227  0.1011 -0.1678  0.1330
   74SLPC  H10X 6626   2.863   6.377   9.264  0.8220  2.3243  1.6394
   74SLPC  H10Y 6627   2.795   6.531   9.221  1.4630 -0.5046 -0.4646
   74SLPC  C311 6628   2.732   6.363   9.093  0.0440  0.8638  0.9288
   74SLPC  H11X 6629   2.644   6.423   9.061  2.0520  3.4092 -0.2346
   74SLPC  H11Y 6630   2.715   6.253   9.096 -2.6164  1.1239 -1.1260
   74SLPC  C312 6631   2.844   6.387   8.985 -0.1923  0.0573 -0.2504
   74SLPC  H12X 6632   2.948   6.366   9.020  0.2625  2.4251 -0.0555
   74SLPC  H12Y 6633   2.842   6.496   8.965  1.7833  0.0394 -0.7423
   74SLPC  C313 6634   2.816   6.316   8.848 -0.0901 -0.2583  0.4378
   74SLPC  H13X 6635   2.849   6.212   8.867  2.3854  0.3665 -0.1001
   74SLPC  H13Y 6636   2.871   6.348   8.758 -0.9242  3.3032  1.0157
   74SLPC  C314 6637   2.668   6.306   8.812  0.0853  0.3918  0.2522
   74SLPC  H14X 6638   2.617   6.404   8.799  1.1937  0.7937 -1.5215
   74SLPC  H14Y 6639   2.621   6.250   8.895 -0.2357 -0.2877 -0.3735
   74SLPC  C315 6640   2.649   6.215   8.687 -0.0252 -0.1511  0.2759
   74SLPC  H15X 6641   2.708   6.121   8.693 -0.9037 -0.7007  0.5868
   74SLPC  H15Y 6642   2.693   6.269   8.601  1.2124  0.2008  1.1096
   74SLPC  C316 6643   2.504   6.190   8.664  0.2586 -0.2557  0.3851
   74SLPC  H16X 6644   2.453   6.287   8.650  0.6316 -0.2642 -1.3285
   74SLPC  H16Y 6645   2.466   6.138   8.754 -1.3052  3.1243  1.8525
   74SLPC  C317 6646   2.474   6.092   8.546 -0.0135 -0.0335  0.0804
   74SLPC  H17X 6647   2.540   6.116   8.461 -0.4604  0.3735 -0.1574
   74SLPC  H17Y 6648   2.372   6.104   8.502 -0.2791 -2.3499 -0.0687
   74SLPC  C318 6649   2.503   5.943   8.579  0.5953 -0.0812  0.4015
   74SLPC  H18X 6650   2.503   5.889   8.482  0.7563  1.4252 -0.4839
   74SLPC  H18Y 6651   2.418   5.905   8.639 -0.6135  2.2313  0.3011
   74SLPC  H18Z 6652   2.597   5.936   8.636  0.7135  0.1239  0.2343
   75SLPC     N 6653   4.410   3.170   6.680  0.0899 -0.0407 -0.0085
   75SLPC   C13 6654   4.344   3.239   6.796 -0.5767 -0.0612 -1.3914
   75SLPC  H13A 6655   4.241   3.263   6.774 -1.5434 -2.1149  0.4563
   75SLPC  H13B 6656   4.332   3.177   6.884  1.8059 -0.5232 -1.3411
   75SLPC  H13C 6657   4.387   3.337   6.815 -1.3785  0.1350 -0.4678
   75SLPC   C14 6658   4.556   3.166   6.707  0.4133  0.0037 -0.4037
   75SLPC  H14A 6659   4.582   3.259   6.755 -3.6452  1.6576 -1.0487
   75SLPC  H14B 6660   4.583   3.085   6.773 -0.8983  0.4688  0.7545
   75SLPC  H14C 6661   4.622   3.154   6.622  0.0359 -1.1060 -0.5559
   75SLPC   C15 6662   4.389   3.261   6.563  0.3338  0.4124 -0.2478
   75SLPC  H15A 6663   4.285   3.284   6.542  0.2004 -0.9105 -1.2088
   75SLPC  H15B 6664   4.437   3.357   6.571 -1.0948  1.4977 -2.9440
   75SLPC  H15C 6665   4.417   3.216   6.468 -1.2892  0.1106 -0.6306
   75SLPC   C12 6666   4.368   3.027   6.654 -0.0103  0.7041  0.8045
   75SLPC  H12A 6667   4.390   3.007   6.550  0.2378 -0.6932  1.1161
   75SLPC  H12B 6668   4.260   3.024   6.660 -0.4372 -1.5235 -3.7489
   75SLPC   C11 6669   4.419   2.912   6.746  0.5110 -1.1933  0.1030
   75SLPC  H11A 6670   4.400   2.929   6.854  0.1511  1.9712 -0.3699
   75SLPC  H11B 6671   4.529   2.901   6.731  0.4871 -0.1746 -0.9551
   75SLPC     P 6672   4.386   2.715   6.570 -0.0217  0.0606  0.3141
   75SLPC   O13 6673   4.275   2.624   6.535 -0.8201  0.2925 -0.4703
   75SLPC   O14 6674   4.435   2.817   6.477  0.4173  0.2295  0.9956
   75SLPC   O12 6675   4.350   2.793   6.706 -0.5149 -0.1433 -0.2615
   75SLPC   O11 6676   4.506   2.619   6.608 -0.0877  0.2922  0.0200
   75SLPC    C1 6677   4.577   2.613   6.736 -0.1174 -0.1672  0.3049
   75SLPC    HA 6678   4.682   2.583   6.717 -0.7301 -1.8150 -0.7148
   75SLPC    HB 6679   4.587   2.708   6.793 -0.7007  0.1569 -0.1186
   75SLPC    C2 6680   4.525   2.498   6.828 -0.2152  0.0212  1.1875
   75SLPC    HS 6681   4.528   2.402   6.772 -0.9537 -0.1470  1.4248
   75SLPC   O21 6682   4.390   2.523   6.878 -0.0461 -0.1485 -0.1150
   75SLPC   C21 6683   4.290   2.450   6.839 -0.1534  0.4515 -0.4219
   75SLPC   O22 6684   4.289   2.369   6.748  0.3008  0.0530 -0.3829
   75SLPC   C22 6685   4.167   2.491   6.927  0.1113 -0.3310  0.1463
   75SLPC   H2R 6686   4.191   2.582   6.986  0.5901  0.6186 -1.4732
   75SLPC   H2S 6687   4.081   2.506   6.859  0.5247 -0.6951 -0.4660
   75SLPC    C3 6688   4.623   2.477   6.949 -0.2027 -0.1187 -1.2119
   75SLPC    HX 6689   4.724   2.447   6.914  0.2755 -0.4280  0.3471
   75SLPC    HY 6690   4.589   2.395   7.016 -1.2461 -0.0595 -1.6551
   75SLPC   O31 6691   4.633   2.594   7.031  0.2977  0.0542 -0.3434
   75SLPC   C31 6692   4.676   2.579   7.162  0.5906 -0.3205  0.3611
   75SLPC   O32 6693   4.703   2.471   7.212 -0.2188  0.4907 -0.1311
   75SLPC   C32 6694   4.670   2.713   7.240  1.2347 -0.5513  0.3327
   75SLPC   H2X 6695   4.562   2.727   7.265  1.9632  2.4196  2.2584
   75SLPC   H2Y 6696   4.707   2.791   7.170 -1.5657  0.3758 -0.2567
   75SLPC   C23 6697   4.134   2.375   7.017  0.0467 -0.6561 -0.3314
   75SLPC   H3R 6698   4.118   2.282   6.957  0.4243 -3.1179  3.0758
   75SLPC   H3S 6699   4.035   2.402   7.058  0.7613  1.7319 -0.0397
   75SLPC   C24 6700   4.232   2.350   7.128 -0.6003 -0.0384  0.2789
   75SLPC   H4R 6701   4.336   2.341   7.090 -0.1037  1.5885  1.1469
   75SLPC   H4S 6702   4.210   2.252   7.175  0.6395 -1.0129 -1.0900
   75SLPC   C25 6703   4.227   2.459   7.232 -0.4547 -0.3850  0.5684
   75SLPC   H5R 6704   4.128   2.460   7.284 -2.3141  1.1767 -2.7313
   75SLPC   H5S 6705   4.235   2.556   7.179  2.9113 -0.8072  0.0761
   75SLPC   C26 6706   4.340   2.428   7.329  0.2102  0.3148  0.9514
   75SLPC   H6R 6707   4.444   2.416   7.290 -0.0189 -0.9717  0.7012
   75SLPC   H6S 6708   4.320   2.330   7.378  1.3089 -0.3316  0.1405
   75SLPC   C27 6709   4.347   2.549   7.436 -0.0549  0.0914  0.2158
   75SLPC   H7R 6710   4.248   2.566   7.482  0.2107  1.5190  0.3031
   75SLPC   H7S 6711   4.368   2.638   7.373  1.3185  0.3640  1.0216
   75SLPC   C28 6712   4.465   2.525   7.536 -0.7940 -0.4919 -1.2179
   75SLPC   H8R 6713   4.470   2.615   7.601  1.0963 -0.3491 -1.5024
   75SLPC   H8S 6714   4.551   2.503   7.469  0.7182 -0.0381  0.5182
   75SLPC   C29 6715   4.445   2.409   7.636  0.0837  0.1862  0.2429
   75SLPC   H9R 6716   4.359   2.345   7.612  0.5004 -0.5031  0.5470
   75SLPC  C210 6717   4.516   2.381   7.749  0.7135 -0.2375 -0.0447
   75SLPC  H10R 6718   4.474   2.303   7.816 -0.8562  1.6051  1.2409
   75SLPC  C211 6719   4.640   2.457   7.789  0.1294 -0.0024  0.6684
   75SLPC  H11R 6720   4.638   2.483   7.897  1.3805  1.1180  0.4521
   75SLPC  H11S 6721   4.652   2.558   7.745  1.8920  0.9410  3.0991
   75SLPC  C212 6722   4.762   2.383   7.754 -0.7322 -0.7370  0.0616
   75SLPC  H12R 6723   4.795   2.390   7.650  1.1329 -0.4398  0.6275
   75SLPC  C213 6724   4.834   2.307   7.841 -0.0320 -0.2355 -0.5105
   75SLPC  H13R 6725   4.927   2.259   7.807  0.7717  1.1577 -0.3719
   75SLPC  C214 6726   4.805   2.285   7.990  0.0376  0.0204  0.1018
   75SLPC  H14R 6727   4.698   2.312   8.000  0.0295  0.1586 -0.3729
   75SLPC  H14S 6728   4.861   2.354   8.057  0.3966  0.1500 -0.3295
   75SLPC  C215 6729   4.824   2.144   8.039  0.0631 -0.1749 -0.7757
   75SLPC  H15R 6730   4.927   2.115   8.010  0.0690  1.0970 -2.1373
   75SLPC  H15S 6731   4.758   2.075   7.982 -2.3752  0.3972  1.1481
   75SLPC  C216 6732   4.811   2.130   8.196  0.1287  0.5102  0.0598
   75SLPC  H16R 6733   4.713   2.176   8.217 -0.5064 -0.5513 -0.4721
   75SLPC  H16S 6734   4.887   2.185   8.255  1.5019 -3.0921  1.9772
   75SLPC  C217 6735   4.825   1.979   8.236  0.2846 -0.2103 -0.2805
   75SLPC  H17R 6736   4.924   1.940   8.201 -0.4060 -3.3460  0.8973
   75SLPC  H17S 6737   4.746   1.924   8.181 -0.8601  0.1943  0.9205
   75SLPC  C218 6738   4.818   1.961   8.389  0.1729 -0.0367 -0.2491
   75SLPC  H18R 6739   4.907   2.005   8.440  1.3390 -1.5580 -0.8952
   75SLPC  H18S 6740   4.817   1.853   8.411  2.2853 -0.8565 -3.4159
   75SLPC  H18T 6741   4.721   2.004   8.421 -0.6194 -1.1959 -1.0296
   75SLPC   C33 6742   4.758   2.707   7.365  0.0843  0.2567  0.2210
   75SLPC   H3X 6743   4.722   2.622   7.426  0.1043 -0.0252 -0.1512
   75SLPC   H3Y 6744   4.867   2.700   7.344 -0.0209  0.4279 -0.4220
   75SLPC   C34 6745   4.738   2.828   7.457  0.8574 -0.2865  0.3989
   75SLPC   H4X 6746   4.629   2.844   7.472  0.7694 -2.2741  2.3618
   75SLPC   H4Y 6747   4.786   2.917   7.410 -0.9417  0.5632  0.0849
   75SLPC   C35 6748   4.799   2.803   7.598  0.8791 -0.3069  0.2681
   75SLPC   H5X 6749   4.906   2.779   7.580  0.5303 -1.8470  0.1331
   75SLPC   H5Y 6750   4.739   2.717   7.634  1.4317 -0.3785  1.0373
   75SLPC   C36 6751   4.780   2.925   7.697 -0.8790  0.2395  0.0680
   75SLPC   H6X 6752   4.831   3.011   7.648  1.4930 -1.9381 -1.5235
   75SLPC   H6Y 6753   4.838   2.898   7.788 -0.1831 -2.3318 -1.0587
   75SLPC   C37 6754   4.645   2.956   7.746 -0.2396  0.7610 -0.1336
   75SLPC   H7X 6755   4.573   2.970   7.662 -0.3153  1.0441 -0.0230
   75SLPC   H7Y 6756   4.660   3.051   7.802  2.9004  0.2414  0.1323
   75SLPC   C38 6757   4.586   2.848   7.838  0.0032  0.7829  0.2150
   75SLPC   H8X 6758   4.659   2.825   7.918  0.5444  0.2212 -0.4352
   75SLPC   H8Y 6759   4.577   2.765   7.766 -1.5116 -0.0520  1.3006
   75SLPC   C39 6760   4.466   2.899   7.919 -0.1946 -0.5234  0.7290
   75SLPC   H9X 6761   4.387   2.940   7.852 -1.3432 -1.4532  1.4605
   75SLPC   H9Y 6762   4.516   2.981   7.975  1.3537 -0.4372 -0.7148
   75SLPC  C310 6763   4.395   2.802   8.014  0.1978  0.2053  0.1402
   75SLPC  H10X 6764   4.341   2.726   7.954 -1.0361  1.3796 -0.3077
   75SLPC  H10Y 6765   4.322   2.858   8.077  2.1522  0.3248  2.4638
   75SLPC  C311 6766   4.493   2.744   8.111 -0.5018 -0.2973 -0.4961
   75SLPC  H11X 6767   4.527   2.832   8.170 -0.6807  0.7016 -1.8367
   75SLPC  H11Y 6768   4.578   2.696   8.059  1.5644  1.5458  0.9830
   75SLPC  C312 6769   4.424   2.644   8.207  0.9207  0.4690  0.4054
   75SLPC  H12X 6770   4.383   2.553   8.157 -0.2798  2.2733 -2.1423
   75SLPC  H12Y 6771   4.343   2.693   8.265  1.2954  1.9256 -0.2671
   75SLPC  C313 6772   4.530   2.592   8.312 -0.5426  0.0731  0.3484
   75SLPC  H13X 6773   4.476   2.518   8.374 -1.1483  0.7345  0.6248
   75SLPC  H13Y 6774   4.555   2.683   8.371 -2.7378  1.6229 -0.9791
   75SLPC  C314 6775   4.652   2.512   8.251 -1.0763  0.3751 -0.5061
   75SLPC  H14X 6776   4.702   2.576   8.175  1.0092 -0.2328  0.2677
   75SLPC  H14Y 6777   4.609   2.420   8.207 -2.0604  0.6970 -0.2329
   75SLPC  C315 6778   4.754   2.493   8.366 -0.3861  0.1943  0.0829
   75SLPC  H15X 6779   4.778   2.585   8.423 -0.6611  0.0931  0.3637
   75SLPC  H15Y 6780   4.849   2.455   8.324 -0.4744  0.2880 -0.2021
   75SLPC  C316 6781   4.701   2.384   8.467 -0.0995  0.2316  0.6798
   75SLPC  H16X 6782   4.691   2.302   8.393  1.9888  1.3606 -0.9704
   75SLPC  H16Y 6783   4.601   2.418   8.501 -1.0148  1.2347 -2.6730
   75SLPC  C317 6784   4.797   2.346   8.585 -0.3751 -0.0429  0.2875
   75SLPC  H17X 6785   4.892   2.306   8.544  0.0630  1.6199 -0.4445
   75SLPC  H17Y 6786   4.754   2.267   8.649 -0.0484 -0.0339  0.5203
   75SLPC  C318 6787   4.824   2.469   8.674  0.1176  0.2722  0.4989
   75SLPC  H18X 6788   4.891   2.442   8.758  1.8036 -0.4400 -0.9958
   75SLPC  H18Y 6789   4.728   2.498   8.722  0.9800 -0.3346  2.7131
   75SLPC  H18Z 6790   4.865   2.545   8.604 -3.1459  0.1087 -1.8249
   76SLPC     N 6791   0.487   0.076   6.267 -0.7152  0.2283  0.0943
   76SLPC   C13 6792   0.538   0.135   6.399  0.0627 -0.0928 -0.4784
   76SLPC  H13A 6793   0.641   0.166   6.384  0.4945 -1.3846 -0.3202
   76SLPC  H13B 6794   0.480   0.220   6.434  0.7073  0.3630 -0.4916
   76SLPC  H13C 6795   0.525   0.053   6.468  0.9420  0.2244  0.0833
   76SLPC   C14 6796   0.587  -0.031   6.234 -0.9001 -0.2219 -0.7813
   76SLPC  H14A 6797   0.552  -0.082   6.145  1.0516 -1.8715 -0.6792
   76SLPC  H14B 6798   0.684   0.014   6.218  0.1297 -2.2763 -0.6529
   76SLPC  H14C 6799   0.599  -0.106   6.311 -0.9947  0.6707  0.1259
   76SLPC   C15 6800   0.486   0.187   6.176  0.0141 -0.1141 -0.2441
   76SLPC  H15A 6801   0.482   0.145   6.077 -0.4340  0.0167 -0.2840
   76SLPC  H15B 6802   0.394   0.239   6.195  0.6290  0.5955  0.9241
   76SLPC  H15C 6803   0.570   0.255   6.185 -0.0843  0.1070 -0.9672
   76SLPC   C12 6804   0.348   0.007   6.284  0.3310  0.1070  1.1914
   76SLPC  H12A 6805   0.355  -0.081   6.347  0.7745  0.0524  1.0696
   76SLPC  H12B 6806   0.304  -0.035   6.195  0.1309 -1.2102  1.8748
   76SLPC   C11 6807   0.238   0.095   6.344 -0.5654 -0.0087 -0.4882
   76SLPC  H11A 6808   0.279   0.130   6.441  0.7930 -1.5257 -0.4570
   76SLPC  H11B 6809   0.151   0.029   6.361  0.4087 -1.1572  0.1678
   76SLPC     P 6810   0.073   0.290   6.298 -0.2664 -0.3153 -0.4647
   76SLPC   O13 6811   0.083   0.406   6.214  0.6007 -0.3604 -0.1337
   76SLPC   O14 6812  -0.050   0.211   6.281 -0.0221  0.1179  0.4293
   76SLPC   O12 6813   0.205   0.206   6.264 -0.2919  0.7388 -0.5048
   76SLPC   O11 6814   0.090   0.314   6.452 -0.2055  0.6179  0.0306
   76SLPC    C1 6815   0.194   0.402   6.498 -0.6219  0.1173 -0.2801
   76SLPC    HA 6816   0.280   0.409   6.427 -1.3162  1.8687 -1.0129
   76SLPC    HB 6817   0.159   0.508   6.504  0.8582  0.5503  1.6307
   76SLPC    C2 6818   0.236   0.368   6.642 -0.4008  0.6915 -0.3092
   76SLPC    HS 6819   0.299   0.276   6.641 -1.8788 -0.3707  0.3892
   76SLPC   O21 6820   0.123   0.352   6.726  0.0208  0.0717  0.4108
   76SLPC   C21 6821   0.088   0.225   6.743 -0.0176  0.3495 -0.0209
   76SLPC   O22 6822   0.148   0.127   6.689 -0.0548 -0.3250  0.0004
   76SLPC   C22 6823  -0.037   0.221   6.823 -0.4092 -0.1773 -0.1088
   76SLPC   H2R 6824  -0.080   0.321   6.848 -0.5430 -0.1528 -0.4344
   76SLPC   H2S 6825  -0.114   0.170   6.762  0.5191 -3.2639  1.1031
   76SLPC    C3 6826   0.329   0.484   6.705 -0.7462 -0.5279 -0.2446
   76SLPC    HX 6827   0.269   0.553   6.769  0.5791 -0.1188  0.5910
   76SLPC    HY 6828   0.367   0.540   6.616  1.5602  0.5599  1.3299
   76SLPC   O31 6829   0.440   0.421   6.781  0.2844 -0.5874  0.5516
   76SLPC   C31 6830   0.527   0.511   6.827  0.3824  1.0879 -0.4231
   76SLPC   O32 6831   0.502   0.629   6.836  0.7189 -0.4525  0.0306
   76SLPC   C32 6832   0.638   0.428   6.891 -0.2419 -0.2018  0.4040
   76SLPC   H2X 6833   0.698   0.406   6.800  0.9095  0.2706  1.0298
   76SLPC   H2Y 6834   0.602   0.336   6.943 -0.6946  0.2303  0.8549
   76SLPC   C23 6835  -0.011   0.135   6.947 -0.2049 -0.1262 -1.0844
   76SLPC   H3R 6836   0.050   0.045   6.927 -1.1251 -1.6703  2.3209
   76SLPC   H3S 6837  -0.108   0.101   6.989  0.1521  0.1648  0.0306
   76SLPC   C24 6838   0.080   0.209   7.054  0.6182 -0.4219 -0.3706
   76SLPC   H4R 6839   0.038   0.312   7.061 -1.7690 -1.3445  0.0752
   76SLPC   H4S 6840   0.186   0.221   7.026  0.7261 -1.2410 -0.3320
   76SLPC   C25 6841   0.075   0.152   7.193 -0.3486 -0.2019 -0.5642
   76SLPC   H5R 6842   0.109   0.046   7.191  1.7017  0.2817  2.3875
   76SLPC   H5S 6843  -0.026   0.161   7.239 -0.6909 -2.7303 -0.6636
   76SLPC   C26 6844   0.166   0.218   7.296  0.4847 -0.1815  0.7498
   76SLPC   H6R 6845   0.145   0.325   7.318 -0.9020  0.3942 -2.6644
   76SLPC   H6S 6846   0.269   0.205   7.258  0.8045  3.0232  0.1960
   76SLPC   C27 6847   0.156   0.134   7.422  0.2947  0.6200  0.2321
   76SLPC   H7R 6848   0.158   0.026   7.397  2.1896  0.5894  0.3522
   76SLPC   H7S 6849   0.057   0.139   7.471  1.6524  0.3228  3.2537
   76SLPC   C28 6850   0.267   0.182   7.515  0.1434 -1.0998 -0.0751
   76SLPC   H8R 6851   0.360   0.153   7.460  0.0137 -2.0287  0.1780
   76SLPC   H8S 6852   0.285   0.291   7.523  1.2323 -0.9536 -3.0424
   76SLPC   C29 6853   0.259   0.114   7.645  0.0210 -0.1924  0.0941
   76SLPC   H9R 6854   0.321   0.026   7.666 -0.1135  0.1152  1.9307
   76SLPC  C210 6855   0.170   0.146   7.746 -0.6713  0.3445  0.8274
   76SLPC  H10R 6856   0.145   0.075   7.826  0.1480  1.1097  1.7810
   76SLPC  C211 6857   0.064   0.257   7.746 -1.3122  0.2466  0.4743
   76SLPC  H11R 6858  -0.031   0.201   7.731  0.0195 -1.5690 -1.8065
   76SLPC  H11S 6859   0.068   0.322   7.656  0.3172 -0.8709 -0.3064
   76SLPC  C212 6860   0.066   0.323   7.886  0.0933  0.0421  0.0427
   76SLPC  H12R 6861   0.163   0.317   7.936 -0.4399  1.6249  1.3625
   76SLPC  C213 6862  -0.025   0.409   7.931  0.6322  0.1233 -0.3987
   76SLPC  H13R 6863  -0.007   0.451   8.031 -0.2303  1.7248 -0.8699
   76SLPC  C214 6864  -0.153   0.443   7.860 -0.6922 -0.1310  0.4493
   76SLPC  H14R 6865  -0.154   0.398   7.758  1.3158  1.7933 -0.5310
   76SLPC  H14S 6866  -0.159   0.554   7.854 -4.6680 -0.1156  1.8251
   76SLPC  C215 6867  -0.282   0.405   7.928  0.3581  0.5162  0.8257
   76SLPC  H15R 6868  -0.362   0.444   7.863  0.3721  2.6653  2.0033
   76SLPC  H15S 6869  -0.294   0.464   8.022  0.2059  3.6940 -1.0629
   76SLPC  C216 6870  -0.301   0.259   7.951 -0.2678  0.8057  0.7879
   76SLPC  H16R 6871  -0.222   0.213   8.012 -0.6743 -0.8511  0.1236
   76SLPC  H16S 6872  -0.289   0.214   7.850 -0.8012 -0.3412  1.2200
   76SLPC  C217 6873  -0.434   0.238   8.019 -0.6278  0.1290  0.5533
   76SLPC  H17R 6874  -0.511   0.301   7.969 -0.8856  0.3198  1.1917
   76SLPC  H17S 6875  -0.420   0.262   8.126  0.0275  3.3178 -0.1585
   76SLPC  C218 6876  -0.486   0.096   8.021 -0.0244  0.3281 -0.4559
   76SLPC  H18R 6877  -0.501   0.058   7.918  0.5475  0.1960 -0.4958
   76SLPC  H18S 6878  -0.586   0.091   8.068 -0.8740  0.7485 -2.1734
   76SLPC  H18T 6879  -0.417   0.022   8.068  0.5115  1.2735  0.2680
   76SLPC   C33 6880   0.728   0.493   6.994 -0.5260  0.0276 -0.4518
   76SLPC   H3X 6881   0.747   0.600   6.972  2.3836  0.1940  2.1531
   76SLPC   H3Y 6882   0.824   0.437   6.990 -0.9064 -0.6638 -0.0075
   76SLPC   C34 6883   0.674   0.499   7.139 -0.2495  0.2567 -0.2550
   76SLPC   H4X 6884   0.649   0.397   7.177 -1.3451  1.4128  2.4053
   76SLPC   H4Y 6885   0.582   0.560   7.148  0.0331  0.7056 -0.3962
   76SLPC   C35 6886   0.776   0.543   7.236 -0.7535  0.0822 -0.2518
   76SLPC   H5X 6887   0.816   0.645   7.220 -0.4351 -0.2783 -1.9086
   76SLPC   H5Y 6888   0.863   0.478   7.212 -1.7403 -1.3124 -0.1876
   76SLPC   C36 6889   0.725   0.522   7.380  0.1678 -0.2885 -0.4113
   76SLPC   H6X 6890   0.690   0.418   7.398  1.1780 -0.3175  1.7029
   76SLPC   H6Y 6891   0.639   0.590   7.394  1.6511  1.4943  0.4511
   76SLPC   C37 6892   0.839   0.555   7.484  0.8086  0.3673  0.0672
   76SLPC   H7X 6893   0.875   0.660   7.494 -1.6720  1.0968  2.8445
   76SLPC   H7Y 6894   0.928   0.489   7.479  1.4608  1.3150 -1.5294
   76SLPC   C38 6895   0.781   0.524   7.628  0.8743  0.0340 -0.4021
   76SLPC   H8X 6896   0.758   0.416   7.642  1.1319 -0.1531 -1.3213
   76SLPC   H8Y 6897   0.689   0.585   7.640  0.2722 -0.8185 -0.5982
   76SLPC   C39 6898   0.870   0.548   7.742 -0.2384 -0.4412 -1.0147
   76SLPC   H9X 6899   0.902   0.654   7.744  1.5859 -0.9579 -0.5154
   76SLPC   H9Y 6900   0.960   0.484   7.731 -0.4695 -0.9226 -0.2304
   76SLPC  C310 6901   0.791   0.536   7.873  0.0403 -0.1775 -0.3933
   76SLPC  H10X 6902   0.753   0.431   7.871  1.1875 -0.6329  0.7949
   76SLPC  H10Y 6903   0.717   0.619   7.879  0.5578  0.1626  1.8888
   76SLPC  C311 6904   0.873   0.546   8.002 -0.4614  0.1716  0.2140
   76SLPC  H11X 6905   0.804   0.496   8.073 -0.6493  0.2207  0.0670
   76SLPC  H11Y 6906   0.885   0.652   8.032 -1.0776 -0.6282  3.6761
   76SLPC  C312 6907   1.003   0.472   8.006 -0.0793  0.2838  0.0253
   76SLPC  H12X 6908   1.079   0.540   7.962 -0.7341  1.1697  0.2229
   76SLPC  H12Y 6909   1.007   0.375   7.953 -2.2223 -0.1482  0.5449
   76SLPC  C313 6910   1.046   0.449   8.158 -0.7089  0.0166  0.0523
   76SLPC  H13X 6911   1.048   0.539   8.223 -0.5749 -0.5303  0.8186
   76SLPC  H13Y 6912   1.155   0.438   8.141 -0.6216  0.5966  0.2167
   76SLPC  C314 6913   0.986   0.325   8.222 -0.6323  0.9355  0.3059
   76SLPC  H14X 6914   0.998   0.243   8.148 -2.9897  0.9186 -0.1288
   76SLPC  H14Y 6915   0.878   0.341   8.242 -0.4068  0.3909  2.1377
   76SLPC  C315 6916   1.053   0.292   8.361  0.1090 -0.2381  0.4821
   76SLPC  H15X 6917   1.160   0.310   8.338 -0.2115 -0.4937 -1.3094
   76SLPC  H15Y 6918   1.044   0.185   8.391  1.5961 -0.4043  0.4068
   76SLPC  C316 6919   1.002   0.390   8.471  0.1713  0.3115  0.5601
   76SLPC  H16X 6920   0.894   0.370   8.485  0.2601  0.9725  2.5814
   76SLPC  H16Y 6921   1.008   0.492   8.428  1.1369 -0.8199 -2.2219
   76SLPC  C317 6922   1.089   0.382   8.598 -0.3886  0.5161 -0.1845
   76SLPC  H17X 6923   1.047   0.444   8.680 -0.0033  1.5208 -0.7336
   76SLPC  H17Y 6924   1.186   0.432   8.579 -0.2361 -0.0206 -0.8582
   76SLPC  C318 6925   1.113   0.242   8.662 -0.4650 -0.3785 -0.0776
   76SLPC  H18X 6926   1.160   0.249   8.763 -0.3080 -0.5906 -0.1340
   76SLPC  H18Y 6927   1.187   0.186   8.601  0.1240  0.2820  0.0105
   76SLPC  H18Z 6928   1.025   0.175   8.665 -0.3488 -0.4985  1.0125
   77SLPC     N 6929   3.136   6.385   6.285 -0.3221  0.1193 -0.5646
   77SLPC   C13 6930   3.214   6.250   6.282 -1.0000 -0.0336  0.8316
   77SLPC  H13A 6931   3.303   6.248   6.343  1.1482 -0.9837 -2.1020
   77SLPC  H13B 6932   3.148   6.172   6.316  0.5080 -0.8081  2.1210
   77SLPC  H13C 6933   3.245   6.233   6.180  2.7868  1.3341  1.5737
   77SLPC   C14 6934   3.013   6.370   6.193 -0.0827  0.0347 -0.9282
   77SLPC  H14A 6935   3.025   6.329   6.094 -0.3653 -0.3213 -0.8145
   77SLPC  H14B 6936   2.937   6.310   6.241  0.6034 -0.2680 -0.1944
   77SLPC  H14C 6937   2.966   6.463   6.166 -0.9972 -0.2893 -0.4762
   77SLPC   C15 6938   3.228   6.482   6.229 -0.0796 -0.0292  0.0128
   77SLPC  H15A 6939   3.325   6.462   6.270 -0.4551 -0.2287  0.8230
   77SLPC  H15B 6940   3.225   6.486   6.121 -1.2315 -0.1033  0.0280
   77SLPC  H15C 6941   3.200   6.580   6.265  0.2619 -0.1964  0.7389
   77SLPC   C12 6942   3.083   6.425   6.430 -0.0409 -0.4069  0.7222
   77SLPC  H12A 6943   2.986   6.380   6.443 -1.3390  1.4662 -1.5782
   77SLPC  H12B 6944   3.067   6.532   6.429  1.3258 -0.1797  1.4648
   77SLPC   C11 6945   3.179   6.405   6.545 -0.0020  0.3717 -0.9788
   77SLPC  H11A 6946   3.207   6.297   6.549 -0.4090  0.3190  1.5064
   77SLPC  H11B 6947   3.125   6.428   6.639  0.8837  1.4036 -0.7097
   77SLPC     P 6948   3.436   6.423   6.563 -0.4965  0.3216  0.3320
   77SLPC   O13 6949   3.482   6.344   6.445 -0.2629  0.3701 -0.2652
   77SLPC   O14 6950   3.540   6.527   6.591  0.5204  0.2752  0.0990
   77SLPC   O12 6951   3.297   6.490   6.533 -0.4291  0.3239  0.2178
   77SLPC   O11 6952   3.416   6.339   6.686  0.3239 -0.0429  0.0114
   77SLPC    C1 6953   3.360   6.365   6.809 -0.3813 -0.3086  0.0941
   77SLPC    HA 6954   3.378   6.470   6.838  0.4350 -0.8344  1.6143
   77SLPC    HB 6955   3.251   6.344   6.801 -0.5699  0.9161 -0.7559
   77SLPC    C2 6956   3.408   6.264   6.924  0.3516 -0.2292 -0.0572
   77SLPC    HS 6957   3.518   6.251   6.918  0.3038 -1.2949  0.9592
   77SLPC   O21 6958   3.354   6.133   6.904 -0.0513  0.1247 -0.0342
   77SLPC   C21 6959   3.407   6.050   6.814  0.1464  0.4353 -0.3427
   77SLPC   O22 6960   3.513   6.064   6.758 -0.4381  0.1514 -0.0303
   77SLPC   C22 6961   3.326   5.915   6.818 -0.0735  0.0449  0.1283
   77SLPC   H2R 6962   3.222   5.940   6.787 -0.0396 -0.9944 -0.8700
   77SLPC   H2S 6963   3.364   5.840   6.746 -1.0420 -0.3725  0.0375
   77SLPC    C3 6964   3.360   6.308   7.060 -0.3342 -0.4416  0.3636
   77SLPC    HX 6965   3.404   6.230   7.126 -2.1714 -2.1702 -0.3266
   77SLPC    HY 6966   3.252   6.282   7.067 -0.0873 -2.0691 -1.0523
   77SLPC   O31 6967   3.392   6.440   7.091  0.3018 -0.5784  0.3722
   77SLPC   C31 6968   3.520   6.458   7.126  0.0967 -0.0534  0.1415
   77SLPC   O32 6969   3.610   6.382   7.113 -0.1655  0.1710 -0.3034
   77SLPC   C32 6970   3.536   6.603   7.159  0.1700 -1.2808 -1.1073
   77SLPC   H2X 6971   3.456   6.628   7.231 -1.4295 -1.8155 -2.6368
   77SLPC   H2Y 6972   3.505   6.664   7.071 -0.7110  1.7351  1.1228
   77SLPC   C23 6973   3.330   5.849   6.955  0.2292  0.1398 -0.0877
   77SLPC   H3R 6974   3.250   5.772   6.954  1.6635 -1.4536 -2.7378
   77SLPC   H3S 6975   3.293   5.912   7.039 -1.4216 -0.3258 -0.4422
   77SLPC   C24 6976   3.460   5.777   6.988 -0.1684 -0.0300  0.8427
   77SLPC   H4R 6977   3.542   5.849   6.965 -1.9903  2.4245  1.5644
   77SLPC   H4S 6978   3.477   5.695   6.916 -0.4300 -1.8871  2.8063
   77SLPC   C25 6979   3.466   5.729   7.136  0.3731  0.0032 -0.1116
   77SLPC   H5R 6980   3.450   5.813   7.207 -1.4909 -1.7270  1.6468
   77SLPC   H5S 6981   3.566   5.681   7.147  0.4002  0.4091  1.7275
   77SLPC   C26 6982   3.365   5.621   7.177  0.2662  0.2069 -0.4100
   77SLPC   H6R 6983   3.391   5.533   7.114  0.9173  0.3574 -0.3678
   77SLPC   H6S 6984   3.266   5.645   7.133 -0.0792 -1.6201 -0.7092
   77SLPC   C27 6985   3.352   5.590   7.326  0.2996 -0.2568 -0.1866
   77SLPC   H7R 6986   3.315   5.680   7.379 -3.1179 -0.9636 -1.0866
   77SLPC   H7S 6987   3.449   5.558   7.370 -1.6721 -1.9339  3.3671
   77SLPC   C28 6988   3.245   5.483   7.349  0.0273  0.0529  0.2671
   77SLPC   H8R 6989   3.271   5.384   7.306 -2.4057 -0.2401 -0.6579
   77SLPC   H8S 6990   3.148   5.511   7.303 -0.7218  1.0650  2.3261
   77SLPC   C29 6991   3.220   5.468   7.496  0.3406  0.5795 -0.3502
   77SLPC   H9R 6992   3.284   5.388   7.536  0.8472  1.6383  1.0766
   77SLPC  C210 6993   3.158   5.544   7.587  0.5683  0.5771  0.4226
   77SLPC  H10R 6994   3.160   5.514   7.692  1.8681 -0.8980  0.0290
   77SLPC  C211 6995   3.088   5.678   7.558 -0.0157  0.1802  0.2474
   77SLPC  H11R 6996   3.071   5.691   7.449 -1.4424  1.9692  0.6381
   77SLPC  H11S 6997   3.162   5.758   7.581  1.1020 -1.3553  2.3596
   77SLPC  C212 6998   2.951   5.705   7.627  0.2073 -0.3683  0.1901
   77SLPC  H12R 6999   2.916   5.630   7.700 -1.0656 -0.0916 -0.1153
   77SLPC  C213 7000   2.874   5.811   7.596 -0.2667 -1.0091 -0.1943
   77SLPC  H13R 7001   2.772   5.816   7.638  0.4488  0.3001  1.4688
   77SLPC  C214 7002   2.913   5.921   7.498  0.7920  0.4323  0.1409
   77SLPC  H14R 7003   3.007   5.894   7.447 -0.1627 -0.8018 -1.0337
   77SLPC  H14S 7004   2.919   6.019   7.551 -2.2545  0.7314  0.1443
   77SLPC  C215 7005   2.806   5.944   7.386 -0.3931  0.5421  0.3647
   77SLPC  H15R 7006   2.821   6.050   7.353 -1.0966  0.8683  1.0639
   77SLPC  H15S 7007   2.703   5.940   7.426 -1.5434  1.5001 -2.2187
   77SLPC  C216 7008   2.826   5.860   7.260 -0.3050 -0.6449  0.4615
   77SLPC  H16R 7009   2.838   5.753   7.286  1.4579 -0.1019  2.1343
   77SLPC  H16S 7010   2.927   5.885   7.222  0.6010 -0.3447  2.9053
   77SLPC  C217 7011   2.723   5.865   7.152  0.7021 -0.2162  0.2454
   77SLPC  H17R 7012   2.624   5.832   7.190 -1.0601  5.5246  1.5499
   77SLPC  H17S 7013   2.744   5.796   7.067 -2.4215 -1.7058  0.5417
   77SLPC  C218 7014   2.693   5.998   7.091  0.3727 -0.2125  0.0948
   77SLPC  H18R 7015   2.789   6.049   7.071 -0.1976  0.6122 -0.6152
   77SLPC  H18S 7016   2.636   6.060   7.164 -1.9396 -1.7062 -0.3005
   77SLPC  H18T 7017   2.636   5.988   6.996 -0.0768 -3.5175  0.5655
   77SLPC   C33 7018   3.677   6.639   7.196 -0.1324  0.0886 -0.1599
   77SLPC   H3X 7019   3.695   6.747   7.174  1.8585  0.2715  1.9265
   77SLPC   H3Y 7020   3.754   6.574   7.150  0.0682 -1.0513  1.6852
   77SLPC   C34 7021   3.720   6.621   7.344 -0.0986 -0.4072  0.0489
   77SLPC   H4X 7022   3.729   6.515   7.375 -1.8702 -0.3367  0.9338
   77SLPC   H4Y 7023   3.633   6.660   7.402 -1.2584 -1.0186 -1.2107
   77SLPC   C35 7024   3.845   6.693   7.373  0.2702 -0.9197 -0.2643
   77SLPC   H5X 7025   3.842   6.801   7.348  0.6760 -0.2871  2.1586
   77SLPC   H5Y 7026   3.934   6.662   7.314  1.0462  0.8079 -0.0725
   77SLPC   C36 7027   3.890   6.668   7.521  0.1429  0.1954 -0.3552
   77SLPC   H6X 7028   3.978   6.729   7.550  0.0758  0.3175 -0.4099
   77SLPC   H6Y 7029   3.930   6.564   7.523 -1.0840 -0.2927  0.1571
   77SLPC   C37 7030   3.779   6.677   7.625 -0.0204  0.5595  0.1799
   77SLPC   H7X 7031   3.724   6.582   7.611  1.0373  0.3332 -3.1711
   77SLPC   H7Y 7032   3.708   6.760   7.603  0.9829  1.5367  0.5398
   77SLPC   C38 7033   3.824   6.670   7.771  0.5706 -0.2043 -0.4663
   77SLPC   H8X 7034   3.847   6.771   7.810 -0.2080  0.5423 -1.8493
   77SLPC   H8Y 7035   3.916   6.608   7.778  1.4892  1.1613 -0.0440
   77SLPC   C39 7036   3.704   6.620   7.857 -0.0292 -0.1460  0.0195
   77SLPC   H9X 7037   3.661   6.533   7.803 -0.8260  1.2114 -1.5939
   77SLPC   H9Y 7038   3.620   6.691   7.866  0.2101  0.0491  0.8353
   77SLPC  C310 7039   3.733   6.591   8.002  0.5411 -0.7112  0.1358
   77SLPC  H10X 7040   3.755   6.690   8.048 -0.8352  0.1505 -0.9845
   77SLPC  H10Y 7041   3.827   6.532   7.997 -0.0072 -1.7008  1.2457
   77SLPC  C311 7042   3.627   6.527   8.090  0.1489  0.1192  0.0130
   77SLPC  H11X 7043   3.661   6.513   8.195 -0.8543 -1.7018  0.1345
   77SLPC  H11Y 7044   3.593   6.435   8.038  2.5393  1.4197 -4.3502
   77SLPC  C312 7045   3.492   6.604   8.112  0.1311 -0.0603 -0.7461
   77SLPC  H12X 7046   3.443   6.652   8.025  0.5967  0.3776 -0.7650
   77SLPC  H12Y 7047   3.520   6.692   8.174 -0.6861 -0.0967 -0.3137
   77SLPC  C313 7048   3.381   6.511   8.175  0.5976 -0.7100 -0.7832
   77SLPC  H13X 7049   3.395   6.404   8.146  0.5655 -0.6085 -1.1753
   77SLPC  H13Y 7050   3.282   6.549   8.141 -0.0234  0.9022  2.4886
   77SLPC  C314 7051   3.381   6.513   8.325  0.1726  0.1141  1.2054
   77SLPC  H14X 7052   3.326   6.605   8.355 -0.8707  0.0699 -0.4756
   77SLPC  H14Y 7053   3.487   6.511   8.360  0.6398  0.9377 -0.0972
   77SLPC  C315 7054   3.303   6.395   8.386  0.7994  0.9033  0.1735
   77SLPC  H15X 7055   3.357   6.303   8.355 -2.1150 -0.9505  0.1821
   77SLPC  H15Y 7056   3.207   6.405   8.332  1.8913 -1.2980 -2.4380
   77SLPC  C316 7057   3.300   6.399   8.539 -0.3036 -0.3280 -0.8253
   77SLPC  H16X 7058   3.404   6.414   8.575 -0.9224  1.6480  0.3155
   77SLPC  H16Y 7059   3.264   6.302   8.580  0.9697  0.0811  1.4069
   77SLPC  C317 7060   3.214   6.509   8.593 -0.3363 -0.0905 -0.3317
   77SLPC  H17X 7061   3.180   6.571   8.507  2.2544 -0.8313 -1.9912
   77SLPC  H17Y 7062   3.275   6.560   8.670 -0.1580 -0.4599 -0.2254
   77SLPC  C318 7063   3.084   6.454   8.651  0.4934 -0.0720  0.2587
   77SLPC  H18X 7064   3.030   6.401   8.569  1.2559 -0.8566  0.2600
   77SLPC  H18Y 7065   3.024   6.539   8.692  0.3601  1.6750 -3.2364
   77SLPC  H18Z 7066   3.113   6.378   8.726 -2.9354 -2.3790 -0.5397
   78SLPC     N 7067   4.724   0.931   6.337 -0.0503  0.0588  0.0803
   78SLPC   C13 7068   4.788   1.019   6.230 -0.0210  0.0752  0.0312
   78SLPC  H13A 7069   4.760   1.122   6.242  3.2387  1.1459 -0.7681
   78SLPC  H13B 7070   4.895   1.008   6.240  0.5519  5.5157  4.2728
   78SLPC  H13C 7071   4.757   0.979   6.134  2.2982 -0.2520 -0.6421
   78SLPC   C14 7072   4.759   0.789   6.316  0.1108 -0.4861  0.2790
   78SLPC  H14A 7073   4.864   0.768   6.331  0.4563  0.8213 -0.2165
   78SLPC  H14B 7074   4.699   0.732   6.386 -3.0654  0.0244 -1.8213
   78SLPC  H14C 7075   4.724   0.748   6.223 -1.0454 -2.7207  1.6071
   78SLPC   C15 7076   4.575   0.949   6.337 -0.1482  0.1944 -0.4678
   78SLPC  H15A 7077   4.546   1.051   6.315 -0.0142  0.1386 -0.9043
   78SLPC  H15B 7078   4.526   0.889   6.262 -1.5013  0.3024  0.2981
   78SLPC  H15C 7079   4.536   0.917   6.433  1.8970 -0.3544  0.2536
   78SLPC   C12 7080   4.786   0.970   6.470 -0.2605 -0.3155  0.2510
   78SLPC  H12A 7081   4.741   0.906   6.544  0.0419  0.4128  1.0833
   78SLPC  H12B 7082   4.751   1.070   6.494 -0.0773  0.0335 -0.8828
   78SLPC   C11 7083   4.939   0.961   6.495  0.6859 -0.0338 -0.1309
   78SLPC  H11A 7084   4.976   0.856   6.489  2.1032  0.4489 -0.3654
   78SLPC  H11B 7085   4.952   0.997   6.599 -1.4767  1.4880 -0.3372
   78SLPC     P 7086   5.038   1.200   6.442 -0.0066 -0.0525 -0.1637
   78SLPC   O13 7087   5.141   1.258   6.353  0.0105 -0.2365  0.3312
   78SLPC   O14 7088   4.906   1.262   6.440 -0.0011 -0.1112  0.0194
   78SLPC   O12 7089   5.008   1.046   6.404 -0.2942 -0.2171 -0.7898
   78SLPC   O11 7090   5.085   1.183   6.588 -0.4071 -0.2831 -0.5605
   78SLPC    C1 7091   5.208   1.116   6.618  0.1231 -0.1024  0.2309
   78SLPC    HA 7092   5.217   1.031   6.547 -0.1611 -0.5795  0.7541
   78SLPC    HB 7093   5.300   1.178   6.611 -0.1710  0.3374  0.2171
   78SLPC    C2 7094   5.210   1.064   6.768  0.1702 -0.0266  0.0087
   78SLPC    HS 7095   5.131   0.987   6.780  1.3232 -1.1368  0.6796
   78SLPC   O21 7096   5.179   1.183   6.843 -0.4692 -0.2020 -0.0662
   78SLPC   C21 7097   5.068   1.185   6.909  0.7781 -0.4999 -0.4596
   78SLPC   O22 7098   4.967   1.120   6.899  0.2990  0.6140 -0.2457
   78SLPC   C22 7099   5.069   1.317   6.990  0.2769 -0.1528  0.1307
   78SLPC   H2R 7100   5.173   1.356   7.001 -0.3990  1.5535  0.7025
   78SLPC   H2S 7101   5.009   1.397   6.943  1.3792  0.9983  0.6359
   78SLPC    C3 7102   5.339   1.005   6.811 -0.2997 -0.8446 -0.1727
   78SLPC    HX 7103   5.423   1.078   6.810  2.2661 -3.5097  1.4283
   78SLPC    HY 7104   5.365   0.931   6.732  1.3500  0.2613 -0.7329
   78SLPC   O31 7105   5.329   0.950   6.939  1.0592 -0.3339 -0.3470
   78SLPC   C31 7106   5.437   0.896   6.990  0.1265  0.3640 -0.0701
   78SLPC   O32 7107   5.543   0.880   6.935 -0.1825 -0.6948 -0.1166
   78SLPC   C32 7108   5.413   0.861   7.140 -0.4466 -0.6957 -0.2797
   78SLPC   H2X 7109   5.333   0.784   7.135  1.1459 -2.5023  0.7082
   78SLPC   H2Y 7110   5.352   0.944   7.182 -3.4505 -2.7844 -0.1857
   78SLPC   C23 7111   5.020   1.293   7.138 -0.5362  0.4817  0.5657
   78SLPC   H3R 7112   4.915   1.260   7.153 -0.9687  1.9256  0.8599
   78SLPC   H3S 7113   5.029   1.395   7.181  0.7119  0.9670 -0.7552
   78SLPC   C24 7114   5.117   1.209   7.223 -0.7028  0.6486 -0.5664
   78SLPC   H4R 7115   5.225   1.209   7.197 -0.5480  0.0605  0.0395
   78SLPC   H4S 7116   5.072   1.107   7.217 -2.2043  1.2870 -0.5417
   78SLPC   C25 7117   5.114   1.242   7.380 -0.5064  0.0172  0.2029
   78SLPC   H5R 7118   5.192   1.176   7.422 -0.7791 -0.2264  0.3345
   78SLPC   H5S 7119   5.020   1.211   7.431  1.1614 -3.7502  1.3243
   78SLPC   C26 7120   5.142   1.382   7.428 -0.2857  0.3606  0.3839
   78SLPC   H6R 7121   5.142   1.383   7.540 -1.7258  0.1858  0.4052
   78SLPC   H6S 7122   5.060   1.452   7.403 -2.2135 -1.9226 -0.0285
   78SLPC   C27 7123   5.283   1.434   7.376 -0.1437  0.0913 -0.1427
   78SLPC   H7R 7124   5.271   1.448   7.266  0.6383  2.2721  0.0169
   78SLPC   H7S 7125   5.360   1.356   7.393 -0.2812  0.6377  4.0583
   78SLPC   C28 7126   5.304   1.568   7.446  0.2489  0.4267  0.1276
   78SLPC   H8R 7127   5.307   1.562   7.557  0.8998  2.1123  0.2279
   78SLPC   H8S 7128   5.223   1.635   7.411  0.7071  0.0730 -1.7559
   78SLPC   C29 7129   5.429   1.625   7.393  0.4098  0.5718 -0.0953
   78SLPC   H9R 7130   5.423   1.682   7.299  0.9230 -0.1730 -0.5902
   78SLPC  C210 7131   5.547   1.621   7.459  0.0053  0.4651 -0.2453
   78SLPC  H10R 7132   5.634   1.668   7.411  0.2380 -0.1897 -0.4695
   78SLPC  C211 7133   5.551   1.549   7.593  0.9863 -0.2955  0.7629
   78SLPC  H11R 7134   5.494   1.455   7.579  1.0575 -0.2919  0.4254
   78SLPC  H11S 7135   5.499   1.611   7.669  2.9591  2.0218  0.3574
   78SLPC  C212 7136   5.679   1.502   7.644 -0.2509 -0.0529  0.4161
   78SLPC  H12R 7137   5.775   1.547   7.615 -0.1607 -0.9815 -0.7825
   78SLPC  C213 7138   5.689   1.410   7.738 -0.2844  0.9989 -0.2700
   78SLPC  H13R 7139   5.790   1.394   7.780 -1.8870 -0.6807  3.4317
   78SLPC  C214 7140   5.574   1.344   7.813  0.0818 -0.4728  0.5076
   78SLPC  H14R 7141   5.469   1.358   7.777 -0.3767 -0.6477  1.7364
   78SLPC  H14S 7142   5.574   1.390   7.914 -1.9442 -2.2899  1.4155
   78SLPC  C215 7143   5.593   1.195   7.838  1.1449  0.1414  0.1152
   78SLPC  H15R 7144   5.510   1.159   7.903 -0.3234  1.3893 -0.9850
   78SLPC  H15S 7145   5.682   1.177   7.903  0.3899  0.8781  1.3987
   78SLPC  C216 7146   5.602   1.105   7.713 -0.2112 -0.2452 -0.1592
   78SLPC  H16R 7147   5.605   0.999   7.747 -2.6798 -0.4053 -0.2697
   78SLPC  H16S 7148   5.702   1.123   7.667  0.3258  2.1732  1.7829
   78SLPC  C217 7149   5.484   1.117   7.621  0.4205 -0.0898  0.2937
   78SLPC  H17R 7150   5.510   1.205   7.558  1.6282  0.0885  0.9928
   78SLPC  H17S 7151   5.402   1.156   7.684  0.6208 -0.7535  0.9765
   78SLPC  C218 7152   5.454   1.003   7.530 -0.1685  0.4609  0.1691
   78SLPC  H18R 7153   5.550   0.969   7.485  0.1291 -0.8719  1.7458
   78SLPC  H18S 7154   5.380   1.028   7.451  0.4749  4.0784  0.5261
   78SLPC  H18T 7155   5.413   0.916   7.585 -2.4276  2.3623  1.7094
   78SLPC   C33 7156   5.548   0.822   7.210 -0.3255  0.1104 -0.2706
   78SLPC   H3X 7157   5.513   0.814   7.315  1.0689 -0.4297  0.1804
   78SLPC   H3Y 7158   5.627   0.900   7.204 -0.4229  0.6157  3.2274
   78SLPC   C34 7159   5.613   0.688   7.182 -0.0969  0.3648  0.3949
   78SLPC   H4X 7160   5.603   0.667   7.073 -1.1612  2.5477  0.0188
   78SLPC   H4Y 7161   5.549   0.619   7.241 -1.5234  1.2262 -0.0980
   78SLPC   C35 7162   5.761   0.678   7.216 -0.4533 -0.2885  0.2421
   78SLPC   H5X 7163   5.811   0.776   7.203 -0.8326  0.0067  0.9294
   78SLPC   H5Y 7164   5.809   0.613   7.140  0.1904  1.4326 -0.8672
   78SLPC   C36 7165   5.784   0.614   7.357 -0.2287 -0.6050 -0.4245
   78SLPC   H6X 7166   5.894   0.623   7.366 -0.1715 -0.1454 -1.4683
   78SLPC   H6Y 7167   5.761   0.505   7.352  0.4456 -0.7725 -0.0452
   78SLPC   C37 7168   5.703   0.680   7.473 -0.8661  0.0233  0.5308
   78SLPC   H7X 7169   5.594   0.661   7.462 -0.7321  0.4629 -2.0100
   78SLPC   H7Y 7170   5.718   0.790   7.473 -1.1736  0.0860 -1.1842
   78SLPC   C38 7171   5.749   0.638   7.613 -0.6026 -0.0821  0.4536
   78SLPC   H8X 7172   5.853   0.601   7.627 -0.7406 -0.6415  0.0257
   78SLPC   H8Y 7173   5.684   0.551   7.636  1.3786 -1.5307  0.8735
   78SLPC   C39 7174   5.733   0.757   7.715 -0.5240  0.3814  0.5157
   78SLPC   H9X 7175   5.632   0.801   7.707 -0.2313  0.9540 -0.0909
   78SLPC   H9Y 7176   5.809   0.826   7.673  0.4137 -0.6040  0.5302
   78SLPC  C310 7177   5.769   0.717   7.857  0.5099  0.3669  0.6055
   78SLPC  H10X 7178   5.877   0.692   7.862  0.4036 -0.3986 -0.6117
   78SLPC  H10Y 7179   5.709   0.626   7.880  1.1797 -0.0696  0.6515
   78SLPC  C311 7180   5.746   0.827   7.959  0.0559  1.3518 -0.2495
   78SLPC  H11X 7181   5.635   0.836   7.967 -0.1246  1.4084 -2.3181
   78SLPC  H11Y 7182   5.781   0.919   7.908  1.6761  0.1515 -1.3912
   78SLPC  C312 7183   5.800   0.799   8.102  0.4021 -0.1562  0.7688
   78SLPC  H12X 7184   5.911   0.808   8.096  0.2638  0.8549 -1.1440
   78SLPC  H12Y 7185   5.781   0.699   8.145  1.1178 -0.0821  1.2775
   78SLPC  C313 7186   5.756   0.898   8.212 -0.2722 -0.6714 -0.8085
   78SLPC  H13X 7187   5.806   0.879   8.310 -3.4243 -0.4879  0.9705
   78SLPC  H13Y 7188   5.648   0.886   8.237  0.3889 -1.4801  2.0613
   78SLPC  C314 7189   5.779   1.050   8.192  0.2426  0.4469 -0.0337
   78SLPC  H14X 7190   5.732   1.093   8.283 -0.7359 -3.1962  1.3498
   78SLPC  H14Y 7191   5.711   1.071   8.107  0.1374  0.1843 -0.0149
   78SLPC  C315 7192   5.919   1.092   8.162 -0.1449 -0.3359 -0.3336
   78SLPC  H15X 7193   5.934   1.079   8.053  0.7853  2.0111 -0.5324
   78SLPC  H15Y 7194   5.997   1.027   8.206 -0.3732  0.2782  1.0467
   78SLPC  C316 7195   5.946   1.237   8.204 -0.2976  0.4224  0.7339
   78SLPC  H16X 7196   6.036   1.264   8.144  0.2763 -1.2589  0.7611
   78SLPC  H16Y 7197   5.975   1.228   8.311  0.0294 -0.1273  0.6095
   78SLPC  C317 7198   5.839   1.340   8.195 -0.1840 -1.0030 -0.0484
   78SLPC  H17X 7199   5.782   1.344   8.290 -0.4089  1.0173 -0.2377
   78SLPC  H17Y 7200   5.779   1.313   8.105  0.9113  0.6058 -1.3167
   78SLPC  C318 7201   5.895   1.485   8.166 -0.1885  0.3519  0.3897
   78SLPC  H18X 7202   5.968   1.520   8.242  0.3755 -0.9205  0.4522
   78SLPC  H18Y 7203   5.808   1.553   8.154 -0.1391  0.6611  1.7079
   78SLPC  H18Z 7204   5.948   1.481   8.068 -0.7453 -1.9503  0.1397
   79SLPC     N 7205   6.418   4.345   6.481 -0.1442 -0.2583 -0.0404
   79SLPC   C13 7206   6.309   4.303   6.391 -0.4588  0.4151 -0.3185
   79SLPC  H13A 7207   6.221   4.277   6.447 -1.1659  1.2749 -1.0076
   79SLPC  H13B 7208   6.281   4.383   6.324  1.3244 -0.9205 -2.8249
   79SLPC  H13C 7209   6.341   4.221   6.328  0.2611  0.1048  0.4316
   79SLPC   C14 7210   6.540   4.367   6.397 -0.0534  0.5669 -0.2654
   79SLPC  H14A 7211   6.582   4.270   6.376 -0.9685 -0.3375  1.8408
   79SLPC  H14B 7212   6.520   4.413   6.301  2.6509 -0.2413 -1.3001
   79SLPC  H14C 7213   6.613   4.415   6.459  0.4741 -2.4957  1.7246
   79SLPC   C15 7214   6.442   4.232   6.573 -0.3322  0.1741  0.0039
   79SLPC  H15A 7215   6.347   4.219   6.622 -2.0010  2.1593 -2.4436
   79SLPC  H15B 7216   6.463   4.145   6.512 -0.5268  1.1035 -1.4350
   79SLPC  H15C 7217   6.520   4.258   6.644  0.6588  1.7857 -1.5877
   79SLPC   C12 7218   6.383   4.473   6.552  0.1988 -0.5598 -0.3367
   79SLPC  H12A 7219   6.285   4.470   6.597  1.4460 -1.0529  2.5985
   79SLPC  H12B 7220   6.380   4.552   6.478 -4.1704  0.7792  0.9921
   79SLPC   C11 7221   6.484   4.510   6.671  0.0597 -0.1438  0.1294
   79SLPC  H11A 7222   6.458   4.445   6.756 -1.6297 -1.6495 -1.4530
   79SLPC  H11B 7223   6.444   4.607   6.709  0.4466 -0.3571  1.1021
   79SLPC     P 7224   6.694   4.645   6.618  0.0224 -0.0397  0.1046
   79SLPC   O13 7225   6.843   4.640   6.624 -0.5561  0.1674 -0.5871
   79SLPC   O14 7226   6.633   4.701   6.493  0.2073  0.1325 -0.0421
   79SLPC   O12 7227   6.629   4.503   6.644 -0.5321 -0.8081 -0.5619
   79SLPC   O11 7228   6.638   4.739   6.732 -0.0510  0.5681  0.6802
   79SLPC    C1 7229   6.706   4.789   6.845  0.1369  0.2618  0.3793
   79SLPC    HA 7230   6.813   4.807   6.819  0.0098  1.1765  0.4662
   79SLPC    HB 7231   6.666   4.886   6.879  0.3284  0.8774 -1.0914
   79SLPC    C2 7232   6.703   4.685   6.959  0.0921  0.4402 -0.1305
   79SLPC    HS 7233   6.735   4.586   6.919 -0.8630 -0.9671  2.3778
   79SLPC   O21 7234   6.571   4.686   7.012 -0.3568  0.7709 -0.3575
   79SLPC   C21 7235   6.533   4.568   7.052 -0.4261 -0.1548 -0.0742
   79SLPC   O22 7236   6.591   4.465   7.045  0.3191  1.0902  0.6422
   79SLPC   C22 7237   6.396   4.597   7.115 -1.2174 -0.1621  0.3843
   79SLPC   H2R 7238   6.387   4.702   7.150 -2.3010  0.7744 -2.4401
   79SLPC   H2S 7239   6.308   4.589   7.047 -0.2660 -2.4512 -0.7025
   79SLPC    C3 7240   6.818   4.708   7.059  0.6356 -0.5048 -0.6717
   79SLPC    HX 7241   6.789   4.801   7.113  0.1148 -0.6539 -0.6883
   79SLPC    HY 7242   6.909   4.748   7.011 -1.3916  1.5585 -3.0559
   79SLPC   O31 7243   6.846   4.594   7.139 -0.1169  0.1180 -0.0306
   79SLPC   C31 7244   6.847   4.610   7.271  0.2777 -0.1309 -0.2646
   79SLPC   O32 7245   6.811   4.713   7.330  0.6652  0.5771  0.0444
   79SLPC   C32 7246   6.897   4.482   7.342  0.0955  0.6720  0.1155
   79SLPC   H2X 7247   6.942   4.411   7.269 -1.4767 -0.7971  0.5089
   79SLPC   H2Y 7248   6.804   4.436   7.382  0.7554 -0.4136  0.4379
   79SLPC   C23 7249   6.389   4.501   7.232  0.5951  0.3499  0.1436
   79SLPC   H3R 7250   6.408   4.395   7.205 -2.2324  0.0655 -1.0836
   79SLPC   H3S 7251   6.281   4.503   7.258  0.7741  2.0002  0.9216
   79SLPC   C24 7252   6.463   4.541   7.361 -0.5947 -0.2679 -0.4683
   79SLPC   H4R 7253   6.450   4.651   7.367 -1.4667 -0.3084 -1.2770
   79SLPC   H4S 7254   6.569   4.510   7.355 -0.8367 -0.9219 -2.0987
   79SLPC   C25 7255   6.412   4.461   7.484 -0.0351  0.0997 -0.3060
   79SLPC   H5R 7256   6.422   4.351   7.472 -0.7958 -0.0756  0.5695
   79SLPC   H5S 7257   6.306   4.483   7.509 -0.0789  0.4450 -0.7769
   79SLPC   C26 7258   6.500   4.495   7.617  0.6803  0.6125  0.1240
   79SLPC   H6R 7259   6.512   4.600   7.654  0.5382  0.5020  0.4876
   79SLPC   H6S 7260   6.602   4.465   7.583 -0.4044  0.9737 -4.0387
   79SLPC   C27 7261   6.448   4.437   7.745  0.2949  0.8572 -0.1229
   79SLPC   H7R 7262   6.465   4.328   7.756 -0.2088  0.8275  0.4126
   79SLPC   H7S 7263   6.341   4.466   7.750  0.0474  0.1870 -1.0922
   79SLPC   C28 7264   6.513   4.488   7.875 -0.0324 -0.0401 -0.3238
   79SLPC   H8R 7265   6.501   4.598   7.890  1.1129  0.3171 -1.7502
   79SLPC   H8S 7266   6.620   4.476   7.849  0.2853  2.0204 -0.1053
   79SLPC   C29 7267   6.468   4.411   7.994  0.1392  0.3152  0.0365
   79SLPC   H9R 7268   6.510   4.309   7.999  2.4595  1.2336  0.4736
   79SLPC  C210 7269   6.383   4.458   8.092  0.2279  0.2875 -0.2005
   79SLPC  H10R 7270   6.364   4.402   8.185  0.1535 -0.5991 -0.7432
   79SLPC  C211 7271   6.321   4.598   8.103 -0.5473  0.5806  0.2514
   79SLPC  H11R 7272   6.399   4.677   8.098  0.2284 -0.2367 -1.5667
   79SLPC  H11S 7273   6.271   4.603   8.201  0.8834  1.7094  0.9614
   79SLPC  C212 7274   6.219   4.628   7.997  0.4119  0.1184 -0.2599
   79SLPC  H12R 7275   6.256   4.669   7.902  2.5007 -0.6904  0.1431
   79SLPC  C213 7276   6.090   4.603   8.007  0.0380  0.0999  1.3395
   79SLPC  H13R 7277   6.028   4.624   7.920  0.4211 -0.5325  0.9027
   79SLPC  C214 7278   6.028   4.530   8.114  0.8856  0.8381 -0.3849
   79SLPC  H14R 7279   6.090   4.454   8.164 -0.9813 -0.8898 -0.5718
   79SLPC  H14S 7280   5.932   4.478   8.091 -0.9289  3.7654  0.0135
   79SLPC  C215 7281   5.997   4.633   8.232 -0.4964  0.1329  0.6105
   79SLPC  H15R 7282   5.911   4.701   8.214 -1.7750 -1.7041 -0.4481
   79SLPC  H15S 7283   6.089   4.687   8.265  1.6540 -1.1413 -2.7682
   79SLPC  C216 7284   5.972   4.558   8.364  0.2441 -0.2848 -0.2631
   79SLPC  H16R 7285   6.063   4.505   8.400 -0.1710 -0.8215  0.0057
   79SLPC  H16S 7286   5.889   4.485   8.356  0.3424 -0.3629 -0.5955
   79SLPC  C217 7287   5.937   4.652   8.480  0.2096 -0.4321 -0.3166
   79SLPC  H17R 7288   5.864   4.727   8.441 -0.1044  0.2884  1.5748
   79SLPC  H17S 7289   6.027   4.713   8.505  0.3842 -0.3926 -0.9955
   79SLPC  C218 7290   5.891   4.579   8.598  0.0235  0.1931 -0.2117
   79SLPC  H18R 7291   5.799   4.518   8.587 -0.7793  1.2873  0.2364
   79SLPC  H18S 7292   5.853   4.649   8.676 -0.5888 -0.6749  0.2947
   79SLPC  H18T 7293   5.965   4.514   8.651 -0.2255 -0.1756 -0.3094
   79SLPC   C33 7294   6.978   4.510   7.464  0.8953 -0.7351 -0.7000
   79SLPC   H3X 7295   7.025   4.610   7.455  1.0720 -0.4326  2.3289
   79SLPC   H3Y 7296   7.054   4.429   7.462 -1.2487 -2.8599 -1.6733
   79SLPC   C34 7297   6.898   4.524   7.600  0.3399  0.2730  0.2951
   79SLPC   H4X 7298   6.841   4.428   7.606  0.3822  0.2858  0.8748
   79SLPC   H4Y 7299   6.828   4.609   7.611 -1.3083 -1.1983  1.8611
   79SLPC   C35 7300   6.996   4.535   7.716  0.3957  0.1063  0.7389
   79SLPC   H5X 7301   7.060   4.625   7.698  1.8216 -0.5285  2.3370
   79SLPC   H5Y 7302   7.057   4.442   7.715  1.5687  0.7584 -2.6765
   79SLPC   C36 7303   6.927   4.562   7.848  0.8474 -0.5070 -0.2100
   79SLPC   H6X 7304   6.873   4.469   7.876 -2.0305  0.8687 -0.8162
   79SLPC   H6Y 7305   6.834   4.622   7.842  0.1965 -1.5674 -0.9259
   79SLPC   C37 7306   7.026   4.613   7.954 -0.6743 -0.8488 -0.3732
   79SLPC   H7X 7307   7.016   4.723   7.950 -1.3270 -0.9415 -1.5470
   79SLPC   H7Y 7308   7.129   4.573   7.940  0.7608  2.5974 -0.6378
   79SLPC   C38 7309   6.989   4.588   8.102  0.5052 -1.3493 -0.0780
   79SLPC   H8X 7310   6.888   4.629   8.118  1.3732  1.2370 -0.6709
   79SLPC   H8Y 7311   7.060   4.646   8.166  2.7967 -1.1070 -2.6371
   79SLPC   C39 7312   6.996   4.439   8.141  0.1169 -0.4282  0.0530
   79SLPC   H9X 7313   7.100   4.401   8.142  0.2410 -0.1663  1.9331
   79SLPC   H9Y 7314   6.948   4.378   8.062  3.0690  0.0336 -2.2810
   79SLPC  C310 7315   6.939   4.410   8.281  0.0569 -0.8355  0.0873
   79SLPC  H10X 7316   6.980   4.482   8.355  0.1675  1.5085 -2.1073
   79SLPC  H10Y 7317   6.961   4.305   8.309  0.9028  0.1275  3.6403
   79SLPC  C311 7318   6.788   4.432   8.300 -0.4104 -0.9255  0.2564
   79SLPC  H11X 7319   6.729   4.376   8.224 -1.7857 -2.0162  2.0378
   79SLPC  H11Y 7320   6.767   4.541   8.293  3.7857 -0.0782 -1.6622
   79SLPC  C312 7321   6.751   4.378   8.434  0.0440 -0.5397 -0.9052
   79SLPC  H12X 7322   6.816   4.415   8.516  0.3805 -0.3764 -1.2387
   79SLPC  H12Y 7323   6.772   4.269   8.437 -2.1087 -0.9793  1.6158
   79SLPC  C313 7324   6.594   4.381   8.453 -0.0011 -0.7395  0.5051
   79SLPC  H13X 7325   6.548   4.330   8.366 -0.9263 -0.9139  1.0857
   79SLPC  H13Y 7326   6.575   4.490   8.441  2.9131 -0.1107  0.7246
   79SLPC  C314 7327   6.571   4.323   8.596  0.0229 -0.1081 -0.2909
   79SLPC  H14X 7328   6.661   4.355   8.651  0.6066  0.1909 -1.3865
   79SLPC  H14Y 7329   6.552   4.213   8.600 -0.9079  0.0514 -0.2049
   79SLPC  C315 7330   6.433   4.367   8.666  0.5542  0.1816 -0.1835
   79SLPC  H15X 7331   6.413   4.474   8.644 -0.6653  0.7151  2.9452
   79SLPC  H15Y 7332   6.450   4.356   8.775  1.0287  0.2228 -0.2494
   79SLPC  C316 7333   6.312   4.284   8.615  0.6207  0.6701 -0.3772
   79SLPC  H16X 7334   6.334   4.180   8.648 -0.5345  0.3043 -0.7101
   79SLPC  H16Y 7335   6.310   4.280   8.504 -1.2877  0.0848 -0.3581
   79SLPC  C317 7336   6.172   4.330   8.668  0.0293 -0.1108  0.2351
   79SLPC  H17X 7337   6.090   4.291   8.604 -1.0954  0.1051  1.4969
   79SLPC  H17Y 7338   6.174   4.441   8.671  2.9163 -0.0677 -0.1452
   79SLPC  C318 7339   6.144   4.268   8.807 -0.3530 -0.2534 -0.4368
   79SLPC  H18X 7340   6.231   4.287   8.873 -1.4540 -0.3892  1.1069
   79SLPC  H18Y 7341   6.144   4.157   8.797 -0.6085 -0.1801 -1.3587
   79SLPC  H18Z 7342   6.052   4.310   8.854  1.0645  2.1926  0.3339
   80SLPC     N 7343   3.326   2.375   6.166  0.2170 -0.6853 -0.6929
   80SLPC   C13 7344   3.201   2.427   6.107  0.2626  0.6763  0.1621
   80SLPC  H13A 7345   3.196   2.534   6.121 -0.8746  0.5655  0.7892
   80SLPC  H13B 7346   3.195   2.397   6.004 -2.4162 -3.2206  1.2084
   80SLPC  H13C 7347   3.117   2.381   6.157  1.1968  0.4961  1.6439
   80SLPC   C14 7348   3.431   2.442   6.090  0.0669 -0.5044 -0.2358
   80SLPC  H14A 7349   3.525   2.429   6.142  0.2007 -4.1037 -1.0728
   80SLPC  H14B 7350   3.446   2.388   5.998  1.5491 -1.4439  0.5083
   80SLPC  H14C 7351   3.403   2.546   6.085 -0.4022 -0.6526 -0.7800
   80SLPC   C15 7352   3.336   2.222   6.146  0.4035  0.2026 -0.0137
   80SLPC  H15A 7353   3.418   2.184   6.205 -1.1001  0.7504  2.5884
   80SLPC  H15B 7354   3.253   2.181   6.202  1.3544 -2.2711 -0.2830
   80SLPC  H15C 7355   3.339   2.193   6.042  0.0321  1.0731 -0.2746
   80SLPC   C12 7356   3.317   2.409   6.314 -0.1877  0.0873 -0.0465
   80SLPC  H12A 7357   3.221   2.374   6.349 -0.4403 -0.6304 -1.3902
   80SLPC  H12B 7358   3.314   2.515   6.337  2.8058  0.1004  0.7327
   80SLPC   C11 7359   3.427   2.350   6.410 -0.3591 -0.1487  0.4464
   80SLPC  H11A 7360   3.433   2.240   6.397  0.5401  0.1382 -2.6384
   80SLPC  H11B 7361   3.388   2.370   6.511 -1.5587 -1.8044  0.3436
   80SLPC     P 7362   3.619   2.532   6.448  0.2030 -0.2024  0.2017
   80SLPC   O13 7363   3.755   2.557   6.404  0.1934 -0.0308 -0.5228
   80SLPC   O14 7364   3.517   2.641   6.441  0.5210  0.2247 -0.3532
   80SLPC   O12 7365   3.559   2.397   6.381 -0.0439 -0.9301 -0.2452
   80SLPC   O11 7366   3.629   2.480   6.601 -0.1085  0.1748  0.4025
   80SLPC    C1 7367   3.750   2.406   6.635 -0.0862  0.9573 -0.0445
   80SLPC    HA 7368   3.777   2.322   6.568 -2.9037 -1.3199  1.4290
   80SLPC    HB 7369   3.834   2.479   6.636  1.1492 -0.4139  0.8041
   80SLPC    C2 7370   3.737   2.341   6.774  0.3860  0.1823 -0.2474
   80SLPC    HS 7371   3.814   2.262   6.788 -0.9935 -1.0188  1.0431
   80SLPC   O21 7372   3.605   2.292   6.792  0.1165 -0.0475 -0.3641
   80SLPC   C21 7373   3.579   2.187   6.718 -0.2670 -0.2800 -0.0356
   80SLPC   O22 7374   3.663   2.122   6.656 -0.6265  0.4258  0.5714
   80SLPC   C22 7375   3.425   2.162   6.712  0.1041  0.1300  0.7272
   80SLPC   H2R 7376   3.363   2.243   6.755  1.4056 -0.0606  3.1047
   80SLPC   H2S 7377   3.390   2.170   6.607 -1.5465  1.0705  1.3091
   80SLPC    C3 7378   3.762   2.445   6.892  0.0208  0.2695 -0.4447
   80SLPC    HX 7379   3.707   2.538   6.868  0.5023  0.1611 -2.1040
   80SLPC    HY 7380   3.871   2.469   6.892  0.5227 -1.2591  3.6802
   80SLPC   O31 7381   3.741   2.390   7.025  0.6167 -0.4831  0.0960
   80SLPC   C31 7382   3.616   2.415   7.069  0.0963  0.2162 -0.1911
   80SLPC   O32 7383   3.532   2.475   7.008  0.1506  0.4216  0.7115
   80SLPC   C32 7384   3.606   2.351   7.213  0.2786 -0.7344  0.7403
   80SLPC   H2X 7385   3.500   2.370   7.241  0.2497  0.1361  0.0704
   80SLPC   H2Y 7386   3.678   2.403   7.279 -0.3374  3.1092 -1.3220
   80SLPC   C23 7387   3.377   2.028   6.768  0.6370 -0.4267 -0.0235
   80SLPC   H3R 7388   3.440   1.943   6.734  0.9969  0.1192 -0.7227
   80SLPC   H3S 7389   3.274   2.010   6.729 -0.1029 -0.4459  1.8286
   80SLPC   C24 7390   3.377   2.039   6.919  0.0508  0.1374  0.8692
   80SLPC   H4R 7391   3.302   2.116   6.946 -3.9141 -2.5916 -1.2502
   80SLPC   H4S 7392   3.479   2.054   6.959 -0.0064 -0.0014  1.0713
   80SLPC   C25 7393   3.303   1.910   6.977 -0.4253 -0.4390  0.2038
   80SLPC   H5R 7394   3.361   1.832   6.922 -0.3335  0.2191 -0.6561
   80SLPC   H5S 7395   3.198   1.899   6.943 -0.0191 -0.3997 -1.1378
   80SLPC   C26 7396   3.315   1.899   7.130  0.1477  0.7852  1.0861
   80SLPC   H6R 7397   3.289   1.999   7.171 -0.2675  1.0661  0.1867
   80SLPC   H6S 7398   3.417   1.868   7.160  0.5984 -1.0977 -1.9853
   80SLPC   C27 7399   3.224   1.790   7.190  0.1747  0.1407 -0.0478
   80SLPC   H7R 7400   3.272   1.702   7.143  1.1243  1.1494 -1.0116
   80SLPC   H7S 7401   3.119   1.799   7.156  0.6666  0.8715 -1.4089
   80SLPC   C28 7402   3.250   1.757   7.343  0.7180 -0.2659  0.0343
   80SLPC   H8R 7403   3.360   1.753   7.357  0.3865 -1.5107  2.9945
   80SLPC   H8S 7404   3.208   1.658   7.368 -1.6396  0.9209  1.1100
   80SLPC   C29 7405   3.177   1.859   7.431  1.3475 -0.6476  0.0493
   80SLPC   H9R 7406   3.198   1.965   7.414 -0.0594 -0.4744 -0.7542
   80SLPC  C210 7407   3.082   1.831   7.527 -0.4134 -0.0799 -0.0559
   80SLPC  H10R 7408   3.043   1.916   7.585  2.0608  0.9147  0.2663
   80SLPC  C211 7409   3.037   1.692   7.563 -0.4395 -0.5610 -0.3936
   80SLPC  H11R 7410   3.083   1.658   7.658  2.0165  0.6128 -1.0911
   80SLPC  H11S 7411   3.060   1.619   7.483 -0.6396  2.6739 -3.6424
   80SLPC  C212 7412   2.889   1.666   7.569  0.3959 -0.2736 -0.1704
   80SLPC  H12R 7413   2.846   1.615   7.481  0.1275  1.1378 -0.8932
   80SLPC  C213 7414   2.807   1.714   7.662  0.2299 -0.7231 -0.0905
   80SLPC  H13R 7415   2.701   1.684   7.658 -0.1023  0.5335 -1.3237
   80SLPC  C214 7416   2.837   1.800   7.782 -1.0328  0.2335 -0.5236
   80SLPC  H14R 7417   2.736   1.839   7.805 -1.8531  0.4112 -3.9572
   80SLPC  H14S 7418   2.918   1.873   7.761  0.3363 -1.2357 -0.5372
   80SLPC  C215 7419   2.879   1.724   7.914 -0.0160  0.8975 -0.8887
   80SLPC  H15R 7420   2.926   1.791   7.989 -1.4411  0.0425  0.8440
   80SLPC  H15S 7421   2.950   1.646   7.877 -0.3503  0.3344 -0.3690
   80SLPC  C216 7422   2.761   1.666   7.992  1.2527 -0.0624  1.2706
   80SLPC  H16R 7423   2.679   1.637   7.922  2.1666 -0.6883  0.4381
   80SLPC  H16S 7424   2.721   1.754   8.047  0.7007  2.9022 -3.3108
   80SLPC  C217 7425   2.789   1.563   8.096  0.2525  0.0071 -0.5778
   80SLPC  H17R 7426   2.864   1.605   8.166 -0.5230 -0.6089  0.6619
   80SLPC  H17S 7427   2.832   1.471   8.050 -0.2843 -0.1522 -0.7710
   80SLPC  C218 7428   2.662   1.524   8.168  0.2223 -0.3137  1.0185
   80SLPC  H18R 7429   2.578   1.497   8.100 -0.7311 -0.3056  2.1661
   80SLPC  H18S 7430   2.617   1.610   8.222 -1.1064  0.7048 -1.5508
   80SLPC  H18T 7431   2.674   1.440   8.240 -0.4078 -1.3572 -0.0541
   80SLPC   C33 7432   3.634   2.202   7.207 -0.2202  0.2926 -0.0317
   80SLPC   H3X 7433   3.738   2.188   7.170  0.0562  0.1123  0.8045
   80SLPC   H3Y 7434   3.562   2.149   7.140  0.5888 -0.3204 -0.4274
   80SLPC   C34 7435   3.634   2.122   7.342 -0.0803  0.2038 -0.0032
   80SLPC   H4X 7436   3.738   2.111   7.380  0.5062 -1.2426 -1.8828
   80SLPC   H4Y 7437   3.622   2.014   7.316 -1.5202  0.1098  0.9285
   80SLPC   C35 7438   3.534   2.162   7.450  0.2917  1.0038  0.5353
   80SLPC   H5X 7439   3.449   2.201   7.390  1.8039  1.1308 -1.6454
   80SLPC   H5Y 7440   3.576   2.248   7.506  1.6174 -0.3935  1.7870
   80SLPC   C36 7441   3.490   2.045   7.544 -0.5261 -0.9243  0.0618
   80SLPC   H6X 7442   3.581   2.001   7.589 -0.1368 -0.5603 -0.3589
   80SLPC   H6Y 7443   3.451   1.970   7.472  0.1225 -0.3562 -0.9083
   80SLPC   C37 7444   3.396   2.093   7.652  0.2736  0.4249  0.3017
   80SLPC   H7X 7445   3.302   2.126   7.605 -0.0248  0.4623  0.9104
   80SLPC   H7Y 7446   3.440   2.177   7.710  2.5591 -0.1013 -0.5298
   80SLPC   C38 7447   3.352   1.975   7.737 -0.0952  1.1989 -0.0205
   80SLPC   H8X 7448   3.438   1.927   7.790 -0.0316  1.8858  0.5126
   80SLPC   H8Y 7449   3.316   1.896   7.668 -1.1961  0.6464  1.1551
   80SLPC   C39 7450   3.248   2.015   7.839  0.0599  0.6391  0.7005
   80SLPC   H9X 7451   3.149   2.025   7.789 -0.6679 -1.0910  1.6815
   80SLPC   H9Y 7452   3.277   2.115   7.876 -2.4245  1.8463 -0.3991
   80SLPC  C310 7453   3.222   1.905   7.950 -1.0798  0.4144  0.2126
   80SLPC  H10X 7454   3.320   1.857   7.970 -0.2345  1.3828 -1.3776
   80SLPC  H10Y 7455   3.148   1.831   7.911 -0.9532 -0.3055  1.3007
   80SLPC  C311 7456   3.192   1.959   8.093  0.2053  0.1282  0.3998
   80SLPC  H11X 7457   3.173   1.870   8.158  0.7059 -2.2399 -2.4783
   80SLPC  H11Y 7458   3.102   2.023   8.078 -0.4122 -1.2672 -2.7687
   80SLPC  C312 7459   3.297   2.048   8.165  0.3412  0.5530 -0.8384
   80SLPC  H12X 7460   3.287   2.150   8.121  2.7271  0.7767 -0.9798
   80SLPC  H12Y 7461   3.399   2.010   8.143 -0.6335 -1.9346 -1.4235
   80SLPC  C313 7462   3.284   2.076   8.317 -0.1454  0.3730 -0.5024
   80SLPC  H13X 7463   3.173   2.084   8.317 -0.0906  1.8008 -2.3315
   80SLPC  H13Y 7464   3.329   2.177   8.332 -0.4838  0.7601 -1.9335
   80SLPC  C314 7465   3.340   1.978   8.419 -0.1997 -0.3105  0.1339
   80SLPC  H14X 7466   3.445   1.957   8.391 -0.2227  0.1804 -0.3292
   80SLPC  H14Y 7467   3.284   1.882   8.409  0.8344 -0.9257  0.0589
   80SLPC  C315 7468   3.348   2.035   8.564  0.2103 -0.4005 -0.6054
   80SLPC  H15X 7469   3.245   2.066   8.592  0.2159  0.0683 -1.0965
   80SLPC  H15Y 7470   3.407   2.129   8.571 -1.8925  0.9223  0.5730
   80SLPC  C316 7471   3.405   1.950   8.673 -0.5904  0.0728  0.3447
   80SLPC  H16X 7472   3.407   2.020   8.759  0.8280  0.7690 -0.2199
   80SLPC  H16Y 7473   3.510   1.918   8.657 -0.6333  0.7055 -1.4643
   80SLPC  C317 7474   3.328   1.818   8.678 -0.4709 -0.0079 -0.4484
   80SLPC  H17X 7475   3.324   1.775   8.576  0.5187  0.7890 -0.8376
   80SLPC  H17Y 7476   3.225   1.849   8.703 -0.8415 -0.6672 -1.1132
   80SLPC  C318 7477   3.382   1.718   8.778  0.3826 -0.3064  0.3722
   80SLPC  H18X 7478   3.482   1.687   8.743 -0.1841 -0.5503 -1.1121
   80SLPC  H18Y 7479   3.327   1.621   8.782  2.7327 -1.6984  0.3519
   80SLPC  H18Z 7480   3.395   1.755   8.881  0.4199  1.9875 -0.3967
   81SAPS     N 7481   4.303   5.456  11.508 -0.2951  0.4164 -1.0160
   81SAPS   HN1 7482   4.375   5.526  11.481 -1.6893  1.6984 -1.5568
   81SAPS   HN2 7483   4.287   5.454  11.610  1.1100 -1.3115 -0.7795
   81SAPS   HN3 7484   4.340   5.358  11.507 -0.5261  0.2303  1.8973
   81SAPS   C12 7485   4.182   5.448  11.428  0.5631  0.0520 -1.0921
   81SAPS  H12A 7486   4.116   5.379  11.480  1.7246  0.4260  1.0071
   81SAPS   C13 7487   4.108   5.583  11.415  0.5057 -0.9522 -0.2304
   81SAPS  O13A 7488   4.146   5.694  11.477  0.3719 -0.3483  0.4851
   81SAPS  O13B 7489   3.997   5.583  11.352 -0.3314 -0.7551 -0.3952
   81SAPS   C11 7490   4.215   5.393  11.290  0.3527  1.0420  0.5208
   81SAPS  H11A 7491   4.286   5.462  11.238 -2.5453  3.4280 -0.5658
   81SAPS  H11B 7492   4.122   5.402  11.231 -1.1954  0.4744  2.7482
   81SAPS     P 7493   4.160   5.139  11.270  0.0159  0.3279 -0.2711
   81SAPS   O13 7494   4.218   5.021  11.335 -0.6077  0.1710 -0.7716
   81SAPS   O14 7495   4.015   5.160  11.287  0.2382  0.6042  0.0239
   81SAPS   O12 7496   4.253   5.260  11.307  0.0882  0.5017 -0.4986
   81SAPS   O11 7497   4.184   5.117  11.119 -0.5721 -0.3321 -0.7878
   81SAPS    C1 7498   4.291   5.178  11.048 -0.3019  0.1424 -0.2284
   81SAPS    HA 7499   4.256   5.280  11.023 -0.0795  0.5761  1.1290
   81SAPS    HB 7500   4.383   5.175  11.110 -0.7080  1.9762  0.5362
   81SAPS    C2 7501   4.323   5.115  10.913  0.0669  0.1843 -0.2559
   81SAPS    HS 7502   4.366   5.195  10.849  3.1912 -1.2295 -0.1030
   81SAPS   O21 7503   4.198   5.056  10.867 -0.4862  0.2865  0.2337
   81SAPS   C21 7504   4.153   5.102  10.751  0.7540  0.2499 -0.4165
   81SAPS   O22 7505   4.200   5.191  10.689 -0.2587 -0.2641  0.1432
   81SAPS   C22 7506   4.029   5.012  10.708 -0.7368  0.5840 -0.1571
   81SAPS   H2R 7507   3.950   5.017  10.785 -0.9207 -1.9454 -0.1058
   81SAPS   H2S 7508   3.986   5.061  10.617 -1.8225 -0.9821 -0.5123
   81SAPS    C3 7509   4.425   5.003  10.932 -0.5252 -0.1750 -0.3564
   81SAPS    HX 7510   4.384   4.927  11.001  0.6870 -0.0857  0.5008
   81SAPS    HY 7511   4.514   5.032  10.992 -0.1152  0.1264 -1.0798
   81SAPS   O31 7512   4.475   4.947  10.802 -0.2506  0.3841 -0.5592
   81SAPS   C31 7513   4.557   5.023  10.731 -0.0943  0.0710 -0.1609
   81SAPS   O32 7514   4.606   5.126  10.773 -0.1924  0.1739  0.2489
   81SAPS   C32 7515   4.571   4.963  10.592  0.2384 -0.3214  0.7865
   81SAPS   H2X 7516   4.512   4.869  10.596  0.3724 -0.4771 -0.6653
   81SAPS   H2Y 7517   4.678   4.937  10.576  0.1360 -2.4139  2.9487
   81SAPS   C23 7518   4.063   4.861  10.684 -0.0236 -0.0726  0.5382
   81SAPS   H3R 7519   3.973   4.798  10.673  0.7890 -1.3999  1.1814
   81SAPS   H3S 7520   4.110   4.825  10.778  0.4140 -2.4675 -0.5110
   81SAPS   C24 7521   4.147   4.837  10.555  0.3083 -0.5802 -0.6336
   81SAPS   H4R 7522   4.230   4.911  10.545 -1.3492  1.9686  2.6573
   81SAPS   H4S 7523   4.080   4.875  10.475  1.1673  0.7646 -0.7340
   81SAPS   C25 7524   4.191   4.692  10.528  0.0622  0.1505 -0.3746
   81SAPS   H5R 7525   4.185   4.617  10.609  1.4860 -0.9535 -1.2359
   81SAPS   C26 7526   4.222   4.642  10.408 -0.2423  0.4246 -0.0552
   81SAPS   H6R 7527   4.249   4.537  10.391  1.3778  1.0409 -1.5547
   81SAPS   C27 7528   4.225   4.726  10.284 -0.4271 -0.4596 -0.3044
   81SAPS   H7R 7529   4.227   4.834  10.311 -1.4078 -0.5811  0.2699
   81SAPS   H7S 7530   4.129   4.708  10.231 -0.9118 -0.1914  0.4588
   81SAPS   C28 7531   4.330   4.692  10.177  0.4739  0.5254  0.5248
   81SAPS   H8R 7532   4.418   4.645  10.223  0.7632 -2.4698 -2.7126
   81SAPS   C29 7533   4.325   4.704  10.049 -0.0406  1.2826  0.3325
   81SAPS   H9R 7534   4.412   4.664   9.994  1.0774  2.1099  1.4226
   81SAPS  C210 7535   4.215   4.769   9.970 -0.1811  0.6020  0.5455
   81SAPS  H10R 7536   4.143   4.822  10.036 -3.3402  0.1667 -2.2835
   81SAPS  H10S 7537   4.154   4.688   9.926 -0.1911  0.7221  0.3364
   81SAPS  C211 7538   4.264   4.870   9.870 -0.0415 -0.5849 -0.8650
   81SAPS  H11R 7539   4.252   4.977   9.893 -1.3276 -0.2371 -2.8516
   81SAPS  C212 7540   4.303   4.848   9.740  0.1153 -0.4521  0.4094
   81SAPS  H12R 7541   4.326   4.937   9.681  0.5990 -0.3618  0.7272
   81SAPS  C213 7542   4.300   4.717   9.672 -0.5649  0.2099 -0.2436
   81SAPS  H13R 7543   4.341   4.638   9.738 -2.5039 -2.7142 -2.2601
   81SAPS  H13S 7544   4.362   4.718   9.580 -0.7618 -1.5336 -0.4329
   81SAPS  C214 7545   4.154   4.685   9.632  0.2123  0.4701 -0.1279
   81SAPS  H14R 7546   4.104   4.616   9.702 -0.0548  0.9705  0.1799
   81SAPS  C215 7547   4.080   4.730   9.526 -0.4861  0.2505  0.1055
   81SAPS  H15R 7548   3.980   4.686   9.510 -1.0519  2.4036 -2.9664
   81SAPS  C216 7549   4.110   4.840   9.426 -0.7115  0.1399  0.5994
   81SAPS  H16R 7550   4.170   4.921   9.474 -2.5022  1.0561  1.3726
   81SAPS  H16S 7551   4.020   4.892   9.388 -0.0028 -0.1201 -1.5910
   81SAPS  C217 7552   4.203   4.782   9.321  0.4204 -0.5989 -0.3983
   81SAPS  H17R 7553   4.141   4.712   9.261  0.7364 -2.5148  1.4034
   81SAPS  H17S 7554   4.282   4.718   9.365  0.7814  0.3054  0.2896
   81SAPS  C218 7555   4.266   4.892   9.233  0.9550 -0.4646 -1.0764
   81SAPS  H18R 7556   4.324   4.963   9.296 -2.1650  1.7848 -0.5189
   81SAPS  H18S 7557   4.186   4.957   9.192  0.9597  0.4035  0.2461
   81SAPS  C219 7558   4.350   4.821   9.119 -0.4560 -0.8015  0.0681
   81SAPS  H19R 7559   4.414   4.741   9.163  0.7247 -0.9996 -1.8861
   81SAPS  H19S 7560   4.413   4.906   9.086 -1.6300  0.2254  0.3806
   81SAPS  C220 7561   4.262   4.785   8.991 -0.8053  0.2860  0.5547
   81SAPS  H20R 7562   4.216   4.875   8.945 -3.2707 -1.8668 -1.5536
   81SAPS  H20S 7563   4.176   4.718   9.012 -0.3868 -0.8569 -1.1372
   81SAPS  H20T 7564   4.328   4.727   8.922  0.8331 -1.4950  3.4123
   81SAPS   C33 7565   4.512   5.055  10.480  0.2382 -0.4055  0.4234
   81SAPS   H3X 7566   4.567   5.152  10.473 -1.4880  0.6839  1.3037
   81SAPS   H3Y 7567   4.405   5.073  10.505  0.6934  0.9996  1.5231
   81SAPS   C34 7568   4.543   4.991  10.344 -0.3778  0.2058 -0.1426
   81SAPS   H4X 7569   4.465   4.913  10.324  0.4095 -1.0779  1.5025
   81SAPS   H4Y 7570   4.647   4.953  10.340  0.1792  1.7708 -1.7980
   81SAPS   C35 7571   4.531   5.094  10.227 -0.0337  0.0064 -0.5777
   81SAPS   H5X 7572   4.594   5.184  10.241 -1.9214  1.2813 -0.0396
   81SAPS   H5Y 7573   4.424   5.119  10.239 -0.1763 -0.2833 -1.1927
   81SAPS   C36 7574   4.559   5.032  10.088  0.2059 -0.0131  0.2221
   81SAPS   H6X 7575   4.494   4.942  10.082 -1.4983  0.8460  3.3483
   81SAPS   H6Y 7576   4.665   5.010  10.065 -0.2187 -1.9356 -0.0501
   81SAPS   C37 7577   4.517   5.123   9.965  0.1536  0.1815 -0.1672
   81SAPS   H7X 7578   4.538   5.229   9.992  1.0880  0.2087 -0.9760
   81SAPS   H7Y 7579   4.406   5.133   9.957  0.2758  0.4631 -2.0465
   81SAPS   C38 7580   4.585   5.092   9.832 -0.0307  0.1387  0.0649
   81SAPS   H8X 7581   4.573   4.982   9.827  0.3640 -0.0244  1.9627
   81SAPS   H8Y 7582   4.686   5.137   9.847 -0.6415  1.6240 -0.0940
   81SAPS   C39 7583   4.528   5.162   9.698  0.0512  0.5428  0.7356
   81SAPS   H9X 7584   4.504   5.269   9.712 -1.1620  0.3961 -0.1000
   81SAPS   H9Y 7585   4.426   5.128   9.668  0.9244 -1.2988 -0.3373
   81SAPS  C310 7586   4.604   5.130   9.571  0.0526 -0.1049  0.4719
   81SAPS  H10X 7587   4.627   5.022   9.570  1.2696  0.1266 -1.0217
   81SAPS  H10Y 7588   4.694   5.196   9.573 -1.4131  2.0843 -0.6086
   81SAPS  C311 7589   4.516   5.153   9.449  0.7274 -0.6646  0.2795
   81SAPS  H11X 7590   4.484   5.260   9.448  1.2187 -0.5011  1.0117
   81SAPS  H11Y 7591   4.420   5.098   9.449 -0.3369  1.0871 -0.7216
   81SAPS  C312 7592   4.582   5.119   9.317 -0.5257 -0.5266 -0.4621
   81SAPS  H12X 7593   4.509   5.132   9.233 -2.0813  1.8948  1.1540
   81SAPS  H12Y 7594   4.615   5.013   9.313 -0.3275 -0.5226  0.9117
   81SAPS  C313 7595   4.699   5.208   9.272 -0.4953  0.0749 -0.3782
   81SAPS  H13X 7596   4.766   5.230   9.358 -0.7941 -0.9227  0.1228
   81SAPS  H13Y 7597   4.653   5.305   9.240 -3.3365 -1.4048 -1.1846
   81SAPS  C314 7598   4.790   5.152   9.168 -0.3862 -0.3965  0.4109
   81SAPS  H14X 7599   4.861   5.083   9.219 -0.8338 -1.1699  0.0161
   81SAPS  H14Y 7600   4.866   5.218   9.121 -0.9628 -0.2701 -0.3804
   81SAPS  C315 7601   4.710   5.067   9.062  1.0128  0.2571 -0.6652
   81SAPS  H15X 7602   4.627   5.005   9.102  0.0474  1.3203 -0.9451
   81SAPS  H15Y 7603   4.789   5.013   9.005  0.1327  2.3060 -4.1053
   81SAPS  C316 7604   4.642   5.166   8.959 -0.9452  0.2475 -0.1140
   81SAPS  H16X 7605   4.589   5.256   8.995 -1.0475  1.3944 -2.8627
   81SAPS  H16Y 7606   4.569   5.095   8.914  0.4955 -3.0267  2.2589
   81SAPS  C317 7607   4.749   5.208   8.855  0.9361  1.0181 -0.5365
   81SAPS  H17X 7608   4.801   5.113   8.830 -3.1572 -2.2379  2.0062
   81SAPS  H17Y 7609   4.823   5.282   8.893  2.3912 -0.9056  0.5534
   81SAPS  C318 7610   4.685   5.256   8.725 -0.2645 -0.5353 -0.6093
   81SAPS  H18X 7611   4.776   5.284   8.668  0.5447 -1.1945  0.3164
   81SAPS  H18Y 7612   4.623   5.349   8.731  0.2055 -0.2900  0.7047
   81SAPS  H18Z 7613   4.631   5.172   8.675  0.4583 -0.4496 -1.5522
   82SAPS     N 7614   4.608   2.120  11.298 -0.3184  0.4590  0.7257
   82SAPS   HN1 7615   4.550   2.191  11.248  0.1959  0.8587  0.6836
   82SAPS   HN2 7616   4.704   2.162  11.306 -0.6291  0.7568  4.7227
   82SAPS   HN3 7617   4.610   2.037  11.236 -0.1483  1.3745 -0.5367
   82SAPS   C12 7618   4.528   2.093  11.416  0.6995 -0.6124 -0.2247
   82SAPS  H12A 7619   4.557   2.001  11.464 -0.6929 -0.0983  1.7793
   82SAPS   C13 7620   4.526   2.201  11.531 -0.0476  0.0415 -0.1843
   82SAPS  O13A 7621   4.570   2.318  11.514 -0.5833  0.0420  0.0511
   82SAPS  O13B 7622   4.478   2.168  11.642  0.0406  0.8989 -0.0006
   82SAPS   C11 7623   4.370   2.085  11.373 -0.6062  0.2558 -0.1156
   82SAPS  H11A 7624   4.337   2.189  11.348  0.4981 -0.1236 -3.8197
   82SAPS  H11B 7625   4.321   2.043  11.463 -0.3400 -0.6006 -0.3594
   82SAPS     P 7626   4.215   1.987  11.199  0.0077  0.2021 -0.0684
   82SAPS   O13 7627   4.145   1.885  11.280  0.4259  0.4017  0.0883
   82SAPS   O14 7628   4.146   2.118  11.178  0.1616 -0.2657  0.4804
   82SAPS   O12 7629   4.353   1.995  11.265  0.2403  0.5932 -0.3834
   82SAPS   O11 7630   4.257   1.918  11.064 -0.5895 -0.6789 -0.1776
   82SAPS    C1 7631   4.339   1.799  11.062 -0.3573  0.3833  0.5133
   82SAPS    HA 7632   4.444   1.823  11.088  0.4195 -1.1131 -1.0800
   82SAPS    HB 7633   4.300   1.723  11.133 -2.1084 -0.0241 -0.8019
   82SAPS    C2 7634   4.347   1.731  10.921  0.2500  0.0701 -0.0271
   82SAPS    HS 7635   4.380   1.628  10.947 -0.3556  0.2329  1.4530
   82SAPS   O21 7636   4.433   1.797  10.827 -0.0441 -0.2307  0.5316
   82SAPS   C21 7637   4.564   1.773  10.851 -0.3926 -0.6616 -0.4270
   82SAPS   O22 7638   4.600   1.693  10.936 -0.4040  0.4232 -0.1996
   82SAPS   C22 7639   4.659   1.853  10.762  0.1987 -0.3674  0.3089
   82SAPS   H2R 7640   4.618   1.867  10.660 -0.3063 -1.8322  0.2867
   82SAPS   H2S 7641   4.669   1.952  10.811 -1.2157  1.2400 -2.4350
   82SAPS    C3 7642   4.208   1.711  10.861 -0.0459 -0.4316 -0.3987
   82SAPS    HX 7643   4.163   1.806  10.825 -3.4915 -0.9942  1.9791
   82SAPS    HY 7644   4.146   1.691  10.951  2.8598  1.4309  2.2288
   82SAPS   O31 7645   4.208   1.597  10.772  0.4397 -0.1419 -0.4083
   82SAPS   C31 7646   4.170   1.609  10.647  0.3505  0.8680 -0.3033
   82SAPS   O32 7647   4.178   1.705  10.578 -0.0537  0.3018  0.3270
   82SAPS   C32 7648   4.128   1.463  10.607 -0.2601 -0.2419  0.3812
   82SAPS   H2X 7649   4.024   1.436  10.635 -0.3662 -1.5836 -1.1739
   82SAPS   H2Y 7650   4.195   1.396  10.664 -1.9428  0.8560  4.0106
   82SAPS   C23 7651   4.796   1.796  10.744  0.2703  0.4935 -0.4377
   82SAPS   H3R 7652   4.800   1.695  10.698  0.2426  0.5052 -0.4660
   82SAPS   H3S 7653   4.842   1.787  10.844 -1.9281  0.2354  0.6279
   82SAPS   C24 7654   4.899   1.869  10.658 -0.1812  0.3410  0.6235
   82SAPS   H4R 7655   5.001   1.838  10.690 -1.0974 -2.1900  1.3083
   82SAPS   H4S 7656   4.887   1.976  10.684  0.6548  0.7434 -0.5142
   82SAPS   C25 7657   4.876   1.861  10.506 -0.5791 -0.0894 -0.0993
   82SAPS   H5R 7658   4.778   1.898  10.472 -0.7360 -0.2151  0.2193
   82SAPS   C26 7659   4.968   1.825  10.415  0.1608 -0.4332 -0.6804
   82SAPS   H6R 7660   4.932   1.816  10.312 -0.4312 -0.5877 -0.4650
   82SAPS   C27 7661   5.110   1.778  10.434 -0.1171  0.0476 -0.1298
   82SAPS   H7R 7662   5.150   1.795  10.536  0.3103  2.3155 -0.6248
   82SAPS   H7S 7663   5.188   1.823  10.369 -0.8070  2.1066  0.4155
   82SAPS   C28 7664   5.092   1.632  10.418  0.0971 -0.0258  0.1451
   82SAPS   H8R 7665   5.042   1.575  10.499 -0.3801 -0.4008 -0.4029
   82SAPS   C29 7666   5.128   1.558  10.316  0.2053  0.3120 -0.6204
   82SAPS   H9R 7667   5.107   1.450  10.323  2.3082 -0.0751  0.4262
   82SAPS  C210 7668   5.190   1.605  10.187  0.6161 -0.4158 -0.2770
   82SAPS  H10R 7669   5.271   1.675  10.218  0.3849 -0.6570  0.9319
   82SAPS  H10S 7670   5.110   1.660  10.133 -1.4516 -0.3593  2.6050
   82SAPS  C211 7671   5.266   1.495  10.111  0.1825  0.5659  0.3085
   82SAPS  H11R 7672   5.281   1.406  10.175 -3.0770  0.0344  0.5483
   82SAPS  C212 7673   5.307   1.492   9.980 -0.7513  0.2828  0.5814
   82SAPS  H12R 7674   5.343   1.399   9.934 -0.0955  0.7076  0.2199
   82SAPS  C213 7675   5.289   1.603   9.880  0.2857  0.2333  0.8174
   82SAPS  H13R 7676   5.360   1.599   9.794  0.5729  2.7836  0.8518
   82SAPS  H13S 7677   5.299   1.703   9.928  0.4308  0.1414  0.9785
   82SAPS  C214 7678   5.148   1.585   9.819 -0.1612 -0.0016 -0.8576
   82SAPS  H14R 7679   5.063   1.595   9.888  0.6137  1.5573 -0.0964
   82SAPS  C215 7680   5.118   1.553   9.690  0.1353  1.1891 -0.2095
   82SAPS  H15R 7681   5.008   1.550   9.684  0.0985  1.4788  0.2916
   82SAPS  C216 7682   5.208   1.528   9.569  0.0399 -0.4554  0.2154
   82SAPS  H16R 7683   5.187   1.429   9.523 -1.2026 -0.2871  0.3808
   82SAPS  H16S 7684   5.313   1.530   9.604 -0.0387 -0.7050  0.4663
   82SAPS  C217 7685   5.209   1.636   9.454 -0.3804  0.5274 -0.4472
   82SAPS  H17R 7686   5.205   1.737   9.499  0.5654  0.4194 -0.0959
   82SAPS  H17S 7687   5.116   1.623   9.394 -0.0062 -2.7980 -0.4792
   82SAPS  C218 7688   5.321   1.618   9.352 -0.7497  0.0185  1.3322
   82SAPS  H18R 7689   5.412   1.583   9.404  0.7029  0.5884 -0.7036
   82SAPS  H18S 7690   5.346   1.719   9.311 -1.1006  0.5117  2.3078
   82SAPS  C219 7691   5.291   1.516   9.241 -0.1975 -0.6804 -0.5263
   82SAPS  H19R 7692   5.187   1.479   9.237 -0.3608 -1.0040  3.2185
   82SAPS  H19S 7693   5.347   1.423   9.266  0.0826  0.0321  1.7549
   82SAPS  C220 7694   5.320   1.578   9.106 -0.2666  0.3961 -0.5668
   82SAPS  H20R 7695   5.259   1.668   9.082 -0.7659  0.0756 -0.5191
   82SAPS  H20S 7696   5.287   1.498   9.036  0.3765 -0.0055 -0.4101
   82SAPS  H20T 7697   5.427   1.595   9.087 -0.6192 -0.0228 -3.3654
   82SAPS   C33 7698   4.153   1.440  10.460  0.2413 -0.7753 -0.5497
   82SAPS   H3X 7699   4.252   1.481  10.432 -0.5308  1.6018 -0.0447
   82SAPS   H3Y 7700   4.081   1.493  10.394  0.7455 -1.4420 -1.6483
   82SAPS   C34 7701   4.138   1.285  10.424 -0.3514 -0.6089 -0.3524
   82SAPS   H4X 7702   4.050   1.243  10.478 -0.6311  1.9944  1.4026
   82SAPS   H4Y 7703   4.229   1.242  10.471  0.2193  0.4107 -0.4968
   82SAPS   C35 7704   4.138   1.254  10.270  0.0322  0.2346  0.7190
   82SAPS   H5X 7705   4.039   1.292  10.239  0.6673  2.9002  1.7098
   82SAPS   H5Y 7706   4.146   1.144  10.258  0.3390 -0.0197  2.7827
   82SAPS   C36 7707   4.231   1.328  10.180  0.1390 -0.4279 -0.5068
   82SAPS   H6X 7708   4.339   1.327  10.205  0.7925 -1.4872 -3.0053
   82SAPS   H6Y 7709   4.203   1.435  10.173  1.2533  0.1351  2.3663
   82SAPS   C37 7710   4.222   1.268  10.045  0.3229 -0.3023 -0.5413
   82SAPS   H7X 7711   4.117   1.288  10.012  0.3474  1.5144  0.3275
   82SAPS   H7Y 7712   4.244   1.160  10.054 -0.8578 -0.3941  2.4135
   82SAPS   C38 7713   4.305   1.339   9.934 -0.5060 -0.2497  0.2943
   82SAPS   H8X 7714   4.411   1.327   9.965  0.4151  0.8308 -2.2245
   82SAPS   H8Y 7715   4.283   1.447   9.946 -2.6787 -0.5869 -0.1604
   82SAPS   C39 7716   4.298   1.294   9.789  0.3574 -0.1651  0.1970
   82SAPS   H9X 7717   4.204   1.344   9.755 -0.2051 -0.3744  1.3882
   82SAPS   H9Y 7718   4.280   1.185   9.780 -0.4480 -0.0159 -0.1408
   82SAPS  C310 7719   4.418   1.327   9.703  0.3655  0.8722 -0.2031
   82SAPS  H10X 7720   4.514   1.283   9.737  1.0649  0.4751 -2.5768
   82SAPS  H10Y 7721   4.425   1.438   9.705  0.0979  0.8875 -0.1164
   82SAPS  C311 7722   4.389   1.289   9.553  0.5210  0.2968 -0.5248
   82SAPS  H11X 7723   4.321   1.201   9.548 -1.7731  1.9646 -0.2713
   82SAPS  H11Y 7724   4.488   1.264   9.508  1.1988  1.0503  0.5032
   82SAPS  C312 7725   4.338   1.411   9.466 -0.0165  0.4639 -0.3910
   82SAPS  H12X 7726   4.415   1.491   9.479 -0.5940  0.6547  2.3454
   82SAPS  H12Y 7727   4.246   1.443   9.520  0.6898 -0.2929  1.3334
   82SAPS  C313 7728   4.323   1.395   9.312 -0.7381  0.1367 -0.5545
   82SAPS  H13X 7729   4.270   1.302   9.284  0.4845 -0.6148 -0.4501
   82SAPS  H13Y 7730   4.421   1.383   9.261 -0.8945 -0.3496 -0.7473
   82SAPS  C314 7731   4.259   1.523   9.243  0.3350  0.3554 -0.9072
   82SAPS  H14X 7732   4.309   1.614   9.283  0.3419  0.9482 -2.2388
   82SAPS  H14Y 7733   4.153   1.532   9.273  1.1734  0.6348  2.3743
   82SAPS  C315 7734   4.280   1.523   9.090 -0.3254 -0.9174  0.1142
   82SAPS  H15X 7735   4.243   1.428   9.046 -2.3875  1.0584 -2.7694
   82SAPS  H15Y 7736   4.387   1.542   9.067 -1.3608  2.2665 -2.8512
   82SAPS  C316 7737   4.208   1.638   9.022  0.0989  0.2459 -0.3808
   82SAPS  H16X 7738   4.105   1.651   9.062  0.7328 -0.6258  1.7352
   82SAPS  H16Y 7739   4.193   1.614   8.915  0.8258  0.8459 -0.6221
   82SAPS  C317 7740   4.294   1.763   9.025 -1.0944 -0.1805  0.1183
   82SAPS  H17X 7741   4.395   1.738   8.989 -1.0321 -0.7131  0.6445
   82SAPS  H17Y 7742   4.302   1.778   9.135 -2.2990 -2.2683  0.5581
   82SAPS  C318 7743   4.250   1.893   8.955  0.2171 -0.4580 -0.2731
   82SAPS  H18X 7744   4.260   1.884   8.845  0.5025 -0.2206 -0.2690
   82SAPS  H18Y 7745   4.316   1.970   9.000 -1.3617  1.6699 -1.4123
   82SAPS  H18Z 7746   4.142   1.900   8.982  0.4139 -0.1604  0.4531
   83SAPS     N 7747   4.770   2.522  11.054 -0.5763 -0.0375  0.0240
   83SAPS   HN1 7748   4.708   2.453  11.006  0.5095 -0.0272 -1.4831
   83SAPS   HN2 7749   4.728   2.617  11.065  1.8289  1.1932 -0.7006
   83SAPS   HN3 7750   4.860   2.524  11.001 -1.0157 -2.1739 -0.9098
   83SAPS   C12 7751   4.802   2.469  11.192 -0.6088 -0.3541 -0.2695
   83SAPS  H12A 7752   4.725   2.501  11.260  0.4226  0.6590  0.4515
   83SAPS   C13 7753   4.822   2.315  11.199  0.6204 -0.2934 -0.3528
   83SAPS  O13A 7754   4.797   2.246  11.096  0.1864 -0.5129 -0.2489
   83SAPS  O13B 7755   4.840   2.259  11.311  0.3216 -0.0950 -0.3263
   83SAPS   C11 7756   4.932   2.543  11.244 -0.2172  0.2411  0.5066
   83SAPS  H11A 7757   5.016   2.517  11.175  0.8915  1.4869  1.3456
   83SAPS  H11B 7758   4.950   2.509  11.348  2.7286  2.6622  0.9139
   83SAPS     P 7759   5.014   2.793  11.293 -0.1215 -0.1410 -0.5146
   83SAPS   O13 7760   4.913   2.895  11.345 -0.4788  0.5444  0.5178
   83SAPS   O14 7761   5.111   2.737  11.395 -0.2586 -0.3985  0.4864
   83SAPS   O12 7762   4.911   2.680  11.245  0.3018  0.1638  0.1644
   83SAPS   O11 7763   5.083   2.839  11.157  0.1954  0.0422 -0.3486
   83SAPS    C1 7764   5.004   2.919  11.070  0.0869  0.4519  0.6102
   83SAPS    HA 7765   4.909   2.958  11.112 -1.2816 -0.7432 -1.2029
   83SAPS    HB 7766   5.067   3.009  11.054  1.0630 -0.4450 -0.8815
   83SAPS    C2 7767   4.964   2.841  10.940 -0.1329  0.0901  0.1056
   83SAPS    HS 7768   4.891   2.763  10.971  0.8237 -1.0960 -0.5617
   83SAPS   O21 7769   5.083   2.782  10.882 -0.5717 -0.0496 -0.2740
   83SAPS   C21 7770   5.078   2.653  10.853 -0.3922  0.1781  0.1885
   83SAPS   O22 7771   4.985   2.580  10.872 -0.4219  0.0509 -0.2675
   83SAPS   C22 7772   5.204   2.619  10.774 -0.6089  0.0529 -0.3149
   83SAPS   H2R 7773   5.181   2.663  10.675  1.7583 -0.4866 -1.1755
   83SAPS   H2S 7774   5.289   2.676  10.816 -0.3411  0.5550 -1.4987
   83SAPS    C3 7775   4.898   2.925  10.823  0.9013 -0.1730 -0.2250
   83SAPS    HX 7776   4.981   2.993  10.794 -0.3431  0.4615 -2.5514
   83SAPS    HY 7777   4.815   2.984  10.869  1.0313 -0.0608 -0.1354
   83SAPS   O31 7778   4.864   2.835  10.715 -0.3547  0.7508  0.3628
   83SAPS   C31 7779   4.790   2.887  10.618 -0.8286  0.0373  0.7606
   83SAPS   O32 7780   4.745   3.002  10.609  0.5403  0.4531  0.5612
   83SAPS   C32 7781   4.794   2.790  10.499 -0.1637 -0.8953 -0.4684
   83SAPS   H2X 7782   4.750   2.835  10.408  1.9141 -0.6034 -1.3970
   83SAPS   H2Y 7783   4.730   2.704  10.528 -1.0274  0.0400  0.4707
   83SAPS   C23 7784   5.230   2.465  10.736  0.3640 -0.1087 -0.1292
   83SAPS   H3R 7785   5.225   2.408  10.831  1.1949  1.5894  0.9790
   83SAPS   H3S 7786   5.334   2.445  10.702 -0.6377 -3.4776 -1.6838
   83SAPS   C24 7787   5.151   2.420  10.616  0.0693 -0.6556  0.6449
   83SAPS   H4R 7788   5.188   2.487  10.536  1.5381  0.1965  1.9700
   83SAPS   H4S 7789   5.045   2.439  10.643  0.0099  1.4835 -0.8462
   83SAPS   C25 7790   5.175   2.267  10.591 -0.0634 -0.6650 -0.1019
   83SAPS   H5R 7791   5.118   2.207  10.664  1.1420 -0.8338  0.7126
   83SAPS   C26 7792   5.241   2.208  10.487  0.1195 -0.1169  0.0539
   83SAPS   H6R 7793   5.249   2.099  10.487 -2.1481 -0.3339 -0.1487
   83SAPS   C27 7794   5.312   2.273  10.368 -0.1027  1.2696 -0.3675
   83SAPS   H7R 7795   5.388   2.206  10.321  3.1215  2.7475  2.3247
   83SAPS   H7S 7796   5.364   2.362  10.410 -1.0750  1.0512  1.3357
   83SAPS   C28 7797   5.218   2.320  10.268 -0.0135 -0.5815 -0.8484
   83SAPS   H8R 7798   5.126   2.261  10.254 -0.8284  0.3309  0.4868
   83SAPS   C29 7799   5.218   2.442  10.206 -0.2676 -0.0127  0.7453
   83SAPS   H9R 7800   5.150   2.467  10.124 -0.4516  1.6054  1.3550
   83SAPS  C210 7801   5.317   2.552  10.237  0.4871 -1.1566  0.3360
   83SAPS  H10R 7802   5.416   2.516  10.201 -0.5250 -0.9730 -2.9675
   83SAPS  H10S 7803   5.334   2.559  10.346  2.7255 -1.0639  0.0401
   83SAPS  C211 7804   5.275   2.681  10.177 -0.4615 -0.7410  0.0418
   83SAPS  H11R 7805   5.208   2.742  10.240 -1.6132 -1.7969 -0.1271
   83SAPS  C212 7806   5.294   2.727  10.048 -0.0336 -0.1235 -0.0379
   83SAPS  H12R 7807   5.282   2.831  10.016  3.8954  0.6637  0.4662
   83SAPS  C213 7808   5.372   2.644   9.945 -0.1805  0.6396  0.4121
   83SAPS  H13R 7809   5.340   2.538   9.947  0.2561  0.4777 -0.6523
   83SAPS  H13S 7810   5.472   2.633   9.993  0.1842  0.8439 -0.2916
   83SAPS  C214 7811   5.386   2.683   9.800 -0.5890  0.0443 -0.4108
   83SAPS  H14R 7812   5.480   2.730   9.769 -0.3173 -0.7406 -0.8097
   83SAPS  C215 7813   5.278   2.683   9.718 -0.0105 -0.3012 -0.4717
   83SAPS  H15R 7814   5.285   2.729   9.618  1.4318 -0.8838 -0.6695
   83SAPS  C216 7815   5.131   2.647   9.756  0.3868  0.2079  0.4234
   83SAPS  H16R 7816   5.064   2.702   9.686 -1.1623 -0.9034  0.9799
   83SAPS  H16S 7817   5.101   2.682   9.858 -0.9304 -0.5142  0.3110
   83SAPS  C217 7818   5.103   2.500   9.731  0.0261 -0.3831 -0.7169
   83SAPS  H17R 7819   5.166   2.440   9.800  0.0665 -0.7472 -1.0654
   83SAPS  H17S 7820   5.120   2.475   9.624 -1.1258  1.9227 -1.5002
   83SAPS  C218 7821   4.961   2.450   9.760 -0.5267 -0.0521 -0.4206
   83SAPS  H18R 7822   4.903   2.510   9.687 -1.5261 -0.2151  0.2202
   83SAPS  H18S 7823   4.939   2.487   9.863  0.2913 -1.1190  0.1631
   83SAPS  C219 7824   4.951   2.294   9.746 -0.7080  0.0953  0.6697
   83SAPS  H19R 7825   4.993   2.251   9.839  1.1106  0.7707  0.1983
   83SAPS  H19S 7826   5.003   2.274   9.650  0.4654  1.8414  0.8913
   83SAPS  C220 7827   4.809   2.236   9.729  0.7302 -0.9364  0.7557
   83SAPS  H20R 7828   4.756   2.275   9.639  0.0368 -0.6337  1.2872
   83SAPS  H20S 7829   4.755   2.250   9.825 -1.6103 -2.5597 -0.2294
   83SAPS  H20T 7830   4.816   2.126   9.723  0.5173 -0.9526  0.7875
   83SAPS   C33 7831   4.939   2.748  10.453 -0.5866  0.0401 -0.1352
   83SAPS   H3X 7832   4.994   2.712  10.542  1.3964  0.8572 -0.9695
   83SAPS   H3Y 7833   5.002   2.833  10.420 -1.2699  0.5306 -0.1956
   83SAPS   C34 7834   4.937   2.633  10.348 -0.0467 -0.5058  0.0020
   83SAPS   H4X 7835   4.886   2.538  10.376  0.1121 -0.6398 -0.1597
   83SAPS   H4Y 7836   5.043   2.601  10.346  0.8794  2.2458  1.0292
   83SAPS   C35 7837   4.903   2.676  10.207  0.0633 -0.9838  0.4450
   83SAPS   H5X 7838   4.943   2.594  10.144  1.1185 -0.9962  1.1168
   83SAPS   H5Y 7839   4.959   2.769  10.187  3.1583 -2.1324  2.8629
   83SAPS   C36 7840   4.757   2.687  10.173  0.5360  0.5157  0.2597
   83SAPS   H6X 7841   4.726   2.789  10.205  0.0307  0.1833  0.8446
   83SAPS   H6Y 7842   4.708   2.605  10.229  0.8951 -1.1092 -1.6848
   83SAPS   C37 7843   4.717   2.661  10.023 -0.9876  0.2249 -0.6891
   83SAPS   H7X 7844   4.607   2.669  10.013 -1.2242  2.9001  2.2559
   83SAPS   H7Y 7845   4.752   2.559   9.996 -0.1077 -0.1877  1.7974
   83SAPS   C38 7846   4.776   2.764   9.923 -0.3169 -0.6769 -0.6349
   83SAPS   H8X 7847   4.884   2.746   9.905 -0.8196 -3.2263 -1.4732
   83SAPS   H8Y 7848   4.756   2.868   9.958  2.3518  0.3056 -1.7203
   83SAPS   C39 7849   4.720   2.759   9.777  0.2859  0.3202 -0.5582
   83SAPS   H9X 7850   4.610   2.773   9.769  0.1853  0.1492  0.3638
   83SAPS   H9Y 7851   4.736   2.654   9.743 -3.7039 -0.4913 -0.3967
   83SAPS  C310 7852   4.803   2.852   9.682  0.3919 -0.0469  0.1551
   83SAPS  H10X 7853   4.906   2.859   9.723  0.1840 -1.1881  0.9317
   83SAPS  H10Y 7854   4.761   2.954   9.688  0.7117  0.0757  0.3339
   83SAPS  C311 7855   4.809   2.804   9.539  0.2193  0.5745  0.2431
   83SAPS  H11X 7856   4.707   2.767   9.512  0.8475  0.6014 -2.3837
   83SAPS  H11Y 7857   4.882   2.720   9.537  0.2167  0.5873 -0.5845
   83SAPS  C312 7858   4.870   2.904   9.444 -0.2795  0.1396  0.0261
   83SAPS  H12X 7859   4.960   2.939   9.500 -0.4918 -1.1128  1.2110
   83SAPS  H12Y 7860   4.800   2.991   9.436 -0.9633 -0.4635 -0.7329
   83SAPS  C313 7861   4.891   2.831   9.304  0.1941  0.0934 -0.4777
   83SAPS  H13X 7862   4.896   2.922   9.240  0.6492  2.0155  2.1473
   83SAPS  H13Y 7863   4.801   2.773   9.274 -2.9421  2.7386  2.8181
   83SAPS  C314 7864   5.029   2.763   9.280 -0.6924 -0.0748  0.0002
   83SAPS  H14X 7865   5.111   2.828   9.317 -0.8047 -0.6524  1.3344
   83SAPS  H14Y 7866   5.051   2.747   9.172 -0.8689  2.6183 -0.5015
   83SAPS  C315 7867   5.054   2.638   9.357  0.6240 -0.1408 -0.5801
   83SAPS  H15X 7868   5.058   2.655   9.466  0.5008 -1.1349 -0.4128
   83SAPS  H15Y 7869   5.161   2.617   9.335  1.5981  1.5938  2.0585
   83SAPS  C316 7870   4.957   2.531   9.309 -0.4767 -0.2530  0.1600
   83SAPS  H16X 7871   4.948   2.522   9.199  0.6177 -2.6989  0.1986
   83SAPS  H16Y 7872   4.859   2.534   9.361 -0.1367 -0.3185  0.8145
   83SAPS  C317 7873   5.024   2.399   9.344  0.1147  0.3747  0.7256
   83SAPS  H17X 7874   5.018   2.374   9.452 -1.2888 -1.6002  0.2554
   83SAPS  H17Y 7875   5.128   2.396   9.306 -0.4940 -0.9335 -0.9691
   83SAPS  C318 7876   4.969   2.279   9.278 -0.0002  0.0518  0.0309
   83SAPS  H18X 7877   5.038   2.198   9.307 -2.8661 -1.9550  1.7344
   83SAPS  H18Y 7878   4.954   2.294   9.169  0.9136  0.6070 -0.0303
   83SAPS  H18Z 7879   4.875   2.243   9.325  0.1870  0.8529  1.0732
   84SAPS     N 7880   1.441   4.772  11.510 -0.0517  0.1907 -0.0517
   84SAPS   HN1 7881   1.390   4.682  11.500 -1.2100  0.3202  3.4479
   84SAPS   HN2 7882   1.479   4.761  11.606  0.1610  2.2001  0.1472
   84SAPS   HN3 7883   1.371   4.849  11.503 -1.0771 -0.4275  2.4342
   84SAPS   C12 7884   1.542   4.785  11.408  0.4442 -0.5510  0.5479
   84SAPS  H12A 7885   1.586   4.883  11.419 -0.6241 -0.2076  2.0529
   84SAPS   C13 7886   1.654   4.683  11.410  0.0693 -0.3932  1.1754
   84SAPS  O13A 7887   1.649   4.579  11.479 -0.0716 -0.1244 -0.6101
   84SAPS  O13B 7888   1.753   4.700  11.333  0.2657  0.3078  0.6636
   84SAPS   C11 7889   1.463   4.777  11.274 -0.3320 -0.1240  0.4975
   84SAPS  H11A 7890   1.411   4.678  11.277 -1.0195  0.1506 -1.2674
   84SAPS  H11B 7891   1.516   4.787  11.177  0.3735 -0.1535  0.8668
   84SAPS     P 7892   1.375   5.010  11.199  0.0716 -0.3156  0.2284
   84SAPS   O13 7893   1.241   5.074  11.191 -0.2249  0.5364  0.0285
   84SAPS   O14 7894   1.483   5.080  11.274 -0.3201 -0.0338  0.6021
   84SAPS   O12 7895   1.359   4.868  11.268  0.1108  0.3988 -0.3308
   84SAPS   O11 7896   1.433   4.973  11.047  0.0499 -0.0761 -0.0372
   84SAPS    C1 7897   1.347   4.948  10.939 -0.4329  0.2636  0.6590
   84SAPS    HA 7898   1.263   4.878  10.962 -1.9681  0.9007 -2.4448
   84SAPS    HB 7899   1.299   5.040  10.898  0.0387  0.1457 -0.1793
   84SAPS    C2 7900   1.421   4.863  10.828  0.6691 -0.5579 -0.7107
   84SAPS    HS 7901   1.515   4.910  10.792 -2.2680  3.2748 -4.3882
   84SAPS   O21 7902   1.338   4.841  10.711 -0.0762 -0.5938 -0.2311
   84SAPS   C21 7903   1.329   4.941  10.626  0.5913  0.8166  0.2889
   84SAPS   O22 7904   1.371   5.054  10.654 -0.0239  0.8766  0.1992
   84SAPS   C22 7905   1.268   4.887  10.502 -0.2805  0.5870  0.3780
   84SAPS   H2R 7906   1.299   4.780  10.496 -5.0148 -1.0215  0.0758
   84SAPS   H2S 7907   1.159   4.885  10.522 -0.1770 -0.5838  0.9480
   84SAPS    C3 7908   1.455   4.718  10.881  0.0361  0.0668  0.5725
   84SAPS    HX 7909   1.357   4.673  10.906 -0.7296  1.4536  0.2002
   84SAPS    HY 7910   1.522   4.731  10.969 -0.2156  1.7718  0.5427
   84SAPS   O31 7911   1.527   4.647  10.781 -0.1138 -0.3076  0.0100
   84SAPS   C31 7912   1.494   4.517  10.774  0.1639 -0.3195 -0.2738
   84SAPS   O32 7913   1.434   4.451  10.860  0.3954 -0.1952  0.3352
   84SAPS   C32 7914   1.543   4.466  10.639  0.5348 -0.2745 -0.0167
   84SAPS   H2X 7915   1.510   4.361  10.621 -0.4578  0.2486 -1.5714
   84SAPS   H2Y 7916   1.652   4.478  10.652  0.5966 -1.2733  0.4388
   84SAPS   C23 7917   1.305   4.963  10.370 -0.7427  0.4650 -0.5222
   84SAPS   H3R 7918   1.413   4.952  10.344 -0.7043  3.4009 -2.0176
   84SAPS   H3S 7919   1.292   5.072  10.385  2.3324  1.2077 -2.4248
   84SAPS   C24 7920   1.226   4.915  10.245 -0.1401  0.0154 -0.3670
   84SAPS   H4R 7921   1.118   4.934  10.265 -0.3658  1.0914 -2.3445
   84SAPS   H4S 7922   1.241   4.807  10.220 -0.9430 -0.7093  2.0104
   84SAPS   C25 7923   1.261   5.006  10.128 -0.0640  0.6414  0.4188
   84SAPS   H5R 7924   1.313   5.099  10.155 -0.6352  1.0304  0.1983
   84SAPS   C26 7925   1.223   4.996  10.000 -0.5484 -0.1902 -0.1560
   84SAPS   H6R 7926   1.256   5.073   9.928 -2.0267  2.4693  1.8324
   84SAPS   C27 7927   1.137   4.886   9.942  0.9209  0.4933 -0.5187
   84SAPS   H7R 7928   1.042   4.935   9.912  0.5751  2.2720  2.9259
   84SAPS   H7S 7929   1.111   4.810  10.019  2.9252  0.4108  0.1215
   84SAPS   C28 7930   1.207   4.820   9.831 -0.7930 -0.1207 -0.3526
   84SAPS   H8R 7931   1.317   4.815   9.832 -0.7975 -0.2555 -0.5597
   84SAPS   C29 7932   1.147   4.774   9.722 -0.5097 -0.6233 -0.2205
   84SAPS   H9R 7933   1.216   4.726   9.651 -1.2939  0.3524 -1.7055
   84SAPS  C210 7934   1.007   4.757   9.696 -0.1641 -0.1521  0.4092
   84SAPS  H10R 7935   0.962   4.847   9.649 -0.4287 -1.9623 -3.1569
   84SAPS  H10S 7936   0.946   4.751   9.789 -0.2686 -3.0097  0.2550
   84SAPS  C211 7937   0.972   4.623   9.627  0.5735  0.0963 -0.6553
   84SAPS  H11R 7938   0.995   4.539   9.694  1.2274  1.6802  1.2014
   84SAPS  C212 7939   0.944   4.616   9.494  0.5566 -0.2387  0.5738
   84SAPS  H12R 7940   0.929   4.518   9.447 -0.7634  0.6511 -0.9623
   84SAPS  C213 7941   0.948   4.734   9.390 -0.2533  0.0652 -0.5016
   84SAPS  H13R 7942   1.034   4.711   9.325 -1.3272 -1.7056 -1.3783
   84SAPS  H13S 7943   0.960   4.833   9.438  2.9962  0.2565 -1.4725
   84SAPS  C214 7944   0.824   4.732   9.315 -0.3394 -0.1527  0.5104
   84SAPS  H14R 7945   0.737   4.707   9.378  0.1570 -0.8406  0.9446
   84SAPS  C215 7946   0.806   4.758   9.181 -0.1028 -0.0000 -0.4259
   84SAPS  H15R 7947   0.709   4.738   9.134  0.0536  1.4942 -1.4389
   84SAPS  C216 7948   0.923   4.796   9.095  0.0535  0.1280  0.2345
   84SAPS  H16R 7949   1.013   4.838   9.146 -1.5829 -0.5027  3.9027
   84SAPS  H16S 7950   0.908   4.875   9.018 -1.2913 -2.0687 -1.8975
   84SAPS  C217 7951   0.976   4.678   9.017  0.2452  1.0241 -0.2196
   84SAPS  H17R 7952   0.894   4.652   8.948  1.3184 -3.0225 -0.2002
   84SAPS  H17S 7953   0.994   4.590   9.082  4.2749  0.8525 -1.2575
   84SAPS  C218 7954   1.099   4.700   8.930 -0.6316  0.0300  0.0372
   84SAPS  H18R 7955   1.180   4.737   8.995 -1.4352  0.1063  1.0184
   84SAPS  H18S 7956   1.071   4.786   8.866 -1.2267 -0.9147 -0.9991
   84SAPS  C219 7957   1.139   4.577   8.846  0.4217  0.0100 -0.0435
   84SAPS  H19R 7958   1.075   4.553   8.758  2.2087  0.0853 -1.4007
   84SAPS  H19S 7959   1.135   4.489   8.914  0.8446 -0.0073 -0.0435
   84SAPS  C220 7960   1.285   4.587   8.783 -0.2529 -0.3518  0.3572
   84SAPS  H20R 7961   1.272   4.640   8.686 -1.5523 -2.2027 -0.5422
   84SAPS  H20S 7962   1.324   4.484   8.775 -0.2636 -0.2696 -0.8347
   84SAPS  H20T 7963   1.355   4.645   8.848  2.4395 -1.6067 -1.2733
   84SAPS   C33 7964   1.486   4.559  10.520 -0.6041 -0.1009 -0.1790
   84SAPS   H3X 7965   1.508   4.667  10.533 -0.6512 -0.0406 -0.5750
   84SAPS   H3Y 7966   1.376   4.552  10.503 -0.6673  1.6813 -0.7530
   84SAPS   C34 7967   1.545   4.506  10.390 -0.1271  1.3259  0.1000
   84SAPS   H4X 7968   1.508   4.404  10.365 -0.4804  0.8142  2.4536
   84SAPS   H4Y 7969   1.652   4.489  10.413 -0.6403 -0.6317  1.2263
   84SAPS   C35 7970   1.525   4.588  10.260 -0.1411 -0.4020 -0.5400
   84SAPS   H5X 7971   1.605   4.666  10.258 -0.1550 -0.3929 -0.8227
   84SAPS   H5Y 7972   1.425   4.636  10.255  0.5463  0.9706 -2.8645
   84SAPS   C36 7973   1.547   4.500  10.139  0.0725  0.6208  0.0420
   84SAPS   H6X 7974   1.476   4.415  10.133  0.9316 -0.3105  2.0590
   84SAPS   H6Y 7975   1.650   4.460  10.153 -0.6349 -1.1798  0.3706
   84SAPS   C37 7976   1.557   4.584  10.010  0.1111  0.0994 -0.1635
   84SAPS   H7X 7977   1.631   4.666  10.023  0.0558  0.3175 -1.1613
   84SAPS   H7Y 7978   1.462   4.631   9.977  0.0159  0.7119  0.9246
   84SAPS   C38 7979   1.595   4.486   9.898  0.4800 -0.0467  0.6589
   84SAPS   H8X 7980   1.518   4.409   9.883 -0.4552  1.2800 -2.1885
   84SAPS   H8Y 7981   1.686   4.435   9.937  2.2973  3.7141  1.9332
   84SAPS   C39 7982   1.618   4.562   9.769 -0.2463  0.4013 -0.0012
   84SAPS   H9X 7983   1.715   4.616   9.780  1.2416 -1.8899 -1.1574
   84SAPS   H9Y 7984   1.546   4.642   9.742  0.0550  1.0411  0.9956
   84SAPS  C310 7985   1.649   4.457   9.658 -0.0086 -0.5067 -0.1728
   84SAPS  H10X 7986   1.564   4.388   9.640 -0.3351 -0.1939  0.1485
   84SAPS  H10Y 7987   1.721   4.384   9.700  1.1301  1.0899  0.7396
   84SAPS  C311 7988   1.705   4.515   9.533 -0.0130  0.0068  0.4316
   84SAPS  H11X 7989   1.807   4.555   9.552 -0.2601  0.3299  1.1307
   84SAPS  H11Y 7990   1.641   4.600   9.499 -0.1660 -0.5701 -0.7890
   84SAPS  C312 7991   1.698   4.414   9.418 -0.3985  0.5524  0.2623
   84SAPS  H12X 7992   1.589   4.402   9.396 -1.6329  3.2009  3.9096
   84SAPS  H12Y 7993   1.728   4.314   9.456  1.7195  0.7163 -0.8334
   84SAPS  C313 7994   1.767   4.457   9.286 -0.3100  0.4945  0.0301
   84SAPS  H13X 7995   1.832   4.374   9.251 -0.8760  0.5723 -1.2717
   84SAPS  H13Y 7996   1.828   4.540   9.329 -1.0410  0.2214  1.6671
   84SAPS  C314 7997   1.679   4.507   9.171  0.5715  0.3038 -0.2712
   84SAPS  H14X 7998   1.647   4.609   9.199  0.6360  0.0831  0.6717
   84SAPS  H14Y 7999   1.591   4.442   9.154  1.3215 -1.9184  3.2060
   84SAPS  C315 8000   1.758   4.528   9.042  0.4952 -0.3487 -0.7519
   84SAPS  H15X 8001   1.785   4.432   8.993 -0.0397  0.0295 -1.8062
   84SAPS  H15Y 8002   1.857   4.572   9.065 -0.4868  0.9205  1.4684
   84SAPS  C316 8003   1.680   4.613   8.932  1.0487  0.0883 -0.2488
   84SAPS  H16X 8004   1.580   4.566   8.935  0.9642  0.2627 -0.2948
   84SAPS  H16Y 8005   1.725   4.594   8.832 -0.5123 -1.5891 -0.6875
   84SAPS  C317 8006   1.667   4.764   8.956  0.4965  0.3261 -0.2006
   84SAPS  H17X 8007   1.652   4.775   9.065  3.2677 -1.6066  0.4839
   84SAPS  H17Y 8008   1.581   4.807   8.900 -0.8788 -3.0460 -0.9575
   84SAPS  C318 8009   1.793   4.844   8.924 -0.7596  0.3056  0.4736
   84SAPS  H18X 8010   1.785   4.955   8.926  0.1209  0.4104  3.9455
   84SAPS  H18Y 8011   1.831   4.810   8.825  0.3429 -2.0422  1.6353
   84SAPS  H18Z 8012   1.871   4.816   8.998 -0.3521  0.3779  0.0816
   85SAPS     N 8013   3.666   0.617  11.328  0.6488 -0.3893 -0.2738
   85SAPS   HN1 8014   3.638   0.696  11.265 -0.3606  0.5096  1.2473
   85SAPS   HN2 8015   3.767   0.635  11.337  0.4031  0.8133  0.2345
   85SAPS   HN3 8016   3.642   0.525  11.285  0.2604 -1.3170  1.8398
   85SAPS   C12 8017   3.586   0.621  11.456 -0.6542  0.3162  0.4744
   85SAPS  H12A 8018   3.631   0.553  11.527  0.8035  2.3494  1.6170
   85SAPS   C13 8019   3.597   0.765  11.511  0.2946 -0.9111 -0.8856
   85SAPS  O13A 8020   3.665   0.853  11.454 -0.0252 -0.5249 -0.0599
   85SAPS  O13B 8021   3.544   0.789  11.622  0.5592  0.1338  0.2301
   85SAPS   C11 8022   3.444   0.579  11.414  0.3452 -0.9916 -0.5428
   85SAPS  H11A 8023   3.404   0.643  11.332 -2.0943 -0.5918  0.8665
   85SAPS  H11B 8024   3.380   0.599  11.503  1.4597  2.8738 -0.4146
   85SAPS     P 8025   3.313   0.384  11.295  0.0981 -0.3756  0.0201
   85SAPS   O13 8026   3.324   0.235  11.287  0.5147 -0.0150 -0.8134
   85SAPS   O14 8027   3.197   0.448  11.364  0.2109  0.4691 -0.5403
   85SAPS   O12 8028   3.440   0.438  11.372  0.4260 -0.3957 -0.3260
   85SAPS   O11 8029   3.338   0.454  11.157 -0.1262  0.7544 -0.3344
   85SAPS    C1 8030   3.426   0.382  11.064  0.0106  0.2459  0.5894
   85SAPS    HA 8031   3.506   0.319  11.109  0.8376  0.2804 -0.7900
   85SAPS    HB 8032   3.364   0.333  10.986 -0.0833  2.5584 -0.8651
   85SAPS    C2 8033   3.521   0.480  10.981 -0.0729 -0.0930  0.0793
   85SAPS    HS 8034   3.590   0.521  11.058  0.7549 -1.7281  0.2579
   85SAPS   O21 8035   3.440   0.573  10.908 -0.4531 -0.0876 -0.5434
   85SAPS   C21 8036   3.506   0.668  10.854  0.0767  0.0295 -0.0327
   85SAPS   O22 8037   3.626   0.694  10.863  0.4205  0.1289  0.2873
   85SAPS   C22 8038   3.403   0.751  10.773  0.1621  0.2804  0.0335
   85SAPS   H2R 8039   3.317   0.765  10.842 -0.4160 -1.3250 -0.3297
   85SAPS   H2S 8040   3.444   0.853  10.759 -2.9741  1.8209  0.9834
   85SAPS    C3 8041   3.602   0.392  10.880  0.0708 -0.5134 -0.5350
   85SAPS    HX 8042   3.664   0.312  10.926  0.8695 -1.6665 -3.4146
   85SAPS    HY 8043   3.669   0.471  10.839 -1.7387  1.8143  0.7285
   85SAPS   O31 8044   3.525   0.330  10.778  0.0914 -0.0895 -0.2267
   85SAPS   C31 8045   3.583   0.238  10.701 -0.7308  0.3891 -0.1934
   85SAPS   O32 8046   3.686   0.181  10.732 -0.3598  0.3772 -0.1074
   85SAPS   C32 8047   3.517   0.228  10.567  0.5782 -0.1659  0.5820
   85SAPS   H2X 8048   3.567   0.315  10.519 -0.2331 -0.0948 -0.1675
   85SAPS   H2Y 8049   3.410   0.254  10.585 -0.0224 -2.6908  0.9910
   85SAPS   C23 8050   3.366   0.673  10.652  0.2114  0.3389  0.7413
   85SAPS   H3R 8051   3.271   0.710  10.607  0.6711  1.2234  0.4818
   85SAPS   H3S 8052   3.346   0.565  10.668  0.4710  0.2113  0.2224
   85SAPS   C24 8053   3.481   0.671  10.544 -0.1712  0.5556 -0.3227
   85SAPS   H4R 8054   3.568   0.622  10.592  0.6059  2.1213 -0.0506
   85SAPS   H4S 8055   3.504   0.777  10.521 -1.0686  0.4214 -1.9782
   85SAPS   C25 8056   3.451   0.597  10.421 -0.3380  0.3035  0.5599
   85SAPS   H5R 8057   3.427   0.494  10.450  0.6418 -1.0001 -2.8556
   85SAPS   C26 8058   3.464   0.646  10.296 -0.6092  1.0388  0.6072
   85SAPS   H6R 8059   3.427   0.583  10.213  0.6164  0.9255  0.1140
   85SAPS   C27 8060   3.519   0.776  10.245 -0.0766  0.1724 -0.5115
   85SAPS   H7R 8061   3.574   0.745  10.153  2.0248  1.9680  0.0640
   85SAPS   H7S 8062   3.593   0.816  10.317 -0.5842  3.3000 -1.5625
   85SAPS   C28 8063   3.414   0.885  10.213 -0.5019  0.3830 -0.3298
   85SAPS   H8R 8064   3.384   0.934  10.307  2.7247 -1.5659  1.9340
   85SAPS   C29 8065   3.367   0.920  10.092  0.2212  0.5426 -0.4648
   85SAPS   H9R 8066   3.303   1.009  10.097  1.1015  1.1322  1.4153
   85SAPS  C210 8067   3.414   0.865   9.957  0.1938 -0.7202 -0.2204
   85SAPS  H10R 8068   3.523   0.884   9.949  0.4073 -1.7774 -0.0083
   85SAPS  H10S 8069   3.356   0.918   9.879 -2.3263  1.0047  2.5996
   85SAPS  C211 8070   3.393   0.714   9.948 -0.2401 -0.8877  0.0026
   85SAPS  H11R 8071   3.293   0.689   9.986  0.0169  0.6984  1.8317
   85SAPS  C212 8072   3.474   0.615   9.895 -0.0018  0.3749 -0.1891
   85SAPS  H12R 8073   3.435   0.513   9.901 -2.1121  1.1933  1.3656
   85SAPS  C213 8074   3.608   0.642   9.832  0.1065 -0.0996  0.4562
   85SAPS  H13R 8075   3.647   0.745   9.847  1.1057 -0.4149  0.1246
   85SAPS  H13S 8076   3.600   0.629   9.722 -1.3558 -1.5475  0.7006
   85SAPS  C214 8077   3.709   0.542   9.878 -0.2711  0.5099  0.1227
   85SAPS  H14R 8078   3.791   0.572   9.945  0.7919  1.9963 -1.7152
   85SAPS  C215 8079   3.727   0.415   9.823 -0.2720 -0.4284  0.0154
   85SAPS  H15R 8080   3.810   0.353   9.860 -0.2438 -0.8006 -0.6662
   85SAPS  C216 8081   3.638   0.351   9.716 -0.4302  0.8961 -0.3841
   85SAPS  H16R 8082   3.602   0.424   9.641 -1.6162 -0.2698 -0.9952
   85SAPS  H16S 8083   3.550   0.298   9.758  0.0100  1.3526  1.1799
   85SAPS  C217 8084   3.714   0.246   9.637 -0.2861  0.2526  0.2498
   85SAPS  H17R 8085   3.795   0.299   9.581 -1.1836  0.8062 -0.5564
   85SAPS  H17S 8086   3.650   0.223   9.549  0.2899 -1.1127  0.1578
   85SAPS  C218 8087   3.769   0.129   9.715  0.3406 -0.3114  0.4300
   85SAPS  H18R 8088   3.682   0.077   9.761  0.4327  0.0063  0.9658
   85SAPS  H18S 8089   3.837   0.162   9.796  1.8959 -1.0541 -0.5243
   85SAPS  C219 8090   3.851   0.032   9.632  0.3680 -0.4234 -0.0776
   85SAPS  H19R 8091   3.913   0.083   9.554 -0.6316  0.8427 -0.0841
   85SAPS  H19S 8092   3.791  -0.042   9.575  0.3148 -2.6668  2.6820
   85SAPS  C220 8093   3.937  -0.045   9.726  0.1444 -0.2867 -0.0410
   85SAPS  H20R 8094   3.961  -0.136   9.666 -1.3100  0.0173 -1.1641
   85SAPS  H20S 8095   3.900  -0.102   9.815  3.3229 -0.1565  1.4737
   85SAPS  H20T 8096   4.029   0.006   9.758  0.6890 -1.4528  0.3134
   85SAPS   C33 8097   3.550   0.098  10.486 -0.3707  0.1082  0.4215
   85SAPS   H3X 8098   3.521   0.004  10.536 -0.0652 -1.3506 -1.9745
   85SAPS   H3Y 8099   3.658   0.085  10.463 -0.2624 -0.1607  1.0649
   85SAPS   C34 8100   3.468   0.087  10.359  0.3974 -0.5198  0.2321
   85SAPS   H4X 8101   3.472   0.186  10.309 -3.6304 -1.0060 -1.4830
   85SAPS   H4Y 8102   3.360   0.076  10.387  0.2277 -0.9479 -0.5616
   85SAPS   C35 8103   3.505  -0.031  10.273 -0.0243 -0.1533  0.2664
   85SAPS   H5X 8104   3.519  -0.126  10.330 -2.2418 -1.2675 -0.9319
   85SAPS   H5Y 8105   3.608  -0.021  10.233 -0.0982 -0.5454 -0.0168
   85SAPS   C36 8106   3.409  -0.057  10.156  0.0590  0.1669 -0.1256
   85SAPS   H6X 8107   3.399   0.036  10.097 -2.1214 -1.8521 -3.2163
   85SAPS   H6Y 8108   3.307  -0.080  10.193  0.8865 -0.9477  1.6141
   85SAPS   C37 8109   3.465  -0.163  10.060  0.2167  0.6872 -0.5814
   85SAPS   H7X 8110   3.460  -0.258  10.119 -1.0680  0.8092 -0.4533
   85SAPS   H7Y 8111   3.571  -0.132  10.047 -0.2321  2.0366 -1.1712
   85SAPS   C38 8112   3.383  -0.177   9.933  0.4987 -0.3992  1.1375
   85SAPS   H8X 8113   3.372  -0.078   9.883  0.8923 -0.0232  1.7891
   85SAPS   H8Y 8114   3.282  -0.206   9.968  1.4627 -3.5015  1.7245
   85SAPS   C39 8115   3.440  -0.274   9.831 -0.3834 -0.1850  0.6452
   85SAPS   H9X 8116   3.415  -0.379   9.856  1.8096 -0.4165  2.2384
   85SAPS   H9Y 8117   3.551  -0.266   9.842 -0.2911  1.0581 -0.8282
   85SAPS  C310 8118   3.406  -0.249   9.683  0.1810  0.4482 -0.6804
   85SAPS  H10X 8119   3.296  -0.234   9.675  0.1453 -0.1724 -1.5446
   85SAPS  H10Y 8120   3.435  -0.344   9.633  1.6351  0.4175  0.1927
   85SAPS  C311 8121   3.485  -0.126   9.629  1.2233  0.4255 -0.6042
   85SAPS  H11X 8122   3.594  -0.138   9.649  1.0304 -0.2012  0.1250
   85SAPS  H11Y 8123   3.457  -0.035   9.687 -0.7430  0.9933 -2.3433
   85SAPS  C312 8124   3.464  -0.114   9.479  0.3797  0.3430 -1.3647
   85SAPS  H12X 8125   3.355  -0.103   9.461  0.5950  4.1576 -1.2587
   85SAPS  H12Y 8126   3.507  -0.205   9.431  0.0429  0.3249 -1.6304
   85SAPS  C313 8127   3.525   0.016   9.421  0.0586  0.5705 -0.2104
   85SAPS  H13X 8128   3.627   0.035   9.459  0.2362  2.1927 -1.4085
   85SAPS  H13Y 8129   3.464   0.105   9.448 -0.9325 -0.0487 -0.3273
   85SAPS  C314 8130   3.541  -0.005   9.272 -0.0222  0.1341 -0.1426
   85SAPS  H14X 8131   3.439  -0.016   9.230 -1.2321 -0.3477  2.6659
   85SAPS  H14Y 8132   3.593  -0.102   9.261 -1.1971 -0.5542  0.1882
   85SAPS  C315 8133   3.600   0.115   9.185  0.6219 -0.1412  0.3414
   85SAPS  H15X 8134   3.511   0.174   9.154  1.2070  1.8007  2.0896
   85SAPS  H15Y 8135   3.643   0.076   9.090  0.0380  2.0275 -0.8643
   85SAPS  C316 8136   3.702   0.207   9.257 -0.4223 -0.4968  0.0424
   85SAPS  H16X 8137   3.782   0.160   9.318  1.7986  1.5853 -1.1058
   85SAPS  H16Y 8138   3.643   0.269   9.328  0.9527  0.5704  0.2974
   85SAPS  C317 8139   3.773   0.293   9.151 -0.1339  0.3969  0.2541
   85SAPS  H17X 8140   3.824   0.233   9.073 -0.4676 -3.0973  2.4698
   85SAPS  H17Y 8141   3.853   0.353   9.200 -0.5383  0.8157  0.4125
   85SAPS  C318 8142   3.676   0.397   9.086  0.2437  0.2962  0.6591
   85SAPS  H18X 8143   3.732   0.446   9.004 -0.4142 -0.9043 -0.5474
   85SAPS  H18Y 8144   3.641   0.468   9.163  0.0984 -0.3230  1.1757
   85SAPS  H18Z 8145   3.592   0.343   9.037  0.6810 -1.5600  1.8555
   86SAPS     N 8146   5.612   5.019  11.393  0.2776 -0.2901  0.0349
   86SAPS   HN1 8147   5.559   5.106  11.413  0.1690 -0.5538  0.9208
   86SAPS   HN2 8148   5.643   5.018  11.293  1.3521 -0.8392  0.3514
   86SAPS   HN3 8149   5.547   4.940  11.411  0.8280 -0.6572  0.4778
   86SAPS   C12 8150   5.727   5.028  11.480  0.3347  0.6267  0.8701
   86SAPS  H12A 8151   5.753   5.132  11.477 -0.5958  0.8550 -0.0099
   86SAPS   C13 8152   5.698   5.000  11.634  0.4053 -0.0494 -0.0492
   86SAPS  O13A 8153   5.581   4.964  11.660 -0.0367  0.0189  0.2768
   86SAPS  O13B 8154   5.778   5.025  11.730 -0.3415 -0.2446 -0.6563
   86SAPS   C11 8155   5.838   4.925  11.432 -0.6181  0.0712  0.2138
   86SAPS  H11A 8156   5.794   4.824  11.416 -0.4135  0.0252 -0.0694
   86SAPS  H11B 8157   5.919   4.904  11.505  0.1949 -2.4952 -1.2891
   86SAPS     P 8158   6.004   5.079  11.304  0.0055  0.2018 -0.3702
   86SAPS   O13 8159   6.057   5.109  11.441  0.6817 -0.3501  0.4916
   86SAPS   O14 8160   6.104   5.039  11.207 -0.4514 -0.9230  0.1281
   86SAPS   O12 8161   5.905   4.959  11.316 -0.3024 -0.3158 -0.2436
   86SAPS   O11 8162   5.921   5.207  11.253 -0.0331  0.8983  0.3494
   86SAPS    C1 8163   5.909   5.232  11.110  0.8057  0.5915 -1.0703
   86SAPS    HA 8164   5.905   5.343  11.110 -3.4125  0.6204 -0.0642
   86SAPS    HB 8165   5.997   5.196  11.053 -1.5318 -2.1478 -3.2732
   86SAPS    C2 8166   5.788   5.159  11.044  0.2502 -0.1087 -0.2411
   86SAPS    HS 8167   5.703   5.163  11.116  0.0417  0.7815 -0.5258
   86SAPS   O21 8168   5.822   5.022  11.018 -0.1107  0.4426 -0.3575
   86SAPS   C21 8169   5.739   4.927  11.058  0.0720 -0.5202  0.5360
   86SAPS   O22 8170   5.634   4.942  11.120  0.1420 -0.8863 -0.3464
   86SAPS   C22 8171   5.799   4.792  11.042  0.0373  0.5726 -0.4433
   86SAPS   H2R 8172   5.877   4.793  10.962  0.3134 -2.0678 -0.3152
   86SAPS   H2S 8173   5.844   4.773  11.141  0.8220  1.3710 -0.6390
   86SAPS    C3 8174   5.758   5.228  10.910 -0.2109  0.4580  0.9245
   86SAPS    HX 8175   5.830   5.182  10.838  0.6541  1.8800  0.8493
   86SAPS    HY 8176   5.790   5.334  10.912  3.2255 -0.4501  0.2735
   86SAPS   O31 8177   5.621   5.215  10.870  0.5069  0.9076  0.2070
   86SAPS   C31 8178   5.538   5.303  10.932 -0.0191 -0.2422  0.3088
   86SAPS   O32 8179   5.578   5.372  11.022  0.3341 -0.5207 -0.5729
   86SAPS   C32 8180   5.405   5.315  10.869 -0.2517  0.2184 -0.8050
   86SAPS   H2X 8181   5.366   5.419  10.873 -1.8438 -0.3815  1.9075
   86SAPS   H2Y 8182   5.326   5.270  10.933 -0.4076 -0.7543 -1.6573
   86SAPS   C23 8183   5.694   4.683  11.001 -0.0845 -0.6114 -0.0018
   86SAPS   H3R 8184   5.601   4.690  11.061  0.5318  2.4583  0.7878
   86SAPS   H3S 8185   5.742   4.588  11.030  0.9144 -0.1601 -0.1261
   86SAPS   C24 8186   5.665   4.695  10.848  0.3744  0.0969  0.0273
   86SAPS   H4R 8187   5.587   4.618  10.832  1.8039 -1.2138 -0.8262
   86SAPS   H4S 8188   5.754   4.666  10.789  0.3578  0.6619 -0.2856
   86SAPS   C25 8189   5.602   4.827  10.807 -0.3244 -0.4097  0.2148
   86SAPS   H5R 8190   5.523   4.871  10.869 -0.0167  3.0878 -1.6013
   86SAPS   C26 8191   5.628   4.897  10.692  0.2947  0.2963 -0.3798
   86SAPS   H6R 8192   5.586   4.999  10.691 -0.3636  0.0488  0.5835
   86SAPS   C27 8193   5.729   4.870  10.588 -0.5295 -0.5683  0.2388
   86SAPS   H7R 8194   5.697   4.893  10.485  1.0821 -0.3341 -0.2470
   86SAPS   H7S 8195   5.755   4.762  10.585  0.1803 -0.4045  0.2251
   86SAPS   C28 8196   5.853   4.951  10.619  0.8973  0.0929  0.0965
   86SAPS   H8R 8197   5.886   4.948  10.724  2.5174 -2.0438 -0.4021
   86SAPS   C29 8198   5.937   5.011  10.528  0.7103  0.1503 -0.5885
   86SAPS   H9R 8199   6.011   5.076  10.576  2.3262 -2.3183  0.4919
   86SAPS  C210 8200   5.933   5.028  10.377  0.0988  0.4643 -0.6596
   86SAPS  H10R 8201   5.964   5.134  10.365  2.0394  0.0708  0.2944
   86SAPS  H10S 8202   5.831   5.012  10.338 -0.7913  0.2667  1.5874
   86SAPS  C211 8203   6.026   4.936  10.318  0.0864  0.4769 -0.0444
   86SAPS  H11R 8204   6.037   4.830  10.345  1.3971 -0.0462 -2.3863
   86SAPS  C212 8205   6.100   4.965  10.204  0.5765  0.3217 -0.4244
   86SAPS  H12R 8206   6.167   4.890  10.160 -1.5722 -0.8718 -1.8841
   86SAPS  C213 8207   6.094   5.100  10.133  0.2069  0.6604  0.1064
   86SAPS  H13R 8208   6.144   5.179  10.194  0.5254  1.0117 -0.5997
   86SAPS  H13S 8209   5.988   5.129  10.121 -1.0748 -3.0696  1.2089
   86SAPS  C214 8210   6.158   5.100   9.997  0.1468 -0.7802 -0.0511
   86SAPS  H14R 8211   6.087   5.092   9.913 -0.5906 -0.9656  0.5741
   86SAPS  C215 8212   6.288   5.085   9.975  0.4848 -0.0376 -0.7358
   86SAPS  H15R 8213   6.337   5.083   9.877  2.6794 -0.5232  0.2903
   86SAPS  C216 8214   6.395   5.097  10.081  0.5084  0.4344 -0.0166
   86SAPS  H16R 8215   6.464   5.009  10.081 -1.7450 -1.4541 -0.3874
   86SAPS  H16S 8216   6.348   5.096  10.182  0.3435  0.1602 -0.0955
   86SAPS  C217 8217   6.472   5.231  10.071  0.4188  0.2269 -0.1995
   86SAPS  H17R 8218   6.403   5.318  10.074 -1.0141 -0.8759  0.1828
   86SAPS  H17S 8219   6.515   5.239   9.969 -0.8406  1.4681 -0.6704
   86SAPS  C218 8220   6.581   5.237  10.172 -1.3224  0.0463  0.4472
   86SAPS  H18R 8221   6.672   5.296  10.149 -0.9023  0.5842  3.1083
   86SAPS  H18S 8222   6.637   5.143  10.189 -1.0731  0.3684  1.4937
   86SAPS  C219 8223   6.526   5.269  10.313 -0.0730 -0.0738  0.2437
   86SAPS  H19R 8224   6.447   5.199  10.348 -0.2704 -0.3726 -0.7872
   86SAPS  H19S 8225   6.482   5.371  10.309 -0.2659 -0.0895  1.4813
   86SAPS  C220 8226   6.648   5.271  10.407  0.0081 -0.7931  0.4418
   86SAPS  H20R 8227   6.724   5.347  10.377  1.5872 -1.5439  2.3711
   86SAPS  H20S 8228   6.699   5.173  10.407  0.3420 -0.6228  0.0350
   86SAPS  H20T 8229   6.613   5.303  10.508  0.8810 -0.2326  0.5755
   86SAPS   C33 8230   5.398   5.266  10.720  0.4052 -0.0134  0.0500
   86SAPS   H3X 8231   5.288   5.271  10.707  0.3550 -0.5828  0.2314
   86SAPS   H3Y 8232   5.414   5.158  10.702 -0.7822 -0.2233  0.1847
   86SAPS   C34 8233   5.471   5.361  10.624  0.0685 -0.1945  0.2819
   86SAPS   H4X 8234   5.564   5.394  10.674  0.1795  0.1906 -0.1676
   86SAPS   H4Y 8235   5.405   5.450  10.614  1.2501  0.6447 -0.1695
   86SAPS   C35 8236   5.481   5.292  10.483 -0.0441  0.2215  0.4435
   86SAPS   H5X 8237   5.554   5.209  10.493 -2.2420 -1.7703  0.8294
   86SAPS   H5Y 8238   5.535   5.359  10.412  1.8248 -0.7534  0.8773
   86SAPS   C36 8239   5.348   5.250  10.419  0.0234  0.9713 -0.5022
   86SAPS   H6X 8240   5.283   5.340  10.432 -3.2044 -1.3164  0.6439
   86SAPS   H6Y 8241   5.301   5.162  10.467  1.3418 -0.8118 -2.3253
   86SAPS   C37 8242   5.353   5.220  10.266 -0.3152 -0.6367  0.3127
   86SAPS   H7X 8243   5.399   5.312  10.224 -0.4109 -0.0218  1.5138
   86SAPS   H7Y 8244   5.252   5.206  10.222  0.1985  1.7029 -1.8155
   86SAPS   C38 8245   5.438   5.104  10.210 -0.0147 -0.4189  0.9364
   86SAPS   H8X 8246   5.405   5.011  10.261 -3.0782  0.7718  1.3220
   86SAPS   H8Y 8247   5.544   5.117  10.240  0.7391  0.7184 -1.9484
   86SAPS   C39 8248   5.446   5.082  10.058 -1.0781 -0.0350 -0.4326
   86SAPS   H9X 8249   5.507   5.169  10.027 -0.2884 -1.0049 -1.7302
   86SAPS   H9Y 8250   5.339   5.072  10.030 -1.3665  0.2588  0.5257
   86SAPS  C310 8251   5.518   4.948  10.018 -0.3736  0.0238 -0.3577
   86SAPS  H10X 8252   5.453   4.864  10.052  2.4927 -1.8478  0.8572
   86SAPS  H10Y 8253   5.618   4.945  10.065 -1.6159 -1.9267  2.5089
   86SAPS  C311 8254   5.521   4.941   9.868 -0.3362 -0.5170  0.4272
   86SAPS  H11X 8255   5.415   4.931   9.839 -0.3574  0.2876  0.1896
   86SAPS  H11Y 8256   5.576   4.852   9.830  1.4842  1.2399 -1.3704
   86SAPS  C312 8257   5.590   5.062   9.789 -0.5447 -0.6207 -0.3257
   86SAPS  H12X 8258   5.683   5.087   9.843 -1.2064 -1.6277  1.3532
   86SAPS  H12Y 8259   5.523   5.150   9.801 -0.7105 -0.9107  1.1051
   86SAPS  C313 8260   5.612   5.024   9.640  0.0618 -0.5099 -0.7622
   86SAPS  H13X 8261   5.515   5.003   9.590 -0.7988  1.1947  0.1143
   86SAPS  H13Y 8262   5.677   4.934   9.641  2.6391  1.2435  0.9529
   86SAPS  C314 8263   5.668   5.136   9.552 -0.3913  0.5032 -0.7219
   86SAPS  H14X 8264   5.725   5.204   9.620  0.2548 -1.5988  0.9343
   86SAPS  H14Y 8265   5.586   5.193   9.505 -0.7678 -1.0006 -1.9577
   86SAPS  C315 8266   5.757   5.073   9.434  0.4486  0.0018  0.1351
   86SAPS  H15X 8267   5.799   5.159   9.377 -1.7684  2.3377  1.7759
   86SAPS  H15Y 8268   5.697   5.006   9.368  1.2310  0.9570 -1.6230
   86SAPS  C316 8269   5.877   4.984   9.473 -0.2223  0.1247 -0.5248
   86SAPS  H16X 8270   5.833   4.883   9.486 -0.8052  0.3152 -0.9601
   86SAPS  H16Y 8271   5.918   5.024   9.569 -0.3162  1.9962 -1.2315
   86SAPS  C317 8272   5.982   4.971   9.360 -0.3307  0.2553  0.9366
   86SAPS  H17X 8273   6.021   5.073   9.338 -3.2375  1.5620  1.3450
   86SAPS  H17Y 8274   5.938   4.933   9.265 -1.5307 -0.8037  1.8840
   86SAPS  C318 8275   6.099   4.877   9.392  0.2986 -0.3358 -0.9974
   86SAPS  H18X 8276   6.175   4.876   9.310  2.8485  1.5801  1.1432
   86SAPS  H18Y 8277   6.075   4.773   9.423 -1.4216  0.5710  0.9678
   86SAPS  H18Z 8278   6.152   4.920   9.480 -0.5766 -0.1966 -0.5354
   87SAPS     N 8279   5.394   6.190  11.418  0.4774 -0.1918 -0.3464
   87SAPS   HN1 8280   5.437   6.270  11.369  0.0856  1.9926  2.5970
   87SAPS   HN2 8281   5.298   6.161  11.389  0.2206 -0.8325  1.0628
   87SAPS   HN3 8282   5.398   6.201  11.522  0.2443  0.4410 -0.4013
   87SAPS   C12 8283   5.484   6.073  11.395  0.3910 -0.8206  0.1122
   87SAPS  H12A 8284   5.564   6.117  11.337  0.3089  1.1377  1.3823
   87SAPS   C13 8285   5.543   6.023  11.525  1.3208  1.0455 -0.0298
   87SAPS  O13A 8286   5.508   6.070  11.635 -0.5586 -0.0883 -0.1725
   87SAPS  O13B 8287   5.637   5.941  11.519  0.4883  0.8485 -0.3862
   87SAPS   C11 8288   5.403   5.973  11.306  0.2122  0.4541 -0.6172
   87SAPS  H11A 8289   5.473   5.887  11.292  2.4238  1.6793  1.8880
   87SAPS  H11B 8290   5.372   6.021  11.211 -1.0778  2.7540  0.8585
   87SAPS     P 8291   5.136   5.963  11.356  0.1504  0.2724  0.6302
   87SAPS   O13 8292   5.060   5.857  11.422  0.6694 -0.3532  0.3719
   87SAPS   O14 8293   5.130   6.104  11.389 -0.1936  0.0419 -0.0953
   87SAPS   O12 8294   5.289   5.908  11.361 -0.0914  0.2753  0.2949
   87SAPS   O11 8295   5.111   5.950  11.201 -0.1676 -0.0460  0.2810
   87SAPS    C1 8296   5.097   5.819  11.144 -0.8903 -0.2228  0.2874
   87SAPS    HA 8297   5.050   5.739  11.205 -0.7292  0.0678  0.7956
   87SAPS    HB 8298   5.038   5.835  11.051  0.0878  1.6804 -0.0575
   87SAPS    C2 8299   5.236   5.762  11.087  0.4591 -0.2375 -0.3060
   87SAPS    HS 8300   5.296   5.740  11.178 -0.3027  0.1040  0.2887
   87SAPS   O21 8301   5.300   5.857  10.997 -0.0976  0.4502  0.4203
   87SAPS   C21 8302   5.426   5.834  10.977  0.6068  0.4348 -0.3811
   87SAPS   O22 8303   5.498   5.766  11.050 -0.4833 -0.3111 -0.3915
   87SAPS   C22 8304   5.458   5.905  10.852 -0.4841 -0.6363 -0.5063
   87SAPS   H2R 8305   5.388   5.879  10.770  0.3066  0.4160 -1.5355
   87SAPS   H2S 8306   5.457   6.014  10.869  2.7792 -0.7782  1.5517
   87SAPS    C3 8307   5.198   5.630  11.014  0.0847  0.0816 -0.0856
   87SAPS    HX 8308   5.171   5.556  11.092  0.5776  0.3795  0.3693
   87SAPS    HY 8309   5.289   5.585  10.969  1.0821  0.2878  1.6657
   87SAPS   O31 8310   5.084   5.648  10.916  0.4709 -0.4416 -0.1769
   87SAPS   C31 8311   5.128   5.648  10.791 -0.2461  0.0981  0.0045
   87SAPS   O32 8312   5.244   5.630  10.753  0.5155 -0.3995 -0.3069
   87SAPS   C32 8313   5.014   5.668  10.704 -0.1856  0.2637  0.2381
   87SAPS   H2X 8314   5.009   5.775  10.675  1.8884  0.0940 -0.9318
   87SAPS   H2Y 8315   4.917   5.654  10.755 -0.4152 -1.1129 -0.5379
   87SAPS   C23 8316   5.606   5.882  10.803 -0.3814 -0.6501  0.3010
   87SAPS   H3R 8317   5.684   5.905  10.879 -0.3102 -0.1425  0.0783
   87SAPS   H3S 8318   5.631   5.955  10.723  2.2196 -0.6173  1.0427
   87SAPS   C24 8319   5.641   5.748  10.746  0.0011  0.4414  0.0549
   87SAPS   H4R 8320   5.656   5.671  10.825  0.9722 -0.7845 -1.2645
   87SAPS   H4S 8321   5.740   5.763  10.698  0.5968 -0.0281  1.1258
   87SAPS   C25 8322   5.540   5.696  10.647 -0.1036 -0.1031  0.5899
   87SAPS   H5R 8323   5.457   5.648  10.703  0.5955 -2.0587  0.0202
   87SAPS   C26 8324   5.557   5.692  10.516 -0.2733  0.1084 -0.4450
   87SAPS   H6R 8325   5.480   5.639  10.458 -2.9437  0.3112  2.5822
   87SAPS   C27 8326   5.678   5.748  10.444 -0.3816  0.3229  0.5724
   87SAPS   H7R 8327   5.677   5.694  10.347 -0.2202  0.7787  0.3184
   87SAPS   H7S 8328   5.768   5.703  10.491  0.8083  0.3455 -1.5933
   87SAPS   C28 8329   5.706   5.891  10.429  0.1393 -0.4988  1.0179
   87SAPS   H8R 8330   5.690   5.946  10.522  0.0611 -0.4168  0.9562
   87SAPS   C29 8331   5.732   5.956  10.314 -0.1137  0.6049  0.3968
   87SAPS   H9R 8332   5.749   6.065  10.311  1.3606  0.4044  0.8253
   87SAPS  C210 8333   5.731   5.898  10.175  0.1087  0.2220 -0.2197
   87SAPS  H10R 8334   5.634   5.852  10.149  0.3123  0.1262 -0.8319
   87SAPS  H10S 8335   5.802   5.812  10.179  3.1073  2.4139 -2.0800
   87SAPS  C211 8336   5.778   5.987  10.061  0.5604 -0.0603  0.0677
   87SAPS  H11R 8337   5.864   6.049  10.089  0.0024  1.3819 -1.2614
   87SAPS  C212 8338   5.741   5.979   9.927  0.0918  0.6320  0.2468
   87SAPS  H12R 8339   5.778   6.059   9.861 -0.4203  0.8570  0.2260
   87SAPS  C213 8340   5.649   5.877   9.865  0.0862  0.5801  0.1394
   87SAPS  H13R 8341   5.584   5.846   9.949 -0.1943  0.0152 -0.2735
   87SAPS  H13S 8342   5.710   5.794   9.822 -1.1314  0.2840 -1.0989
   87SAPS  C214 8343   5.572   5.944   9.754 -0.3683 -0.1840 -0.4061
   87SAPS  H14R 8344   5.472   5.980   9.783  0.2971  1.6812 -0.2397
   87SAPS  C215 8345   5.623   5.992   9.642  0.2458 -0.4614  0.9082
   87SAPS  H15R 8346   5.555   6.040   9.570  2.6810  2.5251  0.4104
   87SAPS  C216 8347   5.769   5.979   9.598  0.9408 -0.6224 -0.1922
   87SAPS  H16R 8348   5.841   5.937   9.671  2.2350 -1.9513 -2.1302
   87SAPS  H16S 8349   5.806   6.078   9.567 -2.3960  0.2772 -1.8261
   87SAPS  C217 8350   5.761   5.882   9.474 -0.0479  0.5597 -0.5627
   87SAPS  H17R 8351   5.670   5.911   9.417 -0.2701  0.8215 -0.0816
   87SAPS  H17S 8352   5.740   5.780   9.513  1.5282  0.6545  0.6587
   87SAPS  C218 8353   5.882   5.892   9.387 -0.8059  0.6189  0.5185
   87SAPS  H18R 8354   5.869   5.805   9.319 -0.9701 -0.5251  1.9673
   87SAPS  H18S 8355   5.969   5.853   9.444 -1.1401 -1.7094 -0.4754
   87SAPS  C219 8356   5.913   6.023   9.314  0.5015  0.2567  0.1311
   87SAPS  H19R 8357   6.019   6.041   9.286  0.1679  0.1979 -1.2341
   87SAPS  H19S 8358   5.893   6.111   9.378  1.3374 -0.4566  1.4156
   87SAPS  C220 8359   5.821   6.031   9.192 -0.0514  0.1387  0.8485
   87SAPS  H20R 8360   5.804   6.135   9.156 -1.1951 -0.1761  0.4369
   87SAPS  H20S 8361   5.725   5.980   9.215 -0.3009 -0.9148 -2.0401
   87SAPS  H20T 8362   5.871   5.974   9.110  1.4106  2.1031  0.3150
   87SAPS   C33 8363   5.017   5.585  10.572 -0.1450  0.1184  0.9265
   87SAPS   H3X 8364   4.918   5.569  10.524  0.8039 -0.4297 -0.9340
   87SAPS   H3Y 8365   5.054   5.485  10.603 -1.9782 -2.3913 -3.9550
   87SAPS   C34 8366   5.107   5.653  10.465  0.0653 -1.3098 -0.0213
   87SAPS   H4X 8367   5.210   5.641  10.507 -0.1429 -1.3413  0.4824
   87SAPS   H4Y 8368   5.093   5.763  10.459  1.7916 -1.1258 -1.9650
   87SAPS   C35 8369   5.131   5.582  10.330  0.9450  0.2312  0.1849
   87SAPS   H5X 8370   5.038   5.598  10.272  0.7092  0.0800  0.5183
   87SAPS   H5Y 8371   5.128   5.474  10.354  0.6067 -0.0548 -1.0497
   87SAPS   C36 8372   5.252   5.615  10.238 -0.2178 -0.2944 -0.8102
   87SAPS   H6X 8373   5.346   5.585  10.288 -0.4392 -2.0575 -1.3996
   87SAPS   H6Y 8374   5.252   5.723  10.210 -3.6889 -0.4250 -1.7997
   87SAPS   C37 8375   5.243   5.550  10.106  0.3559 -0.0135  0.2953
   87SAPS   H7X 8376   5.150   5.582  10.053  0.1126  0.8749  1.2372
   87SAPS   H7Y 8377   5.252   5.440  10.113 -0.7002 -0.2795 -1.6491
   87SAPS   C38 8378   5.368   5.580  10.014  0.2081 -0.3201  0.0307
   87SAPS   H8X 8379   5.452   5.540  10.075  0.8825 -0.0452 -0.7045
   87SAPS   H8Y 8380   5.373   5.690   9.999 -2.7239 -0.3100 -1.4356
   87SAPS   C39 8381   5.361   5.518   9.870  1.3030 -0.0384 -0.1905
   87SAPS   H9X 8382   5.269   5.540   9.811  1.3380 -0.5249 -0.4312
   87SAPS   H9Y 8383   5.357   5.409   9.889  0.2347  0.0440  0.1495
   87SAPS  C310 8384   5.477   5.561   9.784  0.0601  0.1727  0.1059
   87SAPS  H10X 8385   5.571   5.513   9.819 -0.0102 -1.5772 -1.9110
   87SAPS  H10Y 8386   5.499   5.670   9.781  0.3757  0.0887 -2.1270
   87SAPS  C311 8387   5.459   5.518   9.641 -0.7162 -0.5337 -0.5760
   87SAPS  H11X 8388   5.382   5.585   9.596  0.3331  0.5692 -0.8106
   87SAPS  H11Y 8389   5.431   5.411   9.633 -0.0161 -0.6049 -2.5585
   87SAPS  C312 8390   5.588   5.516   9.554 -0.7325 -0.1024  0.1101
   87SAPS  H12X 8391   5.667   5.448   9.591  0.4809  2.1474  1.9782
   87SAPS  H12Y 8392   5.630   5.618   9.568 -1.8192  0.4657 -0.6265
   87SAPS  C313 8393   5.557   5.498   9.406 -0.3356 -0.1838  0.2249
   87SAPS  H13X 8394   5.464   5.553   9.379 -0.0295 -0.3475 -1.2104
   87SAPS  H13Y 8395   5.530   5.390   9.395 -0.1374 -0.3460  1.1868
   87SAPS  C314 8396   5.675   5.507   9.317  0.1812 -0.1957 -0.0657
   87SAPS  H14X 8397   5.754   5.433   9.341  2.8541  1.8130 -2.0646
   87SAPS  H14Y 8398   5.727   5.604   9.325 -0.2247  0.1237 -1.1092
   87SAPS  C315 8399   5.632   5.476   9.178  0.4991 -0.0906  0.5615
   87SAPS  H15X 8400   5.534   5.527   9.161  0.7355 -0.1772 -1.1918
   87SAPS  H15Y 8401   5.629   5.366   9.161 -2.3341  0.3398 -2.9761
   87SAPS  C316 8402   5.736   5.520   9.074 -0.1713  0.3592  0.5570
   87SAPS  H16X 8403   5.807   5.435   9.061  0.2448  0.6406  0.9482
   87SAPS  H16Y 8404   5.803   5.596   9.119 -1.3180  1.5205  0.3413
   87SAPS  C317 8405   5.670   5.584   8.954  0.3340 -1.1956  0.2477
   87SAPS  H17X 8406   5.746   5.618   8.881 -3.0357  2.3147 -1.9500
   87SAPS  H17Y 8407   5.637   5.682   8.994  3.8116 -0.0162  0.6424
   87SAPS  C318 8408   5.562   5.506   8.878  0.6367 -0.2120 -0.2369
   87SAPS  H18X 8409   5.612   5.419   8.830 -1.7285 -0.5743 -2.2171
   87SAPS  H18Y 8410   5.509   5.567   8.802 -0.7936  1.7983  2.2076
   87SAPS  H18Z 8411   5.487   5.471   8.952  0.9825 -0.3484  0.0582
   88SAPS     N 8412   3.100   3.680  11.288  0.2647  0.2058 -0.1347
   88SAPS   HN1 8413   3.076   3.579  11.288  1.5760 -0.1503 -1.6184
   88SAPS   HN2 8414   3.154   3.690  11.200 -0.7238 -1.6418 -1.0013
   88SAPS   HN3 8415   3.163   3.699  11.369  1.1444 -2.6684 -0.0083
   88SAPS   C12 8416   2.984   3.772  11.277 -0.4883 -0.4463  0.0475
   88SAPS  H12A 8417   2.918   3.732  11.201 -0.2715  1.2690 -1.1023
   88SAPS   C13 8418   2.891   3.787  11.398  0.7735 -0.3231 -0.5566
   88SAPS  O13A 8419   2.896   3.708  11.501  0.2188 -0.7400 -0.0927
   88SAPS  O13B 8420   2.802   3.875  11.398  0.4696 -0.4848  0.0253
   88SAPS   C11 8421   3.027   3.913  11.225  1.0458  0.0586  0.4884
   88SAPS  H11A 8422   3.067   3.974  11.308  3.8818 -1.4843  0.3598
   88SAPS  H11B 8423   2.937   3.969  11.191  2.3318  1.5978 -0.5546
   88SAPS     P 8424   3.212   4.025  11.080 -0.1040 -0.0249  0.0583
   88SAPS   O13 8425   3.228   4.115  11.191 -0.5855 -0.1552  0.6565
   88SAPS   O14 8426   3.336   3.966  11.026  0.7654  0.4264 -0.4809
   88SAPS   O12 8427   3.119   3.896  11.124 -0.0135  0.3002  0.2541
   88SAPS   O11 8428   3.132   4.106  10.966  0.1295 -0.5947 -0.0299
   88SAPS    C1 8429   3.062   4.052  10.853  0.1748  0.3452  0.4536
   88SAPS    HA 8430   3.050   3.942  10.866  0.8782  0.3285  1.0105
   88SAPS    HB 8431   2.960   4.095  10.855 -0.4464 -1.0337  0.0566
   88SAPS    C2 8432   3.134   4.085  10.714 -0.0350 -0.1580 -0.0337
   88SAPS    HS 8433   3.076   4.029  10.638  0.4653  1.5655 -1.7516
   88SAPS   O21 8434   3.276   4.053  10.706 -0.5793 -0.0312 -0.1945
   88SAPS   C21 8435   3.303   3.925  10.718 -0.1366 -0.1431  0.1500
   88SAPS   O22 8436   3.230   3.832  10.709 -0.5135  0.7334  0.3819
   88SAPS   C22 8437   3.459   3.911  10.733  0.7400  0.4822 -0.6026
   88SAPS   H2R 8438   3.473   3.841  10.819 -0.0133 -1.2342 -1.8321
   88SAPS   H2S 8439   3.502   3.860  10.644  0.8175  1.3604 -1.0725
   88SAPS    C3 8440   3.117   4.235  10.678 -0.6182 -0.3947  0.3573
   88SAPS    HX 8441   3.167   4.295  10.757  0.4347 -0.4729 -0.2305
   88SAPS    HY 8442   3.010   4.264  10.685  0.2463  3.1774  0.8252
   88SAPS   O31 8443   3.167   4.255  10.549 -0.1139 -0.0475 -0.4043
   88SAPS   C31 8444   3.276   4.332  10.542  0.6568  0.3071  0.6574
   88SAPS   O32 8445   3.323   4.390  10.637  0.2985  0.0799  0.2356
   88SAPS   C32 8446   3.313   4.349  10.398 -0.0291 -0.2121  0.3707
   88SAPS   H2X 8447   3.349   4.454  10.387 -2.2669  0.4756 -1.1746
   88SAPS   H2Y 8448   3.219   4.340  10.339  0.4179  1.6119 -0.7083
   88SAPS   C23 8449   3.538   4.042  10.748 -0.6049 -0.1160 -0.2832
   88SAPS   H3R 8450   3.511   4.080  10.849 -0.6141 -0.2922 -0.2184
   88SAPS   H3S 8451   3.497   4.114  10.675  1.0663  2.4641  1.1443
   88SAPS   C24 8452   3.688   4.028  10.722  0.6486  0.0144  0.1173
   88SAPS   H4R 8453   3.736   4.128  10.735  0.6159 -0.0444  0.7290
   88SAPS   H4S 8454   3.705   4.011  10.614 -0.5178 -2.2237  0.2252
   88SAPS   C25 8455   3.768   3.929  10.803 -0.4149  0.1789 -0.7879
   88SAPS   H5R 8456   3.713   3.901  10.895 -0.6070  0.0338 -0.9465
   88SAPS   C26 8457   3.885   3.868  10.771  0.2644 -0.7424  0.3678
   88SAPS   H6R 8458   3.947   3.818  10.846  2.2318  1.0967  0.0554
   88SAPS   C27 8459   3.953   3.893  10.636  0.1638  0.2302  0.1704
   88SAPS   H7R 8460   4.063   3.897  10.656  0.4367  1.9040 -1.4052
   88SAPS   H7S 8461   3.924   3.994  10.600 -1.9559  0.3284  1.9781
   88SAPS   C28 8462   3.925   3.786  10.526 -0.6880 -0.2659 -0.3104
   88SAPS   H8R 8463   3.917   3.685  10.568 -1.7054 -0.7052 -1.5094
   88SAPS   C29 8464   3.920   3.791  10.392 -0.2614 -0.3578  0.1074
   88SAPS   H9R 8465   3.902   3.709  10.322  1.2941  1.0495 -2.0777
   88SAPS  C210 8466   3.943   3.925  10.312 -0.2518  0.4294 -0.0690
   88SAPS  H10R 8467   4.036   3.930  10.252  0.5087  0.8368  1.1041
   88SAPS  H10S 8468   3.957   4.008  10.384 -1.0118  0.4025  0.1143
   88SAPS  C211 8469   3.813   3.961  10.241  0.5566 -0.3231 -0.0398
   88SAPS  H11R 8470   3.722   3.983  10.299  1.1609 -0.8194  1.1213
   88SAPS  C212 8471   3.799   3.958  10.105  0.6981  0.2850 -0.3004
   88SAPS  H12R 8472   3.702   3.981  10.060 -0.5258 -1.6395  1.1967
   88SAPS  C213 8473   3.907   3.923  10.000  0.6419 -0.4009 -0.1417
   88SAPS  H13R 8474   4.003   3.920  10.056 -0.0884  0.9267  1.2554
   88SAPS  H13S 8475   3.916   4.003   9.923 -0.5684  0.9742  1.0660
   88SAPS  C214 8476   3.883   3.787   9.941 -0.0958 -0.2317 -0.0537
   88SAPS  H14R 8477   3.889   3.710  10.019 -2.3599  0.4411  0.8382
   88SAPS  C215 8478   3.834   3.759   9.819 -0.7791  0.0467  0.1440
   88SAPS  H15R 8479   3.809   3.658   9.783 -0.6237  0.1622 -0.2971
   88SAPS  C216 8480   3.807   3.851   9.701 -0.4955 -0.2364 -0.5449
   88SAPS  H16R 8481   3.884   3.931   9.697 -0.8007  0.0363 -0.9753
   88SAPS  H16S 8482   3.711   3.902   9.720 -0.7463 -0.3070 -1.6110
   88SAPS  C217 8483   3.787   3.791   9.559 -0.0146  0.2264  0.3930
   88SAPS  H17R 8484   3.700   3.723   9.564 -0.1885  0.2850 -1.1573
   88SAPS  H17S 8485   3.878   3.745   9.514 -1.2062  1.1862 -3.4212
   88SAPS  C218 8486   3.754   3.911   9.459  0.3286 -0.0119  0.8234
   88SAPS  H18R 8487   3.839   3.983   9.459  1.5632 -1.3806 -0.9032
   88SAPS  H18S 8488   3.667   3.974   9.488  1.6769  1.5275  1.7244
   88SAPS  C219 8489   3.738   3.854   9.314  0.5766  0.3874 -0.2997
   88SAPS  H19R 8490   3.648   3.789   9.318  0.1111  1.0474  0.0746
   88SAPS  H19S 8491   3.823   3.797   9.269  1.6578  1.4305  0.3571
   88SAPS  C220 8492   3.706   3.959   9.201 -0.0510 -0.1110  0.1142
   88SAPS  H20R 8493   3.617   3.925   9.145 -1.6114  1.6919  1.3683
   88SAPS  H20S 8494   3.799   3.983   9.144 -0.7925  1.9916 -0.3146
   88SAPS  H20T 8495   3.681   4.053   9.256 -0.4596 -1.3642  2.1859
   88SAPS   C33 8496   3.413   4.242  10.349  0.3389  0.1648  0.9401
   88SAPS   H3X 8497   3.378   4.142  10.382  1.7533 -2.0851 -3.5237
   88SAPS   H3Y 8498   3.509   4.247  10.404 -0.5919 -1.1789  2.8218
   88SAPS   C34 8499   3.426   4.232  10.197 -0.1851  0.1024  0.0569
   88SAPS   H4X 8500   3.324   4.224  10.153 -0.4326 -5.3676  0.8895
   88SAPS   H4Y 8501   3.473   4.136  10.168  1.4637  1.2515 -1.3012
   88SAPS   C35 8502   3.505   4.353  10.138 -0.2567  0.3142 -0.3662
   88SAPS   H5X 8503   3.593   4.385  10.197 -0.3226  2.4720 -1.3742
   88SAPS   H5Y 8504   3.438   4.441  10.150  0.5605  0.8552  0.3388
   88SAPS   C36 8505   3.528   4.343   9.985 -0.1735 -0.0592 -1.0821
   88SAPS   H6X 8506   3.569   4.242   9.967  0.6763 -0.0428  0.5181
   88SAPS   H6Y 8507   3.616   4.405   9.959  2.9902 -2.8138  2.0357
   88SAPS   C37 8508   3.406   4.385   9.912 -0.0994  0.1117 -0.1272
   88SAPS   H7X 8509   3.365   4.481   9.949 -0.3842  0.3048 -0.9241
   88SAPS   H7Y 8510   3.326   4.308   9.922 -2.0160  2.3185  4.2081
   88SAPS   C38 8511   3.429   4.388   9.762  0.2181  0.3543 -0.4254
   88SAPS   H8X 8512   3.505   4.313   9.731  1.0238  0.3563  1.3995
   88SAPS   H8Y 8513   3.479   4.485   9.740  1.5099 -0.3594 -0.7759
   88SAPS   C39 8514   3.310   4.368   9.666 -0.2365  0.6513  0.5567
   88SAPS   H9X 8515   3.228   4.441   9.682 -0.1853  1.0261 -0.7895
   88SAPS   H9Y 8516   3.275   4.264   9.682  1.8581 -0.3249 -0.7288
   88SAPS  C310 8517   3.355   4.387   9.526  0.8779 -0.3697 -0.3818
   88SAPS  H10X 8518   3.396   4.490   9.516  0.3981  0.0692  1.7460
   88SAPS  H10Y 8519   3.263   4.382   9.464 -0.5741 -0.3176  1.6808
   88SAPS  C311 8520   3.449   4.273   9.476  0.1697 -0.0216  0.9953
   88SAPS  H11X 8521   3.423   4.173   9.518 -2.1304 -0.0458 -0.3202
   88SAPS  H11Y 8522   3.555   4.295   9.500  0.9004 -0.9878 -1.1631
   88SAPS  C312 8523   3.450   4.252   9.313 -0.2144 -0.7258  0.2307
   88SAPS  H12X 8524   3.353   4.214   9.275 -0.0760 -2.2395  1.3201
   88SAPS  H12Y 8525   3.523   4.178   9.274  2.7007  2.3212 -0.5933
   88SAPS  C313 8526   3.473   4.385   9.237  1.0762 -0.4297 -0.6060
   88SAPS  H13X 8527   3.574   4.420   9.268  0.9988 -1.6592  1.1809
   88SAPS  H13Y 8528   3.400   4.463   9.265  3.2305  1.3244  0.3486
   88SAPS  C314 8529   3.481   4.357   9.087 -0.1234  0.2575 -0.2058
   88SAPS  H14X 8530   3.544   4.272   9.054  0.1369 -0.1997  1.3759
   88SAPS  H14Y 8531   3.525   4.452   9.051  1.9798 -0.4106  0.4400
   88SAPS  C315 8532   3.343   4.337   9.023  0.3042  0.2218 -0.0720
   88SAPS  H15X 8533   3.268   4.364   9.101 -0.0446  0.7131 -0.5609
   88SAPS  H15Y 8534   3.330   4.231   8.994 -2.4983 -0.0178  1.6542
   88SAPS  C316 8535   3.328   4.427   8.902  0.3745  0.4373  0.5568
   88SAPS  H16X 8536   3.408   4.397   8.831 -0.7097 -2.9175  0.6036
   88SAPS  H16Y 8537   3.343   4.530   8.943 -0.3661  0.6745  0.2582
   88SAPS  C317 8538   3.195   4.405   8.827  0.0393  0.3656  0.3492
   88SAPS  H17X 8539   3.118   4.426   8.904  2.3230  1.7504  2.4121
   88SAPS  H17Y 8540   3.192   4.295   8.811 -1.0604  0.1760  1.6537
   88SAPS  C318 8541   3.171   4.483   8.695 -1.0185 -0.3394 -0.0925
   88SAPS  H18X 8542   3.129   4.582   8.722 -3.4681 -1.2467 -0.3179
   88SAPS  H18Y 8543   3.093   4.432   8.634 -0.3929  0.0836 -1.2899
   88SAPS  H18Z 8544   3.265   4.486   8.635 -1.0071  0.9029 -0.0374
   89SAPS     N 8545   0.788   1.650  11.143  0.4892  0.1250  0.7939
   89SAPS   HN1 8546   0.778   1.681  11.044 -0.1513 -1.5122  0.3124
   89SAPS   HN2 8547   0.887   1.619  11.156  1.0178 -0.0880 -2.7016
   89SAPS   HN3 8548   0.725   1.568  11.154  1.9929 -1.2496 -0.2328
   89SAPS   C12 8549   0.768   1.750  11.241  0.1928 -0.2096 -0.3655
   89SAPS  H12A 8550   0.682   1.811  11.218 -1.9548 -2.4598  1.1368
   89SAPS   C13 8551   0.733   1.698  11.380  0.0765 -0.2252  0.3489
   89SAPS  O13A 8552   0.710   1.570  11.396 -0.1878 -0.0915  0.6596
   89SAPS  O13B 8553   0.700   1.774  11.475 -0.3483  1.0478 -0.0893
   89SAPS   C11 8554   0.893   1.835  11.253 -0.5366  0.0216  0.8144
   89SAPS  H11A 8555   0.985   1.776  11.276 -0.6434 -0.9748 -1.0864
   89SAPS  H11B 8556   0.876   1.906  11.337 -0.1702  0.1238  0.8038
   89SAPS     P 8557   1.022   2.026  11.118 -0.1132 -0.1314 -0.0240
   89SAPS   O13 8558   1.049   2.085  11.250  0.8431 -0.0676 -0.0214
   89SAPS   O14 8559   1.145   1.974  11.048  1.1255  0.9859  0.0959
   89SAPS   O12 8560   0.910   1.912  11.131  0.3332  0.0730 -0.2391
   89SAPS   O11 8561   0.957   2.127  11.026 -0.0513 -0.3842  0.4788
   89SAPS    C1 8562   0.833   2.111  10.955  0.3966  0.0601  0.5090
   89SAPS    HA 8563   0.751   2.068  11.017 -3.0525  1.6795 -2.5197
   89SAPS    HB 8564   0.792   2.202  10.907  2.9437  1.0591  0.0926
   89SAPS    C2 8565   0.838   1.999  10.839 -0.1368  0.2643  0.2383
   89SAPS    HS 8566   0.875   1.913  10.898 -0.3576 -0.2231 -0.3245
   89SAPS   O21 8567   0.917   2.050  10.733  0.0482  1.0723 -0.4329
   89SAPS   C21 8568   1.014   1.964  10.700 -0.3591  0.3962  0.2060
   89SAPS   O22 8569   1.029   1.849  10.743  0.0637 -0.1750 -0.2970
   89SAPS   C22 8570   1.106   2.024  10.589  0.1277  0.1219  0.5419
   89SAPS   H2R 8571   1.185   2.089  10.631 -0.5488  0.4206  1.3783
   89SAPS   H2S 8572   1.172   1.944  10.546  1.2611 -1.7947  5.2159
   89SAPS    C3 8573   0.708   1.956  10.774  0.9828 -0.3387 -0.7055
   89SAPS    HX 8574   0.678   2.043  10.712  2.2966  0.3938 -0.3348
   89SAPS    HY 8575   0.625   1.942  10.847  1.0041  0.2631 -0.5679
   89SAPS   O31 8576   0.722   1.836  10.699  0.1398  0.4667  0.2047
   89SAPS   C31 8577   0.745   1.723  10.766 -1.1287  0.4072 -0.0090
   89SAPS   O32 8578   0.756   1.716  10.889  0.2425 -0.7371 -0.0193
   89SAPS   C32 8579   0.759   1.596  10.678 -0.4416  0.0958 -0.3807
   89SAPS   H2X 8580   0.657   1.560  10.654  0.4936 -1.1606 -2.8273
   89SAPS   H2Y 8581   0.812   1.517  10.736 -0.2313  0.5190  0.0112
   89SAPS   C23 8582   1.028   2.086  10.464  0.2176  0.2710  0.1188
   89SAPS   H3R 8583   1.104   2.109  10.387  0.6019 -1.4939 -0.0718
   89SAPS   H3S 8584   0.965   2.173  10.492 -1.7393 -1.6353  2.0104
   89SAPS   C24 8585   0.932   1.970  10.407  0.2107 -0.4671 -0.8813
   89SAPS   H4R 8586   0.866   1.929  10.487  0.8238  1.0637  0.4633
   89SAPS   H4S 8587   1.002   1.896  10.363  1.2227  0.2657 -0.5506
   89SAPS   C25 8588   0.831   2.024  10.312 -0.3350 -0.3262  0.3227
   89SAPS   H5R 8589   0.758   2.093  10.359 -0.3653  0.3457 -0.6683
   89SAPS   C26 8590   0.808   1.976  10.186  0.1485 -0.4394 -0.7576
   89SAPS   H6R 8591   0.716   2.014  10.141 -0.4069 -1.6524 -0.6880
   89SAPS   C27 8592   0.885   1.877  10.103  0.4262  0.2886  0.1109
   89SAPS   H7R 8593   0.809   1.814  10.051 -0.9572  0.8693  1.3790
   89SAPS   H7S 8594   0.951   1.819  10.171  1.2695  1.8897  0.7061
   89SAPS   C28 8595   0.972   1.948  10.008  0.1023  0.4498 -0.2527
   89SAPS   H8R 8596   1.039   2.023  10.051 -1.7646  1.6046  0.7888
   89SAPS   C29 8597   0.972   1.924   9.878  0.4580 -0.1212  0.0955
   89SAPS   H9R 8598   1.039   1.994   9.825 -1.7449  1.3644 -0.8770
   89SAPS  C210 8599   0.888   1.825   9.798 -0.7274 -1.2817  0.5696
   89SAPS  H10R 8600   0.890   1.726   9.849  2.2581 -1.0947  0.9465
   89SAPS  H10S 8601   0.931   1.817   9.696 -1.4294  0.6553  0.0775
   89SAPS  C211 8602   0.751   1.871   9.780 -0.4758  0.3095 -0.9786
   89SAPS  H11R 8603   0.698   1.888   9.875  0.2461 -0.1858 -0.4785
   89SAPS  C212 8604   0.681   1.893   9.664 -1.0862 -0.6647 -0.1367
   89SAPS  H12R 8605   0.590   1.950   9.685 -1.0049 -1.4733  2.9200
   89SAPS  C213 8606   0.723   1.875   9.524 -1.1064  0.6753  0.5771
   89SAPS  H13R 8607   0.765   1.773   9.513 -0.1836  0.9553  1.3367
   89SAPS  H13S 8608   0.810   1.943   9.511 -0.4740 -0.2040  0.1206
   89SAPS  C214 8609   0.608   1.900   9.427  0.1072  0.1790  0.0049
   89SAPS  H14R 8610   0.513   1.928   9.474  0.6318 -1.0222  1.8653
   89SAPS  C215 8611   0.612   1.894   9.297 -0.1648  0.5103  0.1113
   89SAPS  H15R 8612   0.521   1.926   9.245 -0.5324  2.3362  1.7807
   89SAPS  C216 8613   0.737   1.854   9.220  0.1037 -0.3237 -0.5984
   89SAPS  H16R 8614   0.814   1.811   9.287 -0.0295 -0.5514 -0.5925
   89SAPS  H16S 8615   0.783   1.948   9.181  0.9735  0.0918  1.3164
   89SAPS  C217 8616   0.718   1.760   9.101  0.2574  0.2780  0.0837
   89SAPS  H17R 8617   0.669   1.663   9.124  0.7273 -0.2354 -1.0142
   89SAPS  H17S 8618   0.816   1.719   9.069  1.1259  0.9070  1.8013
   89SAPS  C218 8619   0.648   1.816   8.968  0.4467  1.0715  0.0148
   89SAPS  H18R 8620   0.721   1.897   8.943  1.0307  0.0409 -1.8246
   89SAPS  H18S 8621   0.546   1.855   8.985  0.0876  0.2929 -0.2957
   89SAPS  C219 8622   0.642   1.715   8.850 -0.3988  0.4970 -0.2852
   89SAPS  H19R 8623   0.575   1.631   8.877 -0.8979  0.4087 -1.6841
   89SAPS  H19S 8624   0.743   1.669   8.853 -0.3105  0.7551  2.0425
   89SAPS  C220 8625   0.621   1.765   8.715  0.4256 -0.0086 -0.3476
   89SAPS  H20R 8626   0.655   1.694   8.636  2.7441 -0.0063  0.5736
   89SAPS  H20S 8627   0.664   1.865   8.693  0.9374  0.0752  0.9948
   89SAPS  H20T 8628   0.515   1.792   8.697  1.4239  3.0723 -2.3790
   89SAPS   C33 8629   0.824   1.615  10.539 -0.3913  0.1428  0.1347
   89SAPS   H3X 8630   0.933   1.622  10.557 -0.7564  0.0684  2.7019
   89SAPS   H3Y 8631   0.806   1.713  10.489  1.7443  0.0894 -0.8613
   89SAPS   C34 8632   0.800   1.506  10.439 -0.4201  0.5918 -0.9602
   89SAPS   H4X 8633   0.691   1.493  10.421 -0.9340  0.3768  1.9208
   89SAPS   H4Y 8634   0.851   1.415  10.478 -1.2556 -0.1215 -1.4853
   89SAPS   C35 8635   0.857   1.539  10.303 -0.1831 -0.2098  0.2515
   89SAPS   H5X 8636   0.968   1.532  10.308 -0.2297 -0.6166  0.8292
   89SAPS   H5Y 8637   0.834   1.644  10.272  1.0655  0.0217  0.0602
   89SAPS   C36 8638   0.823   1.433  10.199  0.3793 -0.3308 -0.9682
   89SAPS   H6X 8639   0.713   1.434  10.183  0.3209 -1.7284 -0.7943
   89SAPS   H6Y 8640   0.855   1.334  10.238 -0.2934 -0.0293  0.3967
   89SAPS   C37 8641   0.887   1.477  10.063 -0.1800  0.6456 -0.0505
   89SAPS   H7X 8642   0.998   1.476  10.072 -0.3295 -1.5740  3.4190
   89SAPS   H7Y 8643   0.850   1.575  10.026 -2.8242 -0.1216  0.3801
   89SAPS   C38 8644   0.842   1.367   9.954 -0.1177 -0.3002  0.3021
   89SAPS   H8X 8645   0.733   1.349   9.958 -0.7542  2.2475 -2.1757
   89SAPS   H8Y 8646   0.900   1.276   9.982  2.0297  1.2347  1.1570
   89SAPS   C39 8647   0.887   1.415   9.815 -0.3554  0.2740 -0.4670
   89SAPS   H9X 8648   0.992   1.453   9.810  0.5512 -2.1439 -1.0082
   89SAPS   H9Y 8649   0.829   1.506   9.790 -1.0240 -0.1354 -0.4080
   89SAPS  C310 8650   0.857   1.294   9.716  0.0524 -0.1177  0.6831
   89SAPS  H10X 8651   0.758   1.245   9.719 -0.5520  0.9687 -0.4791
   89SAPS  H10Y 8652   0.931   1.221   9.754  2.9012  2.1396 -0.1452
   89SAPS  C311 8653   0.896   1.323   9.568  0.0903 -0.3036 -0.1031
   89SAPS  H11X 8654   0.859   1.422   9.534 -1.4522  0.2856  3.0042
   89SAPS  H11Y 8655   0.865   1.247   9.493  2.1610 -1.8197  0.4726
   89SAPS  C312 8656   1.050   1.317   9.548  0.0539  0.5116 -1.0435
   89SAPS  H12X 8657   1.070   1.211   9.574 -2.5056  0.7218  2.4915
   89SAPS  H12Y 8658   1.094   1.385   9.624 -3.1867 -0.5867  2.1029
   89SAPS  C313 8659   1.104   1.328   9.405 -0.0308  0.0425 -0.2819
   89SAPS  H13X 8660   1.048   1.253   9.345  0.2450 -1.1838  0.9391
   89SAPS  H13Y 8661   1.213   1.307   9.413 -0.2720 -0.9019  0.8485
   89SAPS  C314 8662   1.080   1.464   9.339 -0.3319  0.3037  0.8580
   89SAPS  H14X 8663   1.121   1.541   9.407  0.0509  1.9184 -1.1158
   89SAPS  H14Y 8664   0.970   1.481   9.337 -0.2778  0.6257 -1.0263
   89SAPS  C315 8665   1.141   1.474   9.195  0.7435  0.1216 -0.1946
   89SAPS  H15X 8666   1.093   1.557   9.139  1.2386  0.6602  0.1752
   89SAPS  H15Y 8667   1.113   1.376   9.151  0.6050 -0.7358  1.6757
   89SAPS  C316 8668   1.295   1.493   9.190 -0.1911 -0.1787  0.2739
   89SAPS  H16X 8669   1.348   1.408   9.237 -0.4158 -0.3039  0.2999
   89SAPS  H16Y 8670   1.320   1.587   9.245  1.1992  0.4226 -1.2910
   89SAPS  C317 8671   1.352   1.522   9.048 -0.9824 -0.9385 -0.0211
   89SAPS  H17X 8672   1.281   1.590   8.996  2.1443  1.7953 -1.0510
   89SAPS  H17Y 8673   1.369   1.434   8.983  0.4764  0.6124 -1.8338
   89SAPS  C318 8674   1.490   1.595   9.046  0.5100  0.1997  0.6194
   89SAPS  H18X 8675   1.517   1.611   8.940 -0.6468 -2.1391 -0.0872
   89SAPS  H18Y 8676   1.569   1.540   9.101  0.3706  1.6898  2.4180
   89SAPS  H18Z 8677   1.485   1.694   9.097 -2.5031  0.6747 -0.3692
   90SAPS     N 8678   3.503   1.089  11.490  0.0516 -0.5895 -0.0096
   90SAPS   HN1 8679   3.500   1.048  11.585 -0.5180 -2.5431 -0.8127
   90SAPS   HN2 8680   3.570   1.026  11.441 -0.0902  0.2640 -1.3515
   90SAPS   HN3 8681   3.531   1.189  11.501 -0.7389 -0.0713 -2.1175
   90SAPS   C12 8682   3.373   1.072  11.418 -0.1353 -0.0286 -0.0177
   90SAPS  H12A 8683   3.337   0.974  11.446 -1.1320  0.1474 -0.6438
   90SAPS   C13 8684   3.258   1.178  11.452  0.4698 -1.5576 -0.2145
   90SAPS  O13A 8685   3.285   1.277  11.520 -0.8526  0.4922  0.4405
   90SAPS  O13B 8686   3.145   1.174  11.395  0.0363 -0.0871 -0.6391
   90SAPS   C11 8687   3.408   1.076  11.266  1.0401  0.1650 -0.0215
   90SAPS  H11A 8688   3.429   1.184  11.251 -2.4952  1.1583  1.1004
   90SAPS  H11B 8689   3.322   1.054  11.200  0.9608 -0.1154  0.1721
   90SAPS     P 8690   3.551   0.915  11.116 -0.3027 -0.1693 -0.2665
   90SAPS   O13 8691   3.691   0.922  11.085 -0.2945 -0.8346  0.1018
   90SAPS   O14 8692   3.486   0.779  11.138 -0.2108 -0.5012  0.0726
   90SAPS   O12 8693   3.523   0.994  11.242 -0.1299 -0.7742  0.3959
   90SAPS   O11 8694   3.477   0.988  10.990 -0.5082  0.4891  0.4113
   90SAPS    C1 8695   3.548   1.107  10.948 -0.4310  0.1930 -0.4922
   90SAPS    HA 8696   3.580   1.166  11.036  0.5185 -0.0779 -0.6444
   90SAPS    HB 8697   3.643   1.082  10.898  0.3337  1.9031  0.0138
   90SAPS    C2 8698   3.473   1.204  10.850 -0.2488 -0.1204  0.1358
   90SAPS    HS 8699   3.382   1.237  10.905 -0.5868 -1.9504  0.7231
   90SAPS   O21 8700   3.438   1.130  10.733 -0.2205  0.8342 -0.6362
   90SAPS   C21 8701   3.323   1.170  10.673 -0.5023 -0.3123 -0.1534
   90SAPS   O22 8702   3.257   1.272  10.705  0.0067  0.3083 -0.2749
   90SAPS   C22 8703   3.300   1.085  10.550  1.0715 -0.2791 -0.6143
   90SAPS   H2R 8704   3.377   1.114  10.475  0.4795  0.4227 -0.9598
   90SAPS   H2S 8705   3.313   0.979  10.582 -2.2746 -0.4812  0.4148
   90SAPS    C3 8706   3.554   1.334  10.807  0.4013 -0.4945  0.8282
   90SAPS    HX 8707   3.597   1.373  10.902  0.3882  0.5158  0.4218
   90SAPS    HY 8708   3.481   1.399  10.755  0.6025 -1.9760 -1.4758
   90SAPS   O31 8709   3.665   1.307  10.721 -0.3785 -0.2459  0.0285
   90SAPS   C31 8710   3.636   1.277  10.594 -0.7740 -0.0580  0.2137
   90SAPS   O32 8711   3.536   1.311  10.529 -0.1277 -0.1012 -0.6963
   90SAPS   C32 8712   3.764   1.208  10.537 -0.1002 -0.6516  0.2537
   90SAPS   H2X 8713   3.811   1.148  10.617  1.2429 -0.0116 -0.0127
   90SAPS   H2Y 8714   3.828   1.290  10.497 -1.2111  0.6793  1.1029
   90SAPS   C23 8715   3.161   1.110  10.489  0.4744 -0.0742  0.1791
   90SAPS   H3R 8716   3.160   1.076  10.383  1.5870  0.8931 -0.1661
   90SAPS   H3S 8717   3.143   1.220  10.499  1.1310  0.1100 -0.5790
   90SAPS   C24 8718   3.048   1.030  10.564  0.8448  0.3459  0.0617
   90SAPS   H4R 8719   3.055   1.048  10.674 -0.0017 -1.0531  0.3740
   90SAPS   H4S 8720   3.071   0.922  10.560 -0.9137 -0.0738  0.2501
   90SAPS   C25 8721   2.907   1.067  10.528 -0.1993 -0.0144  0.3576
   90SAPS   H5R 8722   2.849   1.117  10.607  2.0255 -0.7994  2.6149
   90SAPS   C26 8723   2.858   1.056  10.402  0.0209 -0.9253 -0.3233
   90SAPS   H6R 8724   2.751   1.073  10.386  0.4524 -0.7436 -3.9558
   90SAPS   C27 8725   2.923   1.016  10.270  0.4633 -0.2774  0.2978
   90SAPS   H7R 8726   2.852   0.941  10.228 -1.9529  1.6542  0.7109
   90SAPS   H7S 8727   3.020   0.967  10.295  0.2715 -1.3077 -0.9136
   90SAPS   C28 8728   2.950   1.130  10.173  0.0964 -0.3537  0.3890
   90SAPS   H8R 8729   2.958   1.231  10.217  1.1795 -0.3434  0.2048
   90SAPS   C29 8730   2.969   1.105  10.040  0.3422 -0.4799 -0.1121
   90SAPS   H9R 8731   2.999   1.183   9.968 -0.5168 -2.0803 -2.3229
   90SAPS  C210 8732   2.975   0.973   9.979 -0.3034  0.3702 -0.6018
   90SAPS  H10R 8733   2.868   0.946   9.968  0.2533 -2.0002 -0.6067
   90SAPS  H10S 8734   3.016   0.901  10.053 -1.9023  1.2454  1.2461
   90SAPS  C211 8735   3.053   0.949   9.854 -0.3250  0.2919  0.2228
   90SAPS  H11R 8736   3.150   0.903   9.875 -0.3245  0.9539  1.8024
   90SAPS  C212 8737   3.009   0.969   9.722 -0.0631  0.8212 -0.4628
   90SAPS  H12R 8738   3.069   0.933   9.637 -1.4910 -1.1013 -0.7290
   90SAPS  C213 8739   2.882   1.025   9.675 -0.3188  0.1009 -0.0310
   90SAPS  H13R 8740   2.805   1.032   9.755 -0.8775  0.8329 -0.6307
   90SAPS  H13S 8741   2.849   0.951   9.600  2.0786  0.9657 -2.0696
   90SAPS  C214 8742   2.892   1.153   9.604  0.8921  0.2732 -1.0099
   90SAPS  H14R 8743   2.876   1.235   9.676 -0.4325 -0.5744 -0.2944
   90SAPS  C215 8744   2.910   1.183   9.476 -0.3988  0.3787  0.0542
   90SAPS  H15R 8745   2.898   1.285   9.438 -0.6200  0.6324  0.7899
   90SAPS  C216 8746   2.924   1.083   9.362  0.5084  0.4198  0.3474
   90SAPS  H16R 8747   2.943   0.981   9.403  1.7626  1.2953  2.0549
   90SAPS  H16S 8748   3.010   1.110   9.298  0.3553 -0.1008 -0.0917
   90SAPS  C217 8749   2.792   1.069   9.284  0.4191 -0.2215  0.4171
   90SAPS  H17R 8750   2.705   1.047   9.349  0.4668  3.9964  2.2046
   90SAPS  H17S 8751   2.793   0.980   9.217 -3.2338 -2.0026  2.4395
   90SAPS  C218 8752   2.762   1.201   9.211 -0.6179  0.5335  0.4301
   90SAPS  H18R 8753   2.859   1.228   9.164 -0.9435  1.5642  0.3158
   90SAPS  H18S 8754   2.735   1.282   9.282 -2.0205  1.1280 -0.7307
   90SAPS  C219 8755   2.656   1.182   9.096  0.0591 -0.1220  0.2137
   90SAPS  H19R 8756   2.553   1.187   9.138 -0.2975 -2.4943 -0.2167
   90SAPS  H19S 8757   2.668   1.077   9.061 -0.3083 -0.4724  1.1009
   90SAPS  C220 8758   2.669   1.274   8.977 -0.5274 -0.1182 -0.5202
   90SAPS  H20R 8759   2.708   1.223   8.886  0.2130 -0.2205 -0.1555
   90SAPS  H20S 8760   2.728   1.365   8.999 -0.2463 -0.4542  0.1399
   90SAPS  H20T 8761   2.573   1.318   8.941  0.1735  2.4974  0.6126
   90SAPS   C33 8762   3.736   1.121  10.413  0.0377 -0.3219 -0.6237
   90SAPS   H3X 8763   3.644   1.060  10.427 -0.6905  1.3007  2.6672
   90SAPS   H3Y 8764   3.826   1.058  10.407 -0.3633 -0.8455 -1.2897
   90SAPS   C34 8765   3.730   1.203  10.280 -0.0019 -0.3684  0.3091
   90SAPS   H4X 8766   3.821   1.267  10.281 -2.5605  3.5673  0.5221
   90SAPS   H4Y 8767   3.644   1.273  10.275 -0.2319 -0.5073  1.9274
   90SAPS   C35 8768   3.724   1.127  10.149 -0.4962  0.2300 -0.7415
   90SAPS   H5X 8769   3.619   1.097  10.130 -0.9265  0.8663  0.5683
   90SAPS   H5Y 8770   3.785   1.035  10.168 -1.4408 -0.2499  0.0380
   90SAPS   C36 8771   3.783   1.196  10.029 -0.6976  0.1820 -0.3457
   90SAPS   H6X 8772   3.893   1.196  10.043 -0.5706 -2.9021 -0.5581
   90SAPS   H6Y 8773   3.742   1.299  10.023 -3.0199 -0.5143  1.6912
   90SAPS   C37 8774   3.766   1.118   9.894  0.5486  0.0550 -0.0043
   90SAPS   H7X 8775   3.659   1.112   9.866  0.8045 -1.5815 -0.7291
   90SAPS   H7Y 8776   3.805   1.015   9.909  1.6210  0.6248  1.3974
   90SAPS   C38 8777   3.842   1.188   9.778  0.0985 -0.0234  0.3346
   90SAPS   H8X 8778   3.953   1.177   9.770  0.1894  1.8507 -2.1938
   90SAPS   H8Y 8779   3.825   1.297   9.786  1.0951  0.8301 -5.1911
   90SAPS   C39 8780   3.789   1.152   9.639  0.2729  0.0495 -0.1862
   90SAPS   H9X 8781   3.688   1.196   9.632 -0.1821 -1.2085 -2.2282
   90SAPS   H9Y 8782   3.790   1.042   9.624  2.4524 -0.0319  0.1534
   90SAPS  C310 8783   3.862   1.212   9.520 -0.5940 -0.7318 -0.2775
   90SAPS  H10X 8784   3.970   1.197   9.541  0.5494  1.6789 -3.4705
   90SAPS  H10Y 8785   3.865   1.323   9.513  1.0104 -0.6235  1.1698
   90SAPS  C311 8786   3.838   1.141   9.388  0.6433  1.2635  0.6426
   90SAPS  H11X 8787   3.841   1.031   9.401 -0.9954  0.9979 -0.9227
   90SAPS  H11Y 8788   3.922   1.164   9.319  0.8886  0.2128  0.5806
   90SAPS  C312 8789   3.705   1.191   9.322  0.2991 -0.2958 -0.0043
   90SAPS  H12X 8790   3.724   1.299   9.307 -0.0963 -0.0993  0.8291
   90SAPS  H12Y 8791   3.622   1.180   9.395  2.1570  1.1028  2.4775
   90SAPS  C313 8792   3.659   1.121   9.194 -0.3687 -0.0854 -0.0681
   90SAPS  H13X 8793   3.618   1.024   9.231 -0.6262 -0.6935 -1.8288
   90SAPS  H13Y 8794   3.747   1.089   9.133 -0.3747 -3.2172  1.3708
   90SAPS  C314 8795   3.555   1.198   9.106 -0.9623  0.6573  0.2260
   90SAPS  H14X 8796   3.597   1.293   9.065  1.7054  0.2690  1.8095
   90SAPS  H14Y 8797   3.480   1.229   9.182 -1.9001 -1.3165  0.1442
   90SAPS  C315 8798   3.482   1.116   8.996  0.3843  0.2602  0.4489
   90SAPS  H15X 8799   3.380   1.159   9.004  0.4811  0.7906 -0.8422
   90SAPS  H15Y 8800   3.465   1.009   9.022 -2.2496  1.0868  2.4909
   90SAPS  C316 8801   3.533   1.128   8.848 -0.0720 -0.0419 -0.6525
   90SAPS  H16X 8802   3.547   1.236   8.828  1.5960 -0.1838 -0.3482
   90SAPS  H16Y 8803   3.470   1.081   8.769 -1.5737  1.6183 -0.5206
   90SAPS  C317 8804   3.674   1.075   8.832  0.2799  0.1806  0.5816
   90SAPS  H17X 8805   3.671   0.965   8.847  0.8079  0.3079  1.6660
   90SAPS  H17Y 8806   3.739   1.127   8.905 -0.8686 -0.3681  2.0587
   90SAPS  C318 8807   3.722   1.103   8.689  0.0717  0.2350  0.2401
   90SAPS  H18X 8808   3.683   1.027   8.618  0.9250  0.6954 -0.7304
   90SAPS  H18Y 8809   3.832   1.107   8.680  0.2190 -1.3228  0.9869
   90SAPS  H18Z 8810   3.694   1.206   8.658  0.3252  0.1459 -0.2814
   91SAPS     N 8811   0.498   4.749   6.385  0.1292  0.0851 -0.3656
   91SAPS   HN1 8812   0.439   4.725   6.467  1.3986 -2.2782 -0.0556
   91SAPS   HN2 8813   0.544   4.842   6.395  0.1675 -0.0484  0.8099
   91SAPS   HN3 8814   0.441   4.754   6.298 -0.5807 -0.7776  0.0400
   91SAPS   C12 8815   0.598   4.641   6.389 -0.5006  0.2683  0.1459
   91SAPS  H12A 8816   0.547   4.547   6.408  0.7965 -0.2401  1.2956
   91SAPS   C13 8817   0.664   4.608   6.253  0.8175  0.3866 -0.9857
   91SAPS  O13A 8818   0.617   4.662   6.144 -0.3186 -0.2807 -0.2095
   91SAPS  O13B 8819   0.755   4.520   6.259  0.1013  0.0440  0.4215
   91SAPS   C11 8820   0.709   4.658   6.493  0.7202  0.0164 -0.0508
   91SAPS  H11A 8821   0.766   4.564   6.483  0.6526  0.1471 -1.9565
   91SAPS  H11B 8822   0.676   4.662   6.599  2.2685  2.1604  0.4136
   91SAPS     P 8823   0.794   4.910   6.491 -0.0944  0.0118 -0.3122
   91SAPS   O13 8824   0.909   4.979   6.429 -0.6717 -0.1157  0.2819
   91SAPS   O14 8825   0.659   4.957   6.447  0.0362  0.4119 -0.1885
   91SAPS   O12 8826   0.798   4.761   6.452  0.4312  0.8561  0.2839
   91SAPS   O11 8827   0.788   4.915   6.652  0.6942  0.2284  0.2534
   91SAPS    C1 8828   0.838   4.809   6.736  0.3998 -0.7854  0.3317
   91SAPS    HA 8829   0.753   4.771   6.797  0.5471 -0.5429  0.6928
   91SAPS    HB 8830   0.885   4.727   6.679 -0.5793  0.1065 -1.8688
   91SAPS    C2 8831   0.945   4.852   6.844 -0.0826 -0.0021 -0.1713
   91SAPS    HS 8832   0.995   4.759   6.880  0.2805  0.9600  1.9622
   91SAPS   O21 8833   0.880   4.921   6.957  0.2915 -0.4735 -0.0945
   91SAPS   C21 8834   0.865   4.854   7.065  0.9897 -0.0525 -0.8298
   91SAPS   O22 8835   0.866   4.735   7.080 -0.3307 -0.2566  0.5237
   91SAPS   C22 8836   0.802   4.950   7.168 -0.4324  0.4900  0.0925
   91SAPS   H2R 8837   0.818   5.054   7.132 -0.9849 -0.3653 -2.9235
   91SAPS   H2S 8838   0.692   4.935   7.173 -0.2445 -1.5150 -0.8762
   91SAPS    C3 8839   1.052   4.938   6.781 -0.3198  0.1767 -0.0642
   91SAPS    HX 8840   1.011   5.037   6.752 -0.8987  0.3688  1.3094
   91SAPS    HY 8841   1.076   4.887   6.685  0.0469  2.0557 -1.0269
   91SAPS   O31 8842   1.170   4.955   6.863 -0.0772  0.3502  0.4221
   91SAPS   C31 8843   1.158   5.057   6.960 -0.0799 -0.6789  0.3368
   91SAPS   O32 8844   1.061   5.131   6.971 -1.2495  0.2317  0.5500
   91SAPS   C32 8845   1.275   5.066   7.053 -0.0314  0.0087 -0.9186
   91SAPS   H2X 8846   1.351   5.120   6.992  1.1502 -2.2680 -1.5854
   91SAPS   H2Y 8847   1.311   4.961   7.062 -0.7211 -0.2902 -1.5169
   91SAPS   C23 8848   0.868   4.925   7.309 -0.9466  0.3402 -1.3566
   91SAPS   H3R 8849   0.976   4.948   7.301 -0.6502  0.0325  1.0658
   91SAPS   H3S 8850   0.854   4.817   7.333 -3.8254  1.2003  1.5818
   91SAPS   C24 8851   0.812   5.017   7.419  0.0208 -0.1324  0.2139
   91SAPS   H4R 8852   0.831   4.972   7.519 -0.8425  1.2578  1.0384
   91SAPS   H4S 8853   0.701   5.015   7.409 -0.0261  2.6997 -1.0000
   91SAPS   C25 8854   0.857   5.166   7.426  0.2788  0.1658  0.8094
   91SAPS   H5R 8855   0.896   5.201   7.329 -1.6878 -1.2002 -0.5493
   91SAPS   C26 8856   0.872   5.245   7.533  0.7697  1.1180 -0.1282
   91SAPS   H6R 8857   0.908   5.348   7.517  3.4451  0.3343  0.4170
   91SAPS   C27 8858   0.828   5.189   7.671  0.1702 -0.3547  0.0193
   91SAPS   H7R 8859   0.785   5.087   7.677 -0.6715 -0.0524 -0.5793
   91SAPS   H7S 8860   0.744   5.250   7.711 -1.7590 -1.3769 -2.2128
   91SAPS   C28 8861   0.943   5.224   7.764  0.7225 -0.2031  0.4146
   91SAPS   H8R 8862   1.024   5.282   7.719  0.0131 -1.7947 -3.3197
   91SAPS   C29 8863   0.940   5.211   7.897  0.2724 -0.4695  0.1699
   91SAPS   H9R 8864   1.036   5.223   7.949  1.1610  1.5213 -1.7577
   91SAPS  C210 8865   0.824   5.145   7.964 -0.0206 -0.4541 -0.3093
   91SAPS  H10R 8866   0.765   5.079   7.898 -0.2086 -0.8126  0.2154
   91SAPS  H10S 8867   0.741   5.213   7.993 -0.5908 -1.2770 -0.0138
   91SAPS  C211 8868   0.876   5.080   8.088 -1.0078  0.1593  0.1507
   91SAPS  H11R 8869   0.952   5.007   8.055  0.1343  1.6385 -0.6014
   91SAPS  C212 8870   0.849   5.104   8.214  0.8525  0.3302  0.3952
   91SAPS  H12R 8871   0.882   5.027   8.284 -2.2883 -2.0188 -0.4698
   91SAPS  C213 8872   0.758   5.214   8.272 -0.1582  1.2160 -0.1870
   91SAPS  H13R 8873   0.701   5.157   8.348  2.7100  0.6283  1.7098
   91SAPS  H13S 8874   0.686   5.259   8.201 -1.1024  0.2452  0.1267
   91SAPS  C214 8875   0.852   5.321   8.336  0.1058 -0.1780 -0.4623
   91SAPS  H14R 8876   0.935   5.373   8.285 -0.9239  1.0164 -0.9626
   91SAPS  C215 8877   0.854   5.347   8.471 -0.6039  0.5123 -0.5930
   91SAPS  H15R 8878   0.922   5.428   8.501 -1.6780  1.1674  0.1234
   91SAPS  C216 8879   0.751   5.288   8.565  0.2729 -0.3461 -0.4997
   91SAPS  H16R 8880   0.659   5.266   8.507 -0.6689  0.7014  0.5479
   91SAPS  H16S 8881   0.734   5.360   8.648 -1.5723 -0.9631 -0.3108
   91SAPS  C217 8882   0.818   5.161   8.629  0.4850 -0.0192  0.2215
   91SAPS  H17R 8883   0.865   5.112   8.542  1.5330  1.1094  0.1205
   91SAPS  H17S 8884   0.746   5.091   8.678  1.0917 -0.6241  0.2551
   91SAPS  C218 8885   0.915   5.210   8.746  0.4407  0.3889 -0.1147
   91SAPS  H18R 8886   0.850   5.237   8.831 -0.5725  0.0004 -0.7512
   91SAPS  H18S 8887   0.960   5.300   8.699 -3.0086  1.7053 -1.1793
   91SAPS  C219 8888   1.018   5.103   8.783  1.5746 -0.6693 -0.4568
   91SAPS  H19R 8889   1.074   5.099   8.687 -1.6299  0.0227 -2.5049
   91SAPS  H19S 8890   0.973   5.002   8.797  0.1061  0.0383  0.1723
   91SAPS  C220 8891   1.093   5.136   8.908  0.4199 -0.1321  0.4377
   91SAPS  H20R 8892   1.033   5.108   8.998 -0.8588  3.5274  0.8686
   91SAPS  H20S 8893   1.126   5.242   8.913 -0.7283  0.1874  3.4754
   91SAPS  H20T 8894   1.190   5.082   8.909  1.5407  1.7869  1.3836
   91SAPS   C33 8895   1.231   5.135   7.180  0.5146  0.3657  0.1309
   91SAPS   H3X 8896   1.137   5.089   7.217  2.0647 -2.7391  0.5423
   91SAPS   H3Y 8897   1.216   5.243   7.158 -1.1998  0.0016 -0.6606
   91SAPS   C34 8898   1.324   5.121   7.302 -0.3766  0.0092  0.3551
   91SAPS   H4X 8899   1.419   5.174   7.278 -0.0850  0.0908  1.6175
   91SAPS   H4Y 8900   1.354   5.017   7.325  1.4857  0.4116 -0.0358
   91SAPS   C35 8901   1.282   5.195   7.429  0.0504 -0.0553  0.7367
   91SAPS   H5X 8902   1.189   5.138   7.451 -0.1072  0.0420  0.3295
   91SAPS   H5Y 8903   1.259   5.303   7.414 -1.5986 -0.4690  0.0463
   91SAPS   C36 8904   1.365   5.172   7.554 -0.0267  0.0240 -0.3743
   91SAPS   H6X 8905   1.456   5.235   7.544  0.7430 -1.0668 -0.4196
   91SAPS   H6Y 8906   1.388   5.064   7.567 -0.7089 -0.0502  0.2902
   91SAPS   C37 8907   1.297   5.222   7.684 -0.7277 -0.3745 -0.4509
   91SAPS   H7X 8908   1.211   5.151   7.691 -1.2531  0.2150 -0.8245
   91SAPS   H7Y 8909   1.260   5.326   7.671  2.1834  0.5878 -1.8870
   91SAPS   C38 8910   1.396   5.227   7.811  0.1479  0.2811  0.8905
   91SAPS   H8X 8911   1.461   5.317   7.804 -1.6461  1.5366 -0.4195
   91SAPS   H8Y 8912   1.450   5.131   7.799 -1.3235 -0.2878 -1.7029
   91SAPS   C39 8913   1.326   5.223   7.949  0.6718  0.1716  0.3288
   91SAPS   H9X 8914   1.276   5.125   7.937  1.3087 -0.1964  0.6114
   91SAPS   H9Y 8915   1.249   5.303   7.949  0.7585  0.2558  0.5939
   91SAPS  C310 8916   1.434   5.231   8.055  0.2502  0.5102 -0.2530
   91SAPS  H10X 8917   1.533   5.230   8.004 -0.4214  2.2430 -1.6896
   91SAPS  H10Y 8918   1.417   5.145   8.123 -1.9335 -0.9818 -2.4919
   91SAPS  C311 8919   1.422   5.356   8.133 -0.0229 -0.6238 -0.2944
   91SAPS  H11X 8920   1.319   5.376   8.168  0.2861  1.0931 -0.2732
   91SAPS  H11Y 8921   1.443   5.443   8.068 -0.2373  0.6961  1.3355
   91SAPS  C312 8922   1.502   5.351   8.268  0.0035 -0.0344  0.1372
   91SAPS  H12X 8923   1.487   5.449   8.317  1.5131  0.3467 -0.1283
   91SAPS  H12Y 8924   1.608   5.332   8.243  0.3203  2.3228 -0.5322
   91SAPS  C313 8925   1.462   5.246   8.371  0.8511  0.8872  0.8074
   91SAPS  H13X 8926   1.481   5.146   8.325 -0.7201  0.9770 -0.1456
   91SAPS  H13Y 8927   1.351   5.248   8.381  0.7393  0.0712 -0.0981
   91SAPS  C314 8928   1.525   5.253   8.510 -0.0323 -0.3885 -0.2890
   91SAPS  H14X 8929   1.491   5.341   8.568 -0.5512 -3.2245  4.2162
   91SAPS  H14Y 8930   1.635   5.255   8.495  0.1592 -1.5943  0.7266
   91SAPS  C315 8931   1.483   5.133   8.594 -0.1255  0.2964 -0.3426
   91SAPS  H15X 8932   1.484   5.038   8.535  3.4247 -0.8738  1.3549
   91SAPS  H15Y 8933   1.374   5.137   8.617  0.1810  2.3219  0.9627
   91SAPS  C316 8934   1.571   5.110   8.718  0.6087  0.4743  0.0235
   91SAPS  H16X 8935   1.674   5.093   8.682  0.1460  0.7673 -1.5011
   91SAPS  H16Y 8936   1.542   5.028   8.787 -1.0930  2.0152  1.2288
   91SAPS  C317 8937   1.571   5.229   8.817 -0.3107 -0.0803  0.2943
   91SAPS  H17X 8938   1.617   5.317   8.767 -2.5312  0.1012 -1.5858
   91SAPS  H17Y 8939   1.631   5.187   8.901 -0.6813 -1.3218 -0.0487
   91SAPS  C318 8940   1.436   5.262   8.870 -0.0559 -0.2887  0.8513
   91SAPS  H18X 8941   1.436   5.322   8.963 -2.6386  2.7074 -0.8861
   91SAPS  H18Y 8942   1.382   5.171   8.903 -2.5242  0.0533 -1.8223
   91SAPS  H18Z 8943   1.376   5.317   8.794  0.2479  0.1961  0.9581
   92SAPS     N 8944   4.458   1.914   6.124  0.0089 -0.9352 -0.8894
   92SAPS   HN1 8945   4.383   1.845   6.142  0.9710 -1.6460  0.5588
   92SAPS   HN2 8946   4.496   1.909   6.027  1.9345 -1.5316 -0.1615
   92SAPS   HN3 8947   4.538   1.905   6.190 -2.3424 -1.5828  2.0628
   92SAPS   C12 8948   4.402   2.053   6.139  0.8479 -0.0858  0.2507
   92SAPS  H12A 8949   4.467   2.124   6.091  0.3307 -0.3058 -0.8082
   92SAPS   C13 8950   4.264   2.075   6.084  0.6860 -0.4310 -0.2876
   92SAPS  O13A 8951   4.194   1.975   6.053  0.4451 -0.2411 -0.3343
   92SAPS  O13B 8952   4.206   2.189   6.083 -0.4978  0.4493 -0.2089
   92SAPS   C11 8953   4.394   2.086   6.292 -0.3733  0.7358 -0.2430
   92SAPS  H11A 8954   4.343   1.998   6.337  1.1446  0.3379  0.7790
   92SAPS  H11B 8955   4.325   2.165   6.328  0.2062  0.6016  1.2272
   92SAPS     P 8956   4.557   2.136   6.496 -0.3065 -0.2326 -0.1733
   92SAPS   O13 8957   4.699   2.176   6.509  0.3272  0.0321  0.1596
   92SAPS   O14 8958   4.457   2.237   6.538  0.6982  0.0522  0.4174
   92SAPS   O12 8959   4.525   2.099   6.344 -0.4879 -0.0298  0.3474
   92SAPS   O11 8960   4.521   2.001   6.581 -0.3845  0.1355 -0.1492
   92SAPS    C1 8961   4.523   2.004   6.724 -0.1974 -0.2398 -0.6560
   92SAPS    HA 8962   4.553   1.906   6.768 -2.1057 -0.5457  0.0413
   92SAPS    HB 8963   4.589   2.084   6.762 -1.0669 -0.4869  1.5054
   92SAPS    C2 8964   4.378   2.034   6.784  0.8295  0.1422 -0.0931
   92SAPS    HS 8965   4.364   2.144   6.789 -0.0459 -0.0038  0.8542
   92SAPS   O21 8966   4.359   1.976   6.914 -0.4125  0.3814  0.6034
   92SAPS   C21 8967   4.427   2.034   7.015  1.3858 -0.1529 -0.5499
   92SAPS   O22 8968   4.483   2.139   7.000 -0.3718  0.2702 -0.0494
   92SAPS   C22 8969   4.400   1.966   7.148 -0.4773 -1.1694 -0.7331
   92SAPS   H2R 8970   4.292   1.964   7.174 -0.5805  0.7909 -0.9405
   92SAPS   H2S 8971   4.439   1.862   7.136 -0.4366 -1.1499 -0.7673
   92SAPS    C3 8972   4.259   1.969   6.687  0.1852 -0.3891 -0.0764
   92SAPS    HX 8973   4.299   1.873   6.647 -0.9711 -1.0801  0.3895
   92SAPS    HY 8974   4.259   2.038   6.600  0.1914 -2.2876 -1.6858
   92SAPS   O31 8975   4.132   1.945   6.754 -0.3770 -0.3718 -0.3915
   92SAPS   C31 8976   4.061   2.050   6.775  0.0916 -0.2445  0.1855
   92SAPS   O32 8977   4.080   2.161   6.730  0.1010 -0.4973 -0.2272
   92SAPS   C32 8978   3.939   2.018   6.865 -0.2236  0.6718 -0.1475
   92SAPS   H2X 8979   3.879   1.943   6.810  1.1081 -0.4043 -0.1972
   92SAPS   H2Y 8980   3.887   2.113   6.890  0.9864  1.5110 -0.6763
   92SAPS   C23 8981   4.481   2.036   7.263  0.2932  0.3019  0.8675
   92SAPS   H3R 8982   4.452   2.143   7.272 -2.9506 -0.2204 -1.6321
   92SAPS   H3S 8983   4.589   2.043   7.238  0.2941  1.3054  1.1052
   92SAPS   C24 8984   4.470   1.970   7.399  0.3053 -0.6127  0.4396
   92SAPS   H4R 8985   4.497   1.862   7.400 -0.9319 -0.9380  0.1417
   92SAPS   H4S 8986   4.361   1.978   7.421  0.5864  2.8793  1.1257
   92SAPS   C25 8987   4.522   2.057   7.511  0.2265 -0.7536  0.1312
   92SAPS   H5R 8988   4.508   2.161   7.477 -3.0684 -1.3801 -0.7325
   92SAPS   C26 8989   4.540   2.032   7.640  0.0581  0.3035  0.1025
   92SAPS   H6R 8990   4.569   2.119   7.700  0.7136  0.5167 -0.4998
   92SAPS   C27 8991   4.525   1.898   7.705  0.0007  0.1296  0.2991
   92SAPS   H7R 8992   4.517   1.820   7.627  1.6415  0.4536 -0.2399
   92SAPS   H7S 8993   4.432   1.890   7.766  0.6269 -1.5897  1.1009
   92SAPS   C28 8994   4.632   1.856   7.797  0.6088 -0.8402  0.5387
   92SAPS   H8R 8995   4.730   1.862   7.747  0.1778 -1.1667 -0.3537
   92SAPS   C29 8996   4.630   1.794   7.919 -0.2247  0.0541 -0.1915
   92SAPS   H9R 8997   4.720   1.774   7.979 -1.6798 -1.1036  1.7711
   92SAPS  C210 8998   4.496   1.775   7.989 -0.1871  0.1524 -0.7755
   92SAPS  H10R 8999   4.402   1.794   7.933 -1.3755 -0.7516  0.8242
   92SAPS  H10S 9000   4.492   1.842   8.077  1.8307 -0.4348 -0.1890
   92SAPS  C211 9001   4.481   1.636   8.039 -0.5910 -0.0941  0.4295
   92SAPS  H11R 9002   4.449   1.561   7.965 -1.0321  0.3166  0.2000
   92SAPS  C212 9003   4.507   1.583   8.165  0.3708 -0.0638 -0.0104
   92SAPS  H12R 9004   4.474   1.479   8.181 -1.5066  0.7097  1.4747
   92SAPS  C213 9005   4.559   1.660   8.284 -0.8783 -0.5877 -0.2230
   92SAPS  H13R 9006   4.593   1.763   8.259  1.7060 -1.1996  0.5537
   92SAPS  H13S 9007   4.645   1.604   8.325 -0.9521 -0.3212  0.3004
   92SAPS  C214 9008   4.448   1.665   8.385  0.0685 -0.2429 -1.0933
   92SAPS  H14R 9009   4.349   1.632   8.350  0.1659 -1.8774  0.0670
   92SAPS  C215 9010   4.456   1.687   8.520 -0.0885  0.1491 -0.6717
   92SAPS  H15R 9011   4.366   1.708   8.579  1.2365  0.0581  1.4807
   92SAPS  C216 9012   4.592   1.729   8.583 -0.0055  0.2573  0.8174
   92SAPS  H16R 9013   4.578   1.815   8.652  2.5917  1.2641  0.2051
   92SAPS  H16S 9014   4.649   1.774   8.500 -1.5611 -1.0602 -1.0396
   92SAPS  C217 9015   4.672   1.614   8.651 -0.9202 -0.6473  0.8553
   92SAPS  H17R 9016   4.617   1.580   8.741 -0.7512  0.6406  1.4673
   92SAPS  H17S 9017   4.766   1.659   8.689  0.3192  0.1311 -2.7138
   92SAPS  C218 9018   4.718   1.484   8.563  0.3829 -0.7511 -0.4409
   92SAPS  H18R 9019   4.783   1.513   8.477 -0.6183 -0.1265 -1.0130
   92SAPS  H18S 9020   4.626   1.440   8.518 -0.8327  0.3446  0.8844
   92SAPS  C219 9021   4.795   1.374   8.643  1.0334 -1.1405 -0.0413
   92SAPS  H19R 9022   4.728   1.332   8.722  1.5901 -2.1696 -0.1027
   92SAPS  H19S 9023   4.875   1.426   8.699  0.3354  2.3844 -2.0442
   92SAPS  C220 9024   4.839   1.250   8.566  0.4402  0.1675 -0.0759
   92SAPS  H20R 9025   4.892   1.285   8.476 -2.5420  1.4768 -1.4571
   92SAPS  H20S 9026   4.748   1.193   8.536  0.3453 -0.5918  1.5466
   92SAPS  H20T 9027   4.904   1.184   8.628 -0.4098 -1.3456 -0.7377
   92SAPS   C33 9028   3.975   1.950   6.997  0.6530  0.3260 -0.5664
   92SAPS   H3X 9029   4.063   1.882   6.994 -1.3391 -2.4952  0.6001
   92SAPS   H3Y 9030   3.886   1.886   7.016  0.5498  0.2636 -1.2465
   92SAPS   C34 9031   4.012   2.043   7.110  0.0180 -0.1814  0.4226
   92SAPS   H4X 9032   3.950   2.134   7.092  0.1887 -0.4667 -1.8977
   92SAPS   H4Y 9033   4.119   2.070   7.102 -0.1231  0.3183  0.1766
   92SAPS   C35 9034   3.999   1.989   7.247 -0.6143 -0.6586  0.1334
   92SAPS   H5X 9035   4.073   1.909   7.271  0.2057  0.0759  0.0744
   92SAPS   H5Y 9036   3.899   1.941   7.256  0.1145 -2.2162  0.2430
   92SAPS   C36 9037   4.036   2.102   7.352 -0.5079  0.9061 -0.1002
   92SAPS   H6X 9038   3.973   2.187   7.318 -1.6475 -0.3690 -1.2968
   92SAPS   H6Y 9039   4.144   2.125   7.338  0.0506  0.6631  3.0942
   92SAPS   C37 9040   4.017   2.063   7.507  0.2983  0.2166  0.0524
   92SAPS   H7X 9041   4.037   1.954   7.519 -2.6240 -0.6399 -1.8798
   92SAPS   H7Y 9042   3.914   2.075   7.545  1.2047  1.1132  2.4130
   92SAPS   C38 9043   4.125   2.140   7.590 -1.2078  0.1473  0.1086
   92SAPS   H8X 9044   4.128   2.248   7.563  0.9211  0.1321  0.0928
   92SAPS   H8Y 9045   4.228   2.109   7.563 -1.5143  0.3047 -1.3077
   92SAPS   C39 9046   4.092   2.110   7.737  0.0153 -0.2905 -0.0998
   92SAPS   H9X 9047   4.082   2.000   7.749 -2.7191 -0.0739  0.3906
   92SAPS   H9Y 9048   3.989   2.150   7.751  0.4801  1.0844 -0.4338
   92SAPS  C310 9049   4.188   2.173   7.843  0.0978 -0.0668 -0.0119
   92SAPS  H10X 9050   4.223   2.277   7.823 -0.5263  0.3998  1.2096
   92SAPS  H10Y 9051   4.280   2.111   7.846 -0.6453 -1.1895  2.3420
   92SAPS  C311 9052   4.128   2.161   7.980  0.7524 -0.4213  0.2522
   92SAPS  H11X 9053   4.087   2.059   7.994  1.4354 -0.7715 -0.2195
   92SAPS  H11Y 9054   4.043   2.232   7.991  1.5806  0.5281  0.7447
   92SAPS  C312 9055   4.228   2.192   8.088  0.1830  0.1345  0.0340
   92SAPS  H12X 9056   4.176   2.197   8.186  1.6579  1.8681  0.7720
   92SAPS  H12Y 9057   4.271   2.293   8.071 -0.4226  0.0304 -2.5588
   92SAPS  C313 9058   4.333   2.088   8.110 -0.5476  0.0993  0.9833
   92SAPS  H13X 9059   4.417   2.088   8.037  1.0415 -0.5583  2.7348
   92SAPS  H13Y 9060   4.282   1.989   8.106 -1.8063  0.7428 -2.3536
   92SAPS  C314 9061   4.409   2.109   8.241 -0.3796 -0.8997  0.6118
   92SAPS  H14X 9062   4.412   2.215   8.273  1.6914 -0.6344 -0.2651
   92SAPS  H14Y 9063   4.516   2.080   8.231 -0.3397 -1.1974  1.7594
   92SAPS  C315 9064   4.356   2.013   8.346  0.4720 -0.5526 -0.1670
   92SAPS  H15X 9065   4.373   1.909   8.310 -0.4079 -0.9846  0.6222
   92SAPS  H15Y 9066   4.247   2.027   8.354  0.4405 -1.1393  0.5933
   92SAPS  C316 9067   4.408   2.055   8.484 -0.1565  0.0280 -0.4228
   92SAPS  H16X 9068   4.519   2.068   8.485  0.1133 -1.9544 -0.1944
   92SAPS  H16Y 9069   4.392   1.973   8.557  1.2235 -0.8509 -1.0592
   92SAPS  C317 9070   4.329   2.170   8.541 -0.1937 -0.4295 -0.2144
   92SAPS  H17X 9071   4.222   2.145   8.558  0.1451 -2.0473 -0.3304
   92SAPS  H17Y 9072   4.322   2.258   8.473  1.7891 -0.0225  0.0663
   92SAPS  C318 9073   4.390   2.233   8.669  0.2435  0.7344  0.0318
   92SAPS  H18X 9074   4.321   2.311   8.706 -1.0554 -0.7509  0.8420
   92SAPS  H18Y 9075   4.486   2.284   8.644  1.0537 -0.7383 -0.0221
   92SAPS  H18Z 9076   4.400   2.156   8.749  1.5429 -0.6359 -1.3842
   93SAPS     N 9077   5.366   4.987   6.492 -0.1570 -0.5889  0.6955
   93SAPS   HN1 9078   5.277   4.982   6.546 -0.6060  2.2875  0.3683
   93SAPS   HN2 9079   5.389   4.888   6.474 -0.5377 -0.7151  0.8781
   93SAPS   HN3 9080   5.443   5.016   6.556 -1.5805  0.3028  2.1054
   93SAPS   C12 9081   5.338   5.068   6.361 -0.5453 -0.3000 -0.0761
   93SAPS  H12A 9082   5.432   5.112   6.332 -0.9457  1.5067  1.1817
   93SAPS   C13 9083   5.302   4.981   6.238  0.5574 -0.4150 -0.6430
   93SAPS  O13A 9084   5.298   4.857   6.259 -0.5407  0.0176  0.1408
   93SAPS  O13B 9085   5.252   5.028   6.134 -0.7865 -0.5242  0.1621
   93SAPS   C11 9086   5.226   5.178   6.386 -0.5019 -0.5333 -0.0544
   93SAPS  H11A 9087   5.128   5.126   6.394 -1.8670  1.9686  0.5468
   93SAPS  H11B 9088   5.205   5.238   6.295  0.7635 -0.2753 -0.1982
   93SAPS     P 9089   5.159   5.378   6.547 -0.1605 -0.1909  0.1467
   93SAPS   O13 9090   5.178   5.508   6.488  0.5201 -0.5229  0.3872
   93SAPS   O14 9091   5.027   5.321   6.534 -0.0976  0.0356 -0.9791
   93SAPS   O12 9092   5.264   5.269   6.494  0.2007 -0.1060  0.2053
   93SAPS   O11 9093   5.196   5.387   6.700  0.1015  0.5327  0.0407
   93SAPS    C1 9094   5.236   5.273   6.766  0.3871 -0.5921 -0.4092
   93SAPS    HA 9095   5.187   5.178   6.734  2.7301 -1.1311 -2.7934
   93SAPS    HB 9096   5.346   5.260   6.765  0.2912 -1.5373 -0.2385
   93SAPS    C2 9097   5.201   5.278   6.918  0.1349 -0.1192  0.1060
   93SAPS    HS 9098   5.094   5.248   6.913  0.5664 -2.2135  1.8064
   93SAPS   O21 9099   5.219   5.413   6.974 -0.3015 -0.7053 -0.2539
   93SAPS   C21 9100   5.128   5.458   7.067  0.2353 -0.7101  0.2080
   93SAPS   O22 9101   5.037   5.392   7.107 -0.3769 -0.3094 -0.5955
   93SAPS   C22 9102   5.150   5.604   7.101 -0.3635  0.0133  0.3524
   93SAPS   H2R 9103   5.261   5.614   7.093 -0.4554 -0.4275 -2.7040
   93SAPS   H2S 9104   5.126   5.670   7.015 -0.4609 -2.3801 -1.5497
   93SAPS    C3 9105   5.274   5.170   7.013 -0.0198  0.2703 -0.5108
   93SAPS    HX 9106   5.223   5.189   7.109 -2.2895  2.2405 -1.9838
   93SAPS    HY 9107   5.380   5.202   7.025  0.4847 -2.0038  1.7474
   93SAPS   O31 9108   5.268   5.041   6.957 -0.1373 -0.3459 -0.1741
   93SAPS   C31 9109   5.285   4.936   7.033  0.3135 -0.0117  0.0423
   93SAPS   O32 9110   5.302   4.934   7.156 -0.2919 -0.0584  0.1072
   93SAPS   C32 9111   5.282   4.821   6.936  0.3737  0.0878  0.0088
   93SAPS   H2X 9112   5.366   4.841   6.865  0.1371  2.4379  0.3238
   93SAPS   H2Y 9113   5.193   4.825   6.870  0.6032  1.3455 -0.2492
   93SAPS   C23 9114   5.096   5.658   7.230  0.9655 -0.7096 -0.0754
   93SAPS   H3R 9115   4.993   5.619   7.234 -0.1850  1.9088 -1.7241
   93SAPS   H3S 9116   5.108   5.769   7.233  1.2929 -0.6646 -1.9126
   93SAPS   C24 9117   5.169   5.600   7.355 -0.2049  0.2427 -0.1179
   93SAPS   H4R 9118   5.184   5.491   7.369 -0.2004  0.1019 -1.1380
   93SAPS   H4S 9119   5.118   5.635   7.447  0.3966 -0.0871  0.3467
   93SAPS   C25 9120   5.304   5.665   7.360 -1.0084  0.2496  0.3947
   93SAPS   H5R 9121   5.339   5.703   7.263 -1.2500  0.1603  0.2705
   93SAPS   C26 9122   5.389   5.670   7.463  0.1543 -0.0136 -0.2970
   93SAPS   H6R 9123   5.482   5.726   7.449 -0.5485  1.3362  0.1740
   93SAPS   C27 9124   5.364   5.600   7.590  0.2140  0.0124  0.3806
   93SAPS   H7R 9125   5.312   5.504   7.569  0.2926 -0.3545  1.7829
   93SAPS   H7S 9126   5.291   5.659   7.649 -2.2291 -1.3177 -1.1707
   93SAPS   C28 9127   5.498   5.588   7.661  0.5720  0.5195 -0.1401
   93SAPS   H8R 9128   5.553   5.503   7.616 -0.6711  0.5769 -1.8908
   93SAPS   C29 9129   5.556   5.655   7.762  0.1121  0.4297  0.1781
   93SAPS   H9R 9130   5.652   5.611   7.794 -0.2493 -0.2717  0.2986
   93SAPS  C210 9131   5.503   5.781   7.821  0.8151  0.5507  0.3579
   93SAPS  H10R 9132   5.469   5.833   7.729  1.0984 -0.6497 -0.4505
   93SAPS  H10S 9133   5.583   5.846   7.862  2.3042  1.0332 -3.0271
   93SAPS  C211 9134   5.393   5.746   7.922 -0.3360 -0.2757  1.1330
   93SAPS  H11R 9135   5.292   5.750   7.880  0.0666 -0.5622  0.1212
   93SAPS  C212 9136   5.404   5.721   8.050 -0.2772  0.7077 -0.5237
   93SAPS  H12R 9137   5.310   5.704   8.105  0.6705 -3.5976  0.1273
   93SAPS  C213 9138   5.526   5.728   8.134 -0.9025  0.4089  0.0217
   93SAPS  H13R 9139   5.548   5.836   8.142  0.3507  0.1458  0.4058
   93SAPS  H13S 9140   5.616   5.684   8.086 -1.0555 -1.8450  1.6561
   93SAPS  C214 9141   5.497   5.662   8.269 -0.5932  0.0037  0.2381
   93SAPS  H14R 9142   5.519   5.554   8.262  1.7621  0.5110 -1.9268
   93SAPS  C215 9143   5.446   5.721   8.376  0.1658  0.1811  0.8482
   93SAPS  H15R 9144   5.427   5.673   8.473 -0.8170  0.5524  0.8530
   93SAPS  C216 9145   5.419   5.870   8.377  0.2456 -1.1938 -0.4662
   93SAPS  H16R 9146   5.329   5.883   8.441 -0.5622 -2.5096 -1.2791
   93SAPS  H16S 9147   5.391   5.911   8.277 -0.5350  2.3545  1.0670
   93SAPS  C217 9148   5.524   5.964   8.435  0.1128 -0.0619 -0.2814
   93SAPS  H17R 9149   5.483   6.067   8.430 -0.3372 -0.1785  0.8201
   93SAPS  H17S 9150   5.617   5.965   8.374  0.4095 -0.1072  0.1671
   93SAPS  C218 9151   5.584   5.929   8.569 -0.3428 -0.0223 -0.8593
   93SAPS  H18R 9152   5.620   5.826   8.585  0.8555  0.5784  0.5638
   93SAPS  H18S 9153   5.507   5.955   8.646  1.3660 -0.8380  1.2308
   93SAPS  C219 9154   5.708   6.025   8.596 -0.1706  0.4076  0.2970
   93SAPS  H19R 9155   5.681   6.130   8.569  4.2491  1.2842 -1.5897
   93SAPS  H19S 9156   5.785   5.997   8.521 -0.4479  0.4612 -0.0097
   93SAPS  C220 9157   5.766   6.029   8.730 -0.1647  0.2567  0.1955
   93SAPS  H20R 9158   5.686   6.058   8.802 -2.7135 -0.0138 -2.3840
   93SAPS  H20S 9159   5.850   6.102   8.736  0.6957 -0.8146  2.5488
   93SAPS  H20T 9160   5.803   5.928   8.759  1.7589  0.5752 -0.9987
   93SAPS   C33 9161   5.298   4.681   6.998  0.0962 -0.6866 -0.4546
   93SAPS   H3X 9162   5.394   4.673   7.054  0.1298  0.2862 -0.3701
   93SAPS   H3Y 9163   5.286   4.606   6.917 -1.1986  1.4017 -2.3130
   93SAPS   C34 9164   5.181   4.654   7.102  0.0356 -0.4238 -0.3535
   93SAPS   H4X 9165   5.077   4.646   7.063 -0.3973  1.3603  0.3756
   93SAPS   H4Y 9166   5.178   4.737   7.175 -2.1852 -0.1774 -0.6693
   93SAPS   C35 9167   5.193   4.535   7.191 -0.1495  0.2818 -0.2974
   93SAPS   H5X 9168   5.291   4.558   7.239 -0.2982  0.6857 -0.1831
   93SAPS   H5Y 9169   5.205   4.439   7.137  2.2138 -0.4266  1.3137
   93SAPS   C36 9170   5.083   4.530   7.293  0.4390 -0.4523  0.4724
   93SAPS   H6X 9171   5.076   4.434   7.349 -5.2236  0.1505  1.3131
   93SAPS   H6Y 9172   4.978   4.534   7.258  0.6673  0.1021 -0.1879
   93SAPS   C37 9173   5.098   4.634   7.401 -0.0196  0.0058  0.1127
   93SAPS   H7X 9174   5.071   4.735   7.364 -0.0343  0.3517  1.0277
   93SAPS   H7Y 9175   5.201   4.616   7.438  0.2586 -0.1915 -0.7334
   93SAPS   C38 9176   5.007   4.620   7.526  0.3175 -0.0790 -0.5041
   93SAPS   H8X 9177   5.015   4.524   7.580 -2.2821 -0.9870 -1.5408
   93SAPS   H8Y 9178   4.901   4.612   7.493  0.4669 -1.9939 -0.6353
   93SAPS   C39 9179   5.036   4.731   7.625  0.0608  0.0744 -0.1828
   93SAPS   H9X 9180   4.956   4.806   7.608  0.5794  0.4566 -1.0085
   93SAPS   H9Y 9181   5.131   4.785   7.606 -0.7934  1.4018 -0.8623
   93SAPS  C310 9182   5.023   4.674   7.770 -0.0775 -0.3898 -0.0593
   93SAPS  H10X 9183   5.092   4.587   7.774  0.0683 -0.5679 -3.6654
   93SAPS  H10Y 9184   4.918   4.638   7.783  0.0695 -1.0946 -0.7425
   93SAPS  C311 9185   5.060   4.773   7.892 -0.4242 -0.4009  0.8648
   93SAPS  H11X 9186   4.979   4.847   7.881 -1.5042 -1.6475  0.1786
   93SAPS  H11Y 9187   5.159   4.819   7.870  0.1419 -1.2262  1.6059
   93SAPS  C312 9188   5.063   4.711   8.034 -0.0048 -0.1438 -0.3992
   93SAPS  H12X 9189   5.145   4.637   8.036 -1.4972 -2.0356 -2.8500
   93SAPS  H12Y 9190   4.978   4.643   8.053 -0.3367  0.3660 -0.0182
   93SAPS  C313 9191   5.080   4.815   8.146 -0.7973  1.1539 -0.4616
   93SAPS  H13X 9192   4.997   4.889   8.141 -1.6720  0.5920  2.9673
   93SAPS  H13Y 9193   5.176   4.866   8.125 -0.6248  0.2922 -1.8446
   93SAPS  C314 9194   5.078   4.761   8.291  0.0154 -0.1388  0.3895
   93SAPS  H14X 9195   5.171   4.702   8.302 -0.1565 -0.3967  0.4812
   93SAPS  H14Y 9196   5.000   4.682   8.298  0.0681 -0.0894  1.8407
   93SAPS  C315 9197   5.074   4.863   8.407  0.2033 -0.8428 -0.1601
   93SAPS  H15X 9198   5.010   4.952   8.388  0.6116  0.2735  3.1187
   93SAPS  H15Y 9199   5.178   4.900   8.421 -0.3728  0.9357 -0.3431
   93SAPS  C316 9200   5.039   4.788   8.534  0.0929  0.2095 -0.4011
   93SAPS  H16X 9201   5.094   4.693   8.517  1.6768  1.1301 -0.6687
   93SAPS  H16Y 9202   4.931   4.763   8.527 -0.0912  1.0403 -0.5861
   93SAPS  C317 9203   5.075   4.864   8.658  0.5058 -0.0260 -0.3662
   93SAPS  H17X 9204   5.029   4.965   8.665 -0.0632 -0.2904 -0.2901
   93SAPS  H17Y 9205   5.185   4.881   8.661  0.5395  0.2817 -2.0595
   93SAPS  C318 9206   5.046   4.787   8.787  0.4664  0.0098 -0.0509
   93SAPS  H18X 9207   5.086   4.856   8.864 -0.6573  0.9126 -0.2564
   93SAPS  H18Y 9208   5.094   4.688   8.802  0.1293  0.1582  2.5259
   93SAPS  H18Z 9209   4.939   4.778   8.816  0.6748 -0.8997  0.4673
   94SAPS     N 9210   2.603   0.056   5.954  0.2676 -0.1317 -0.4459
   94SAPS   HN1 9211   2.541   0.036   6.036  0.5288 -2.7622 -0.7821
   94SAPS   HN2 9212   2.632   0.155   5.952  4.6809 -1.1578  1.4836
   94SAPS   HN3 9213   2.536   0.039   5.876 -0.6015  3.2582 -0.5822
   94SAPS   C12 9214   2.729  -0.025   5.955  0.4455 -0.2192 -0.2859
   94SAPS  H12A 9215   2.733  -0.105   5.883 -1.3174 -1.2343  0.6525
   94SAPS   C13 9216   2.860   0.061   5.935  0.4623  0.0740 -0.4464
   94SAPS  O13A 9217   2.851   0.187   5.936 -0.2796  0.1446 -0.0465
   94SAPS  O13B 9218   2.965  -0.000   5.903  0.1928 -0.2879 -0.4151
   94SAPS   C11 9219   2.745  -0.076   6.105  0.8694  0.4293  0.1885
   94SAPS  H11A 9220   2.779   0.009   6.169 -0.9651  1.9703 -0.8054
   94SAPS  H11B 9221   2.829  -0.149   6.109 -0.4272 -1.2113 -1.0136
   94SAPS     P 9222   2.568  -0.276   6.134 -0.1481 -0.1849 -0.2764
   94SAPS   O13 9223   2.562  -0.297   5.985  0.3702  0.1299 -0.4132
   94SAPS   O14 9224   2.659  -0.370   6.203  0.2124  0.2060  0.4884
   94SAPS   O12 9225   2.620  -0.130   6.155 -0.3084 -0.6242 -0.2296
   94SAPS   O11 9226   2.425  -0.280   6.202 -0.5657 -0.2283  0.2854
   94SAPS    C1 9227   2.379  -0.183   6.290 -0.1704  0.1290 -0.3992
   94SAPS    HA 9228   2.408  -0.085   6.247  0.3807 -0.1160 -0.6045
   94SAPS    HB 9229   2.269  -0.193   6.285  0.0008 -3.2899 -0.0478
   94SAPS    C2 9230   2.397  -0.210   6.440  0.4628 -0.7217 -0.5816
   94SAPS    HS 9231   2.318  -0.146   6.485 -0.0398 -0.2772 -2.0425
   94SAPS   O21 9232   2.525  -0.177   6.481 -0.0052 -0.5193 -0.4174
   94SAPS   C21 9233   2.551  -0.046   6.469 -0.1884 -0.0209 -0.0538
   94SAPS   O22 9234   2.475   0.042   6.450  0.0394 -0.3416  0.1203
   94SAPS   C22 9235   2.701  -0.022   6.492  0.2391  0.8316  0.2138
   94SAPS   H2R 9236   2.764  -0.083   6.423  3.1214  1.3837  2.1617
   94SAPS   H2S 9237   2.724   0.086   6.475 -2.8195  1.5432  0.1158
   94SAPS    C3 9238   2.366  -0.360   6.465  0.1443  0.1985 -0.0098
   94SAPS    HX 9239   2.438  -0.412   6.398 -2.0560 -2.0042 -0.8212
   94SAPS    HY 9240   2.264  -0.376   6.426 -1.0251  2.7314  1.7335
   94SAPS   O31 9241   2.373  -0.387   6.606 -0.0183 -0.0223 -0.2851
   94SAPS   C31 9242   2.479  -0.438   6.660  0.6682 -0.3902  0.8718
   94SAPS   O32 9243   2.581  -0.475   6.599 -0.3358 -0.2456  0.2835
   94SAPS   C32 9244   2.453  -0.451   6.806  0.1951  0.7418  0.5155
   94SAPS   H2X 9245   2.513  -0.535   6.847 -0.2979  0.4939  0.7350
   94SAPS   H2Y 9246   2.345  -0.469   6.819 -0.1009  0.9173 -1.4305
   94SAPS   C23 9247   2.736  -0.071   6.636 -0.6331 -0.1147 -0.2440
   94SAPS   H3R 9248   2.711  -0.179   6.639 -0.8874 -0.0280  0.9826
   94SAPS   H3S 9249   2.684  -0.013   6.715 -0.2658 -1.5831  1.1250
   94SAPS   C24 9250   2.895  -0.055   6.658  0.1001  0.6293  0.3782
   94SAPS   H4R 9251   2.966  -0.100   6.584 -1.1851 -0.9725  0.0543
   94SAPS   H4S 9252   2.904  -0.103   6.758 -0.8952 -0.9851 -0.2614
   94SAPS   C25 9253   2.934   0.089   6.673 -0.7458 -0.4195 -0.4358
   94SAPS   H5R 9254   2.940   0.141   6.576  0.1416 -0.5821 -0.4782
   94SAPS   C26 9255   2.953   0.158   6.784 -0.3459 -0.1060  0.2341
   94SAPS   H6R 9256   2.993   0.259   6.770  0.4311 -0.5083 -0.5939
   94SAPS   C27 9257   2.955   0.115   6.932  0.5944 -0.0552  0.3125
   94SAPS   H7R 9258   2.872   0.044   6.953  1.1069 -1.5018 -2.0591
   94SAPS   H7S 9259   2.944   0.201   7.001 -0.8231  0.2038 -0.2003
   94SAPS   C28 9260   3.090   0.054   6.966 -0.0569 -0.7481  0.4441
   94SAPS   H8R 9261   3.179   0.093   6.914 -0.4609  2.1847  1.7477
   94SAPS   C29 9262   3.103  -0.056   7.038 -0.5636 -0.4759  0.2388
   94SAPS   H9R 9263   3.205  -0.090   7.060 -0.1234 -0.6646 -1.8889
   94SAPS  C210 9264   2.995  -0.144   7.097 -0.2627 -1.0705  0.0823
   94SAPS  H10R 9265   2.901  -0.092   7.129  1.1985  0.5651  1.9870
   94SAPS  H10S 9266   3.026  -0.166   7.201 -0.3463  2.3035  0.9372
   94SAPS  C211 9267   2.963  -0.272   7.027  0.5366  0.0978  0.4999
   94SAPS  H11R 9268   2.985  -0.275   6.919  0.2559 -0.8924  0.4605
   94SAPS  C212 9269   2.962  -0.396   7.076  0.0849  0.0032  0.1117
   94SAPS  H12R 9270   2.929  -0.474   7.005  2.2655 -0.1495 -0.8306
   94SAPS  C213 9271   2.978  -0.441   7.219 -0.9726 -0.3781  0.8450
   94SAPS  H13R 9272   2.881  -0.474   7.261 -1.6530  1.9371  1.2429
   94SAPS  H13S 9273   3.015  -0.357   7.282  0.3737 -1.4093  1.4659
   94SAPS  C214 9274   3.065  -0.562   7.231  0.1763 -0.5261  0.4687
   94SAPS  H14R 9275   3.037  -0.644   7.164  0.4335 -0.3324  0.1218
   94SAPS  C215 9276   3.169  -0.572   7.305 -0.0018  0.1129 -0.3217
   94SAPS  H15R 9277   3.226  -0.666   7.303  0.1068  0.1613  0.1915
   94SAPS  C216 9278   3.218  -0.470   7.401 -0.8713 -0.1304  0.7629
   94SAPS  H16R 9279   3.222  -0.371   7.350  0.1206 -0.1734  0.7354
   94SAPS  H16S 9280   3.323  -0.497   7.428 -0.4669 -1.3050 -1.7144
   94SAPS  C217 9281   3.137  -0.465   7.521 -0.0398 -0.0604  0.2645
   94SAPS  H17R 9282   3.147  -0.563   7.571  0.4891  0.6003  1.4970
   94SAPS  H17S 9283   3.029  -0.447   7.504  0.2743  0.7318 -1.0014
   94SAPS  C218 9284   3.199  -0.371   7.632 -0.0983  0.2850 -0.1670
   94SAPS  H18R 9285   3.210  -0.269   7.590 -3.4722 -0.5513 -3.6830
   94SAPS  H18S 9286   3.299  -0.415   7.654  0.0855 -0.0512 -1.5755
   94SAPS  C219 9287   3.112  -0.372   7.761  0.6840 -0.5239  0.3012
   94SAPS  H19R 9288   3.084  -0.473   7.796 -0.3474  0.0715  1.2631
   94SAPS  H19S 9289   3.023  -0.310   7.739 -0.4678 -2.1299  0.2899
   94SAPS  C220 9290   3.177  -0.286   7.875 -0.4238 -0.2210 -0.3777
   94SAPS  H20R 9291   3.284  -0.314   7.873  0.0245  1.3481  0.1159
   94SAPS  H20S 9292   3.124  -0.288   7.973  1.5500  2.0615  0.8423
   94SAPS  H20T 9293   3.181  -0.178   7.849 -1.2371 -0.3573 -1.1203
   94SAPS   C33 9294   2.479  -0.322   6.883 -0.1505 -0.3870 -0.0052
   94SAPS   H3X 9295   2.434  -0.225   6.852  0.3385  0.0147  0.5515
   94SAPS   H3Y 9296   2.588  -0.305   6.876 -0.1465  0.1702  1.1903
   94SAPS   C34 9297   2.452  -0.336   7.031 -0.2517 -0.7060 -0.4520
   94SAPS   H4X 9298   2.472  -0.438   7.071 -1.7315 -0.6495  0.5349
   94SAPS   H4Y 9299   2.350  -0.308   7.066 -0.6523 -0.3264 -1.8861
   94SAPS   C35 9300   2.543  -0.247   7.120  0.9055 -0.5411  0.7025
   94SAPS   H5X 9301   2.518  -0.142   7.092  1.2563 -0.9274 -1.1716
   94SAPS   H5Y 9302   2.646  -0.267   7.083  1.6958  1.6725  1.5207
   94SAPS   C36 9303   2.533  -0.273   7.270  0.9473  0.0468  0.2052
   94SAPS   H6X 9304   2.573  -0.374   7.296 -0.6900 -0.6246  0.2834
   94SAPS   H6Y 9305   2.424  -0.292   7.284  0.7345  1.1141  0.0723
   94SAPS   C37 9306   2.588  -0.159   7.348  0.4143 -0.6063 -0.0401
   94SAPS   H7X 9307   2.514  -0.078   7.336  0.0133 -0.9667 -0.0271
   94SAPS   H7Y 9308   2.687  -0.140   7.302 -0.4155  2.3626 -0.7757
   94SAPS   C38 9309   2.604  -0.190   7.504 -0.1720  0.1200  0.0547
   94SAPS   H8X 9310   2.505  -0.210   7.551  0.2512 -0.3161  0.7858
   94SAPS   H8Y 9311   2.647  -0.102   7.557 -2.2867  2.1876 -1.4353
   94SAPS   C39 9312   2.692  -0.310   7.532  0.2915  0.0764 -0.2968
   94SAPS   H9X 9313   2.798  -0.283   7.510  0.4272 -1.0913 -1.1336
   94SAPS   H9Y 9314   2.665  -0.403   7.477 -1.4117  0.3904 -0.0560
   94SAPS  C310 9315   2.686  -0.351   7.680  0.4023  0.4363  0.4009
   94SAPS  H10X 9316   2.576  -0.355   7.699  0.3338  0.4313 -0.0016
   94SAPS  H10Y 9317   2.743  -0.276   7.738  1.3080 -0.2963  0.4855
   94SAPS  C311 9318   2.748  -0.490   7.711 -0.6266  0.1833 -0.0515
   94SAPS  H11X 9319   2.852  -0.492   7.670 -0.5120 -0.8674  0.2444
   94SAPS  H11Y 9320   2.685  -0.565   7.659 -1.9513  0.3120  1.2993
   94SAPS  C312 9321   2.761  -0.529   7.865 -0.0128  0.6266  0.0821
   94SAPS  H12X 9322   2.668  -0.535   7.924 -0.6107 -0.6330 -0.9355
   94SAPS  H12Y 9323   2.819  -0.447   7.911  0.6851 -0.2564  0.8335
   94SAPS  C313 9324   2.841  -0.658   7.891 -0.2271  0.4481 -0.5711
   94SAPS  H13X 9325   2.940  -0.664   7.841  0.7476 -1.5467  1.4544
   94SAPS  H13Y 9326   2.783  -0.739   7.841  0.5833  0.4744 -1.5990
   94SAPS  C314 9327   2.882  -0.689   8.041 -0.2983  0.0072  1.0050
   94SAPS  H14X 9328   2.912  -0.592   8.087 -2.8051  1.2355  0.2396
   94SAPS  H14Y 9329   2.967  -0.761   8.031  0.9617  1.6614 -0.8980
   94SAPS  C315 9330   2.771  -0.759   8.123  0.4335 -1.0933  0.2861
   94SAPS  H15X 9331   2.704  -0.814   8.054  0.1195 -0.2383 -0.0989
   94SAPS  H15Y 9332   2.702  -0.678   8.154  0.1643 -1.0861 -0.3156
   94SAPS  C316 9333   2.820  -0.839   8.242 -0.7296  0.6726  0.6729
   94SAPS  H16X 9334   2.904  -0.911   8.235 -1.5425 -0.3316  1.0095
   94SAPS  H16Y 9335   2.736  -0.908   8.263  0.0311  0.3767  2.9706
   94SAPS  C317 9336   2.823  -0.761   8.369  0.0801 -0.0644  0.9488
   94SAPS  H17X 9337   2.781  -0.824   8.450  2.3214 -0.9856  1.4717
   94SAPS  H17Y 9338   2.762  -0.669   8.363  0.3865  0.0919  0.0651
   94SAPS  C318 9339   2.962  -0.706   8.416  0.1086 -0.2111 -0.0114
   94SAPS  H18X 9340   2.951  -0.643   8.507  1.4314 -0.6560  0.4773
   94SAPS  H18Y 9341   3.000  -0.642   8.335 -0.2921  1.2493  0.9188
   94SAPS  H18Z 9342   3.043  -0.780   8.433  0.6752  0.8852  2.5497
   95SAPS     N 9343   2.764   2.673   6.138  0.0119  0.0375  0.4044
   95SAPS   HN1 9344   2.685   2.609   6.160  2.3126 -3.3308 -0.3711
   95SAPS   HN2 9345   2.813   2.642   6.051  1.5359  1.9673  0.5162
   95SAPS   HN3 9346   2.831   2.670   6.217  1.4445  0.6210 -0.7520
   95SAPS   C12 9347   2.723   2.818   6.126  0.4436 -0.0452  0.5373
   95SAPS  H12A 9348   2.815   2.867   6.097  0.1726 -1.0966 -2.3508
   95SAPS   C13 9349   2.614   2.854   6.019  0.3007 -0.0899  0.1916
   95SAPS  O13A 9350   2.569   2.767   5.942  0.1838  0.1099  0.9354
   95SAPS  O13B 9351   2.596   2.977   6.004  0.1259  0.3757  0.3450
   95SAPS   C11 9352   2.679   2.872   6.270 -1.1299  0.4514 -0.2275
   95SAPS  H11A 9353   2.575   2.839   6.293 -1.1340  2.0756  2.4676
   95SAPS  H11B 9354   2.668   2.983   6.276  0.9405  0.6230  1.1550
   95SAPS     P 9355   2.875   2.923   6.435 -0.2316  0.0807  0.1681
   95SAPS   O13 9356   2.970   2.832   6.512 -0.2088  0.1948  0.4071
   95SAPS   O14 9357   2.937   3.008   6.330  0.6719 -0.0701 -0.3540
   95SAPS   O12 9358   2.765   2.825   6.372 -0.0285  0.5311  0.2291
   95SAPS   O11 9359   2.790   3.009   6.535  0.5901 -0.2276 -0.0491
   95SAPS    C1 9360   2.664   2.955   6.587 -0.4787 -0.8007 -0.3179
   95SAPS    HA 9361   2.569   2.997   6.549 -0.8178 -0.3931  0.9708
   95SAPS    HB 9362   2.658   2.844   6.578  0.8338 -0.9432  0.3430
   95SAPS    C2 9363   2.654   2.980   6.748 -0.0672  0.3280 -0.5896
   95SAPS    HS 9364   2.661   3.089   6.767 -0.0642  0.1373  0.5967
   95SAPS   O21 9365   2.749   2.892   6.813  0.6360  0.1743  0.0102
   95SAPS   C21 9366   2.877   2.940   6.814 -0.1980 -0.1054 -0.9343
   95SAPS   O22 9367   2.906   3.058   6.805 -0.6118 -0.2783 -0.3599
   95SAPS   C22 9368   2.978   2.829   6.846  0.5669 -0.8710  0.0707
   95SAPS   H2R 9369   2.962   2.759   6.761 -0.7857 -1.3008  0.6612
   95SAPS   H2S 9370   3.084   2.863   6.851  0.5213 -0.8425  0.9156
   95SAPS    C3 9371   2.510   2.941   6.802  0.0477 -0.4435  0.3370
   95SAPS    HX 9372   2.489   2.834   6.784  0.9865 -0.5659 -0.0590
   95SAPS    HY 9373   2.435   3.000   6.745  0.8105 -0.1669 -0.4010
   95SAPS   O31 9374   2.499   2.975   6.941 -0.3209  0.5081  0.2915
   95SAPS   C31 9375   2.389   3.031   6.979 -0.1343  0.3339 -0.1788
   95SAPS   O32 9376   2.289   3.045   6.909  1.0825 -0.1696  0.2043
   95SAPS   C32 9377   2.401   3.057   7.126 -0.6280 -0.0977  0.8415
   95SAPS   H2X 9378   2.463   3.149   7.134 -0.7045 -0.1141  1.6786
   95SAPS   H2Y 9379   2.466   2.985   7.182 -0.4777  0.0096  0.8071
   95SAPS   C23 9380   2.946   2.772   6.981  0.2229  0.5790 -0.1300
   95SAPS   H3R 9381   2.843   2.729   6.983  0.8674 -1.1596 -1.7180
   95SAPS   H3S 9382   2.940   2.847   7.062 -1.9919  1.8030 -1.3248
   95SAPS   C24 9383   3.038   2.646   7.020  0.4194 -1.0828  0.3507
   95SAPS   H4R 9384   2.997   2.560   6.964  0.7423 -1.0014 -0.0128
   95SAPS   H4S 9385   3.000   2.614   7.120  1.2189  1.3311  1.5138
   95SAPS   C25 9386   3.190   2.645   7.006 -0.4012  0.2099  0.1822
   95SAPS   H5R 9387   3.236   2.593   6.921 -2.4261 -2.8680  0.8050
   95SAPS   C26 9388   3.278   2.685   7.102  0.4106  0.3391  0.1209
   95SAPS   H6R 9389   3.386   2.680   7.079  0.6905  2.7215  0.5781
   95SAPS   C27 9390   3.253   2.739   7.235 -0.6671 -0.0605  0.1506
   95SAPS   H7R 9391   3.334   2.693   7.296 -0.9595  2.1454  2.3700
   95SAPS   H7S 9392   3.155   2.701   7.273 -1.2788  0.2353 -1.0986
   95SAPS   C28 9393   3.260   2.890   7.247 -0.2755 -0.1236  0.3577
   95SAPS   H8R 9394   3.253   2.944   7.151  0.4470 -1.5986 -0.5567
   95SAPS   C29 9395   3.263   2.966   7.362  0.1757  0.3009  0.2025
   95SAPS   H9R 9396   3.255   3.076   7.358 -0.7256  0.2291 -0.2710
   95SAPS  C210 9397   3.264   2.910   7.499  0.2655  0.5805 -0.2627
   95SAPS  H10R 9398   3.220   2.808   7.498  2.2494 -0.3251 -0.4260
   95SAPS  H10S 9399   3.196   2.967   7.565  1.4253  1.4905  0.2023
   95SAPS  C211 9400   3.403   2.898   7.563 -0.7137 -0.3508 -0.2609
   95SAPS  H11R 9401   3.478   2.973   7.534 -0.2514 -0.8128 -0.2898
   95SAPS  C212 9402   3.452   2.795   7.638 -0.2708  0.6072  0.2412
   95SAPS  H12R 9403   3.546   2.814   7.691 -0.0803  0.4017 -0.0191
   95SAPS  C213 9404   3.379   2.667   7.670 -0.0969  0.3527  0.1538
   95SAPS  H13R 9405   3.281   2.654   7.618  0.7091  2.6147 -2.1506
   95SAPS  H13S 9406   3.362   2.669   7.779 -1.6334  1.1238 -0.0635
   95SAPS  C214 9407   3.473   2.556   7.627  0.0079  0.8774 -0.3767
   95SAPS  H14R 9408   3.473   2.530   7.520  4.6571 -1.0894 -0.1552
   95SAPS  C215 9409   3.556   2.485   7.698 -0.6209  0.6129 -0.1868
   95SAPS  H15R 9410   3.587   2.390   7.653 -1.0537  0.9887 -1.3153
   95SAPS  C216 9411   3.582   2.493   7.847  0.2575  0.0153 -0.6773
   95SAPS  H16R 9412   3.536   2.577   7.903  3.5357  0.7989  1.1006
   95SAPS  H16S 9413   3.691   2.496   7.866  0.0791  2.7554  0.3227
   95SAPS  C217 9414   3.543   2.363   7.912  0.5853  0.2591 -0.1150
   95SAPS  H17R 9415   3.440   2.341   7.876  0.8861  1.0570 -1.4966
   95SAPS  H17S 9416   3.540   2.370   8.023  0.1990 -2.0316  0.0677
   95SAPS  C218 9417   3.616   2.235   7.885 -0.6508 -0.2127 -0.0972
   95SAPS  H18R 9418   3.628   2.204   7.779  1.7833  3.3755 -1.1004
   95SAPS  H18S 9419   3.551   2.159   7.932 -0.7387  0.3749  0.7611
   95SAPS  C219 9420   3.753   2.203   7.951  0.4352 -0.0579 -0.1442
   95SAPS  H19R 9421   3.827   2.284   7.932  0.1466  0.4508  0.8434
   95SAPS  H19S 9422   3.804   2.113   7.909 -0.7992 -0.9486  0.1988
   95SAPS  C220 9423   3.741   2.183   8.102  0.2250  0.1336 -0.0442
   95SAPS  H20R 9424   3.833   2.136   8.143  0.4702  1.9887  1.6644
   95SAPS  H20S 9425   3.655   2.118   8.130 -0.5302  1.1622  0.0667
   95SAPS  H20T 9426   3.742   2.282   8.153  1.9603  0.3496 -0.4234
   95SAPS   C33 9427   2.267   3.062   7.189  0.6334  0.0030 -0.3351
   95SAPS   H3X 9428   2.214   2.965   7.187 -0.7259  0.7159 -0.0024
   95SAPS   H3Y 9429   2.208   3.133   7.128  0.7292  0.9402  0.6239
   95SAPS   C34 9430   2.254   3.115   7.335 -0.3378 -0.6089  0.1232
   95SAPS   H4X 9431   2.151   3.084   7.361 -1.4461  1.1156 -1.9310
   95SAPS   H4Y 9432   2.267   3.225   7.348 -0.7223 -0.7129  1.6119
   95SAPS   C35 9433   2.347   3.042   7.432  0.1099 -0.2376 -0.1303
   95SAPS   H5X 9434   2.453   3.060   7.404  0.0943 -1.4629 -1.0276
   95SAPS   H5Y 9435   2.331   2.932   7.430 -0.9635 -0.0856 -0.9153
   95SAPS   C36 9436   2.321   3.096   7.572 -0.2910 -0.0865 -0.3061
   95SAPS   H6X 9437   2.221   3.063   7.608 -0.1400 -1.8651 -1.3621
   95SAPS   H6Y 9438   2.337   3.205   7.565 -0.0479 -0.1385 -0.5647
   95SAPS   C37 9439   2.402   3.038   7.683  0.6220 -0.8074  0.2054
   95SAPS   H7X 9440   2.506   3.063   7.651  0.5359 -1.1756 -0.3551
   95SAPS   H7Y 9441   2.394   2.928   7.682  0.0478 -0.7641  0.0620
   95SAPS   C38 9442   2.369   3.087   7.823  0.1060  0.3433 -0.4490
   95SAPS   H8X 9443   2.278   3.034   7.859  0.2787 -0.4819 -1.2006
   95SAPS   H8Y 9444   2.361   3.198   7.823  4.1343  0.7680 -1.2778
   95SAPS   C39 9445   2.487   3.057   7.922 -0.1303 -0.2958 -0.0123
   95SAPS   H9X 9446   2.577   3.089   7.866 -0.6696  1.3680  0.0103
   95SAPS   H9Y 9447   2.498   2.947   7.939  0.2800  0.0986  2.9051
   95SAPS  C310 9448   2.469   3.104   8.064  0.2161  0.3411 -1.2942
   95SAPS  H10X 9449   2.363   3.094   8.098  0.8242  1.5042  1.1949
   95SAPS  H10Y 9450   2.488   3.213   8.074 -1.5987  0.4968  2.0551
   95SAPS  C311 9451   2.549   3.034   8.178  0.5841  0.1006 -0.4837
   95SAPS  H11X 9452   2.657   3.058   8.173  1.3590 -2.7297  1.0233
   95SAPS  H11Y 9453   2.532   2.924   8.182 -0.3813  0.2437 -0.2827
   95SAPS  C312 9454   2.491   3.081   8.316  0.3141 -0.0279  0.3563
   95SAPS  H12X 9455   2.547   3.036   8.401  0.5498 -0.9864 -0.2940
   95SAPS  H12Y 9456   2.388   3.040   8.322  1.2751 -3.2301 -2.0951
   95SAPS  C313 9457   2.497   3.237   8.334  0.0091  0.4268 -0.7601
   95SAPS  H13X 9458   2.395   3.270   8.304 -2.1169 -2.6453  2.2256
   95SAPS  H13Y 9459   2.575   3.274   8.265  3.1919 -0.7492  1.9427
   95SAPS  C314 9460   2.521   3.280   8.482  0.1185  0.2870  0.6628
   95SAPS  H14X 9461   2.453   3.220   8.546 -0.8490  1.8920  1.1929
   95SAPS  H14Y 9462   2.474   3.379   8.497  0.1849  0.4130  0.0502
   95SAPS  C315 9463   2.664   3.276   8.529 -0.0382  0.1501  0.2450
   95SAPS  H15X 9464   2.730   3.317   8.450  2.2963 -0.3619  1.8196
   95SAPS  H15Y 9465   2.697   3.171   8.546  1.2832  0.7491  1.6764
   95SAPS  C316 9466   2.683   3.350   8.663  0.0275  0.1906 -0.4987
   95SAPS  H16X 9467   2.595   3.325   8.727  0.1979 -2.4814 -1.1769
   95SAPS  H16Y 9468   2.702   3.459   8.654  0.5925  0.1631  0.2561
   95SAPS  C317 9469   2.795   3.280   8.744 -0.0552 -0.2182 -0.1755
   95SAPS  H17X 9470   2.887   3.287   8.682 -0.0611 -0.7190 -0.2497
   95SAPS  H17Y 9471   2.770   3.173   8.760 -0.3124  0.1096  1.9054
   95SAPS  C318 9472   2.828   3.355   8.870  0.4585 -0.2259 -0.9180
   95SAPS  H18X 9473   2.906   3.295   8.923  0.8162 -0.4466 -1.6831
   95SAPS  H18Y 9474   2.745   3.355   8.944 -0.4083 -3.5758 -1.7115
   95SAPS  H18Z 9475   2.858   3.460   8.853 -0.1329  0.4167  1.5660
   96SAPS     N 9476   5.161   4.638   6.375 -0.1704  0.3370  0.2193
   96SAPS   HN1 9477   5.227   4.707   6.333  0.5021  0.2907  1.1674
   96SAPS   HN2 9478   5.111   4.578   6.306 -0.2844  0.6418  0.0358
   96SAPS   HN3 9479   5.085   4.694   6.418 -1.4922 -0.8299 -0.5028
   96SAPS   C12 9480   5.243   4.566   6.479 -0.2996  0.2613  0.2524
   96SAPS  H12A 9481   5.166   4.519   6.539 -0.2649 -0.7492 -0.4617
   96SAPS   C13 9482   5.332   4.448   6.431 -0.8722  1.1879  0.1431
   96SAPS  O13A 9483   5.323   4.401   6.315  0.2324  0.0419  0.4574
   96SAPS  O13B 9484   5.384   4.371   6.518  0.0248 -0.2536  0.6888
   96SAPS   C11 9485   5.341   4.661   6.559  0.0833 -0.3970  0.5891
   96SAPS  H11A 9486   5.381   4.607   6.648 -0.6495 -1.6310  0.1776
   96SAPS  H11B 9487   5.274   4.745   6.587 -0.6012 -0.1569 -1.6076
   96SAPS     P 9488   5.610   4.706   6.519 -0.0835 -0.1910  0.1242
   96SAPS   O13 9489   5.673   4.624   6.414  0.5168  0.3213 -0.3943
   96SAPS   O14 9490   5.665   4.840   6.539  0.1436  0.0289 -0.0716
   96SAPS   O12 9491   5.449   4.718   6.490 -0.1445 -0.1812 -0.4346
   96SAPS   O11 9492   5.613   4.623   6.654 -0.4034  0.3582  0.3462
   96SAPS    C1 9493   5.598   4.676   6.782 -0.9249 -0.4677 -0.0990
   96SAPS    HA 9494   5.552   4.777   6.774 -3.0282 -1.4194 -1.0361
   96SAPS    HB 9495   5.533   4.615   6.848  0.6025  1.4969  3.4994
   96SAPS    C2 9496   5.731   4.683   6.848 -0.3141 -0.3887  0.0576
   96SAPS    HS 9497   5.810   4.706   6.774 -1.5642 -3.6629 -2.5550
   96SAPS   O21 9498   5.757   4.552   6.912 -0.2382 -0.0137  0.5303
   96SAPS   C21 9499   5.877   4.549   6.965 -0.3860 -0.5314  0.0363
   96SAPS   O22 9500   5.970   4.626   6.946 -0.9781 -0.3695 -0.0446
   96SAPS   C22 9501   5.899   4.426   7.050  0.8616 -0.1375 -0.3540
   96SAPS   H2R 9502   5.881   4.331   6.995  0.0911  0.9892 -2.1339
   96SAPS   H2S 9503   6.000   4.431   7.096  0.8579 -0.2271 -0.3366
   96SAPS    C3 9504   5.728   4.799   6.953 -0.1900  0.5472 -0.3663
   96SAPS    HX 9505   5.683   4.887   6.903 -1.1685  0.5697  0.5147
   96SAPS    HY 9506   5.830   4.828   6.987 -0.6820 -0.8942  2.7755
   96SAPS   O31 9507   5.636   4.763   7.064 -0.1550 -0.6400  0.0739
   96SAPS   C31 9508   5.664   4.820   7.176  0.3314  0.2313 -0.8691
   96SAPS   O32 9509   5.738   4.917   7.198 -0.2362 -0.7506 -0.1763
   96SAPS   C32 9510   5.581   4.758   7.290  0.7682 -0.0685  0.1362
   96SAPS   H2X 9511   5.577   4.648   7.276 -0.0483 -0.2183  1.3666
   96SAPS   H2Y 9512   5.477   4.794   7.275  0.7684  0.0693  0.4445
   96SAPS   C23 9513   5.797   4.431   7.171 -0.2330 -0.2547 -0.5916
   96SAPS   H3R 9514   5.689   4.436   7.144 -0.7651 -0.9639  1.1891
   96SAPS   H3S 9515   5.815   4.525   7.227 -1.4797  0.4291 -1.2883
   96SAPS   C24 9516   5.830   4.325   7.278  0.1377 -0.0135  0.1946
   96SAPS   H4R 9517   5.772   4.356   7.368  0.3198  0.9611 -0.0103
   96SAPS   H4S 9518   5.940   4.321   7.288  0.4942 -0.7397 -2.8882
   96SAPS   C25 9519   5.793   4.186   7.231  0.6173  0.2490  0.1553
   96SAPS   H5R 9520   5.857   4.144   7.153 -0.9321  1.4731 -1.8543
   96SAPS   C26 9521   5.667   4.129   7.252 -0.1378  0.0919 -0.2329
   96SAPS   H6R 9522   5.655   4.024   7.221  1.7233  0.2642 -1.6833
   96SAPS   C27 9523   5.551   4.184   7.329  0.1828  0.0531  0.2633
   96SAPS   H7R 9524   5.487   4.247   7.264  0.2697  0.3951  0.5088
   96SAPS   H7S 9525   5.584   4.258   7.405  3.0725  2.4661 -3.0029
   96SAPS   C28 9526   5.471   4.067   7.372 -0.2017 -0.0389 -0.9622
   96SAPS   H8R 9527   5.450   3.993   7.294  1.4754 -1.6153 -0.0157
   96SAPS   C29 9528   5.406   4.061   7.492 -0.1365  0.0531  0.3591
   96SAPS   H9R 9529   5.355   3.966   7.513 -0.0271  0.1261  0.9708
   96SAPS  C210 9530   5.403   4.164   7.596 -0.1819 -0.2466 -0.0145
   96SAPS  H10R 9531   5.493   4.228   7.601 -2.8289  3.7528  1.6248
   96SAPS  H10S 9532   5.413   4.110   7.693 -0.0864  2.8682  1.8322
   96SAPS  C211 9533   5.288   4.265   7.586  0.3205 -0.0394 -0.0298
   96SAPS  H11R 9534   5.249   4.278   7.484 -1.6493 -2.2357  0.3627
   96SAPS  C212 9535   5.209   4.310   7.692 -1.2419 -1.1861  0.1370
   96SAPS  H12R 9536   5.136   4.390   7.673 -0.5542 -0.8598 -1.3183
   96SAPS  C213 9537   5.231   4.279   7.840 -0.1340 -0.5833 -0.5085
   96SAPS  H13R 9538   5.273   4.176   7.843 -0.6806 -0.7919  0.0384
   96SAPS  H13S 9539   5.138   4.295   7.898  0.5959  2.6601 -0.0433
   96SAPS  C214 9540   5.332   4.370   7.901 -0.7044  0.0133 -0.2473
   96SAPS  H14R 9541   5.386   4.439   7.835  0.0592 -0.3542 -0.0223
   96SAPS  C215 9542   5.357   4.374   8.035 -0.2416 -0.4207  0.1305
   96SAPS  H15R 9543   5.428   4.445   8.081  2.1119 -2.1866 -0.5878
   96SAPS  C216 9544   5.285   4.292   8.132  0.1027 -0.4924  0.0104
   96SAPS  H16R 9545   5.354   4.259   8.213 -1.2257  0.7982  1.7666
   96SAPS  H16S 9546   5.254   4.196   8.087  1.5589 -0.2860 -1.5229
   96SAPS  C217 9547   5.168   4.377   8.186 -0.1227  0.9872 -0.4816
   96SAPS  H17R 9548   5.104   4.421   8.107  0.7924  1.7212 -0.8209
   96SAPS  H17S 9549   5.213   4.464   8.237  0.9791 -0.8820  1.9404
   96SAPS  C218 9550   5.097   4.297   8.300 -0.1596  0.1688 -0.5730
   96SAPS  H18R 9551   5.070   4.199   8.256 -0.4669  0.2574 -0.5905
   96SAPS  H18S 9552   5.000   4.343   8.332  0.4323  2.7266 -2.2115
   96SAPS  C219 9553   5.172   4.284   8.433  0.1923 -0.2224 -0.3377
   96SAPS  H19R 9554   5.280   4.266   8.413  1.6009  1.0856  4.5408
   96SAPS  H19S 9555   5.129   4.204   8.496 -0.9654  1.6202  1.3436
   96SAPS  C220 9556   5.170   4.417   8.515  0.8411 -0.0478  0.0168
   96SAPS  H20R 9557   5.204   4.497   8.445 -0.8615 -1.0119 -2.0374
   96SAPS  H20S 9558   5.246   4.410   8.595 -0.0581 -0.3635  0.8535
   96SAPS  H20T 9559   5.069   4.427   8.560  0.8447  1.0108 -0.1843
   96SAPS   C33 9560   5.616   4.789   7.436  0.7025 -0.1233  0.3876
   96SAPS   H3X 9561   5.618   4.897   7.461 -1.8168 -0.0215  0.4040
   96SAPS   H3Y 9562   5.717   4.750   7.463  0.9424 -1.3032 -1.9572
   96SAPS   C34 9563   5.507   4.741   7.539  0.3996 -0.5645  0.7189
   96SAPS   H4X 9564   5.510   4.631   7.551 -0.8490 -0.6499  0.4269
   96SAPS   H4Y 9565   5.405   4.774   7.509  0.1344 -2.2426 -0.3223
   96SAPS   C35 9566   5.523   4.799   7.682 -0.3340  0.0205  0.3602
   96SAPS   H5X 9567   5.495   4.907   7.676  0.1388  0.0764 -1.3680
   96SAPS   H5Y 9568   5.632   4.792   7.704  0.3782  0.8751 -2.3980
   96SAPS   C36 9569   5.429   4.731   7.777  0.5029  0.4050 -0.2736
   96SAPS   H6X 9570   5.462   4.625   7.778 -0.7752  0.0034  0.2326
   96SAPS   H6Y 9571   5.322   4.749   7.753  0.5790  0.8592 -0.2847
   96SAPS   C37 9572   5.443   4.765   7.926  0.7669 -0.4833 -0.0443
   96SAPS   H7X 9573   5.376   4.705   7.991  4.0093 -1.2924  2.8561
   96SAPS   H7Y 9574   5.410   4.869   7.948  1.1515 -0.5126  0.7312
   96SAPS   C38 9575   5.581   4.752   7.987 -0.1551  0.0337 -0.0391
   96SAPS   H8X 9576   5.645   4.828   7.937 -1.4811  1.2822  0.1249
   96SAPS   H8Y 9577   5.619   4.653   7.954  2.4783  0.8615  0.2602
   96SAPS   C39 9578   5.582   4.765   8.140  0.7528  0.4640  0.3412
   96SAPS   H9X 9579   5.527   4.856   8.171 -1.5535 -0.2108 -1.5481
   96SAPS   H9Y 9580   5.680   4.792   8.186  0.5678 -1.7741  2.2389
   96SAPS  C310 9581   5.525   4.644   8.222  0.0839  0.4688  0.6017
   96SAPS  H10X 9582   5.586   4.563   8.176  1.4622  2.2159 -0.8081
   96SAPS  H10Y 9583   5.416   4.635   8.204  0.4485 -0.8804 -1.3228
   96SAPS  C311 9584   5.564   4.654   8.365 -0.0131 -0.5431 -0.0524
   96SAPS  H11X 9585   5.670   4.685   8.360 -0.6003  1.9496  1.3825
   96SAPS  H11Y 9586   5.552   4.561   8.425  1.0520  0.4051  1.7125
   96SAPS  C312 9587   5.472   4.752   8.442  0.0378  0.9038  0.2903
   96SAPS  H12X 9588   5.364   4.740   8.419  0.0058  0.0774  0.8178
   96SAPS  H12Y 9589   5.510   4.852   8.413  1.5717  0.7794  1.7187
   96SAPS  C313 9590   5.500   4.746   8.595  0.0847 -0.2061 -0.4231
   96SAPS  H13X 9591   5.467   4.840   8.645  1.9197  0.8123 -1.0124
   96SAPS  H13Y 9592   5.610   4.732   8.604  0.1929  0.9737  0.3405
   96SAPS  C314 9593   5.449   4.621   8.675  0.5832 -0.3700 -0.0792
   96SAPS  H14X 9594   5.493   4.528   8.633  1.7532  0.5671 -0.9994
   96SAPS  H14Y 9595   5.338   4.613   8.678  0.5787 -1.0418 -1.2696
   96SAPS  C315 9596   5.498   4.619   8.825 -0.2171 -0.7712  0.5870
   96SAPS  H15X 9597   5.438   4.692   8.883 -0.9361 -0.6543 -0.2604
   96SAPS  H15Y 9598   5.604   4.652   8.824 -0.7530  1.2643 -1.9646
   96SAPS  C316 9599   5.486   4.480   8.883 -0.0369 -0.3465 -0.1406
   96SAPS  H16X 9600   5.545   4.413   8.817  0.0964 -0.7297  0.3609
   96SAPS  H16Y 9601   5.381   4.445   8.876 -0.2825  0.5891 -1.5538
   96SAPS  C317 9602   5.521   4.476   9.030 -0.3280  0.2994 -0.6477
   96SAPS  H17X 9603   5.605   4.546   9.048  0.2125 -0.1641 -1.3133
   96SAPS  H17Y 9604   5.558   4.371   9.039 -0.9478  0.0770 -0.6265
   96SAPS  C318 9605   5.407   4.503   9.124 -1.0769 -0.1082 -0.4051
   96SAPS  H18X 9606   5.440   4.564   9.210 -2.1326 -0.0353 -0.0343
   96SAPS  H18Y 9607   5.353   4.413   9.160 -1.5446  0.0455 -0.7020
   96SAPS  H18Z 9608   5.331   4.564   9.070  0.5357  2.5194  0.1290
   97SAPS     N 9609   6.155   2.994   6.318 -0.1902 -0.4065  0.9116
   97SAPS   HN1 9610   6.153   2.941   6.407 -0.5534  1.4305  2.0364
   97SAPS   HN2 9611   6.076   2.973   6.253 -0.4230 -0.3271  1.1662
   97SAPS   HN3 9612   6.243   2.958   6.275 -0.6065 -1.9394  1.2872
   97SAPS   C12 9613   6.175   3.140   6.348  0.1965 -0.2931 -0.1998
   97SAPS  H12A 9614   6.252   3.148   6.423  0.5084 -1.8213 -0.3159
   97SAPS   C13 9615   6.212   3.226   6.222 -0.2883 -0.5679 -0.6167
   97SAPS  O13A 9616   6.201   3.177   6.108 -0.0115  1.1787  0.4452
   97SAPS  O13B 9617   6.246   3.346   6.244 -0.0670 -0.6873 -0.1712
   97SAPS   C11 9618   6.045   3.207   6.407 -0.1278 -0.7973  0.4107
   97SAPS  H11A 9619   5.960   3.181   6.340 -0.5603  0.3325  0.4991
   97SAPS  H11B 9620   6.046   3.318   6.405 -0.0404 -0.6935  2.9501
   97SAPS     P 9621   5.919   3.243   6.636 -0.5275 -0.0257 -0.2249
   97SAPS   O13 9622   6.001   3.298   6.744 -0.1152  0.5672 -0.6083
   97SAPS   O14 9623   5.842   3.343   6.559  0.5465 -0.3635  0.0345
   97SAPS   O12 9624   6.017   3.174   6.537 -0.4418 -0.0723 -0.5534
   97SAPS   O11 9625   5.813   3.140   6.692  0.4321 -0.2371  0.4736
   97SAPS    C1 9626   5.849   3.036   6.786  0.0664  0.2464  0.0404
   97SAPS    HA 9627   5.774   2.956   6.765  0.9461 -0.6626  0.2901
   97SAPS    HB 9628   5.946   2.985   6.771 -0.8345 -1.7529  0.5924
   97SAPS    C2 9629   5.849   3.070   6.940  1.1221 -0.7194 -0.3818
   97SAPS    HS 9630   5.918   3.153   6.964 -2.1328  1.9290  0.5829
   97SAPS   O21 9631   5.870   2.955   7.018 -0.3181 -0.0578 -0.2339
   97SAPS   C21 9632   6.000   2.916   7.018 -0.4203 -0.4228  0.6236
   97SAPS   O22 9633   6.094   2.978   6.974  0.5448 -0.3921 -0.9628
   97SAPS   C22 9634   6.012   2.781   7.084 -0.3060 -0.3513 -0.1510
   97SAPS   H2R 9635   6.112   2.767   7.132 -0.8342 -1.0599  0.7610
   97SAPS   H2S 9636   5.934   2.771   7.163  0.2697  0.7835  0.5935
   97SAPS    C3 9637   5.706   3.129   6.970 -0.0351 -0.1315  0.0690
   97SAPS    HX 9638   5.637   3.042   6.976  0.5602 -0.6152  0.0667
   97SAPS    HY 9639   5.673   3.200   6.892  2.3793  1.2341  0.1845
   97SAPS   O31 9640   5.718   3.205   7.097 -0.7905  0.3109  0.5964
   97SAPS   C31 9641   5.610   3.235   7.154  0.6035 -0.5513 -0.0060
   97SAPS   O32 9642   5.497   3.206   7.114  0.4559 -0.3561 -0.1448
   97SAPS   C32 9643   5.643   3.290   7.290 -0.0390  0.4883 -0.2363
   97SAPS   H2X 9644   5.582   3.382   7.295  0.5182  0.8067  1.2150
   97SAPS   H2Y 9645   5.754   3.303   7.296 -0.0087  0.2721 -0.3037
   97SAPS   C23 9646   6.000   2.660   6.989 -0.2232  0.5938  0.4383
   97SAPS   H3R 9647   6.069   2.680   6.905  1.7394  0.3940  1.9520
   97SAPS   H3S 9648   5.893   2.637   6.965 -0.5703 -0.3170  2.5848
   97SAPS   C24 9649   6.045   2.527   7.050 -0.6009 -0.4747 -0.1152
   97SAPS   H4R 9650   6.154   2.540   7.064 -0.4309  0.1860 -1.7826
   97SAPS   H4S 9651   6.026   2.452   6.970 -2.2761  0.7298 -0.9165
   97SAPS   C25 9652   5.977   2.498   7.181  0.3781 -0.3977  0.5678
   97SAPS   H5R 9653   5.878   2.544   7.185  1.1074  1.2701  0.2832
   97SAPS   C26 9654   6.027   2.421   7.279  0.6741 -0.1041  0.2163
   97SAPS   H6R 9655   5.971   2.415   7.373 -0.0155  2.0355 -0.0162
   97SAPS   C27 9656   6.162   2.357   7.289 -0.4900 -0.0627  0.2763
   97SAPS   H7R 9657   6.189   2.327   7.392 -1.0154 -0.4137  0.3111
   97SAPS   H7S 9658   6.232   2.432   7.246  0.0352 -0.9009 -0.3606
   97SAPS   C28 9659   6.165   2.227   7.214  0.1736 -0.5796 -0.1915
   97SAPS   H8R 9660   6.092   2.225   7.131  0.2618  0.7707 -0.3349
   97SAPS   C29 9661   6.237   2.113   7.232 -0.7223  0.3961 -0.2773
   97SAPS   H9R 9662   6.223   2.023   7.171  0.7145 -0.5359  0.7179
   97SAPS  C210 9663   6.333   2.092   7.342 -0.1116  0.1028  0.3149
   97SAPS  H10R 9664   6.401   2.180   7.339 -0.1079  0.1541 -3.3988
   97SAPS  H10S 9665   6.404   2.012   7.313 -0.4589  0.2038 -0.8716
   97SAPS  C211 9666   6.273   2.062   7.479 -0.7758 -0.3361  0.1345
   97SAPS  H11R 9667   6.164   2.061   7.497 -0.5390 -0.1773  1.7159
   97SAPS  C212 9668   6.353   2.056   7.593  0.3457 -0.9774  0.0582
   97SAPS  H12R 9669   6.294   2.044   7.685 -1.7090 -0.3275 -1.1102
   97SAPS  C213 9670   6.502   2.080   7.606 -0.6453  0.1630 -0.1892
   97SAPS  H13R 9671   6.545   2.125   7.515  3.2794 -0.6225  1.0772
   97SAPS  H13S 9672   6.541   1.977   7.623 -1.2350 -0.0931 -0.3458
   97SAPS  C214 9673   6.546   2.174   7.715  0.3323 -0.4490 -0.2529
   97SAPS  H14R 9674   6.572   2.271   7.670 -1.2451 -0.0378 -0.3349
   97SAPS  C215 9675   6.559   2.153   7.846  0.6557 -0.2122 -0.1275
   97SAPS  H15R 9676   6.601   2.237   7.903  1.1966 -1.7291  1.8411
   97SAPS  C216 9677   6.525   2.028   7.929 -0.5898  0.3124  0.7694
   97SAPS  H16R 9678   6.626   1.993   7.961 -0.2384  1.2643  0.7336
   97SAPS  H16S 9679   6.480   1.961   7.853 -0.3920  0.9767  0.0560
   97SAPS  C217 9680   6.433   2.053   8.051  0.2770  0.1498  0.7393
   97SAPS  H17R 9681   6.412   1.952   8.091  1.6309 -0.5209 -0.1393
   97SAPS  H17S 9682   6.342   2.111   8.027  1.7474  1.8877 -1.0387
   97SAPS  C218 9683   6.513   2.130   8.160 -0.2673  0.0024 -0.1856
   97SAPS  H18R 9684   6.525   2.232   8.118  0.7348 -0.6806 -1.6384
   97SAPS  H18S 9685   6.612   2.080   8.166  0.2804  1.1409  0.7894
   97SAPS  C219 9686   6.450   2.130   8.304  0.1460 -0.5568  0.5739
   97SAPS  H19R 9687   6.351   2.179   8.315 -0.0082 -0.9109  0.7908
   97SAPS  H19S 9688   6.517   2.186   8.373  0.7351 -0.5626  0.0090
   97SAPS  C220 9689   6.449   1.992   8.363  0.1576  0.3491  0.0605
   97SAPS  H20R 9690   6.370   1.935   8.311  0.6396 -0.3726  0.0974
   97SAPS  H20S 9691   6.414   2.002   8.468  0.1581 -1.2844  0.2435
   97SAPS  H20T 9692   6.548   1.941   8.357  0.7830  1.4053  0.9243
   97SAPS   C33 9693   5.588   3.192   7.397  0.2873  0.7427  0.1240
   97SAPS   H3X 9694   5.657   3.105   7.394 -0.8308 -0.2402  1.7044
   97SAPS   H3Y 9695   5.490   3.147   7.369  0.6345 -1.7241  2.5096
   97SAPS   C34 9696   5.572   3.251   7.531 -0.6274  0.1425 -0.1062
   97SAPS   H4X 9697   5.506   3.341   7.528 -1.4443 -0.4384  0.1733
   97SAPS   H4Y 9698   5.668   3.301   7.558  0.4390 -2.5355  1.4502
   97SAPS   C35 9699   5.553   3.153   7.645  0.0802  0.5025  0.2530
   97SAPS   H5X 9700   5.613   3.063   7.618  0.9491  1.4316 -1.0289
   97SAPS   H5Y 9701   5.444   3.132   7.643 -0.2177  1.5155  2.6321
   97SAPS   C36 9702   5.583   3.215   7.775  0.0536 -0.2619  0.6642
   97SAPS   H6X 9703   5.537   3.316   7.775 -0.4599 -0.4741  2.0881
   97SAPS   H6Y 9704   5.693   3.224   7.790  0.4653 -1.0964 -1.4638
   97SAPS   C37 9705   5.505   3.140   7.885 -0.5704  0.5223  0.0281
   97SAPS   H7X 9706   5.520   3.030   7.893 -2.0739  0.2750 -0.1496
   97SAPS   H7Y 9707   5.398   3.144   7.856 -0.5502 -2.0355 -0.7001
   97SAPS   C38 9708   5.528   3.206   8.024 -0.4385  0.1620  0.1487
   97SAPS   H8X 9709   5.509   3.316   8.019  1.7666  0.5798 -0.0614
   97SAPS   H8Y 9710   5.637   3.190   8.040 -0.2758  1.2717  0.2702
   97SAPS   C39 9711   5.450   3.139   8.135  0.5444  0.3539  0.2634
   97SAPS   H9X 9712   5.342   3.159   8.118  0.1622 -3.0627 -2.5890
   97SAPS   H9Y 9713   5.475   3.188   8.231  0.2013  0.3718  0.3439
   97SAPS  C310 9714   5.479   2.984   8.150  0.1725  0.0450 -0.4674
   97SAPS  H10X 9715   5.587   2.963   8.138  0.3499  0.3882  0.5188
   97SAPS  H10Y 9716   5.433   2.923   8.069  0.7790 -0.1792 -0.6514
   97SAPS  C311 9717   5.419   2.917   8.280 -0.0552 -0.6738  0.0056
   97SAPS  H11X 9718   5.412   2.809   8.257 -0.5525 -1.0148  1.6362
   97SAPS  H11Y 9719   5.318   2.964   8.288 -0.0617 -0.9228  1.7453
   97SAPS  C312 9720   5.505   2.942   8.404 -0.4776 -0.0797  0.4879
   97SAPS  H12X 9721   5.522   3.051   8.418  1.5611 -0.4514  1.2504
   97SAPS  H12Y 9722   5.596   2.883   8.379 -1.2192 -1.4723  0.9344
   97SAPS  C313 9723   5.448   2.884   8.532 -0.4381 -0.2549  0.4993
   97SAPS  H13X 9724   5.505   2.917   8.622  1.1473 -2.3186  0.3274
   97SAPS  H13Y 9725   5.454   2.774   8.525 -2.1328 -0.7785  4.4188
   97SAPS  C314 9726   5.298   2.914   8.559 -0.1526 -0.6012  0.0713
   97SAPS  H14X 9727   5.245   2.858   8.479  0.7510 -1.7101  0.2226
   97SAPS  H14Y 9728   5.273   3.020   8.542  3.9223  0.4580 -0.3820
   97SAPS  C315 9729   5.255   2.851   8.685 -0.4430 -0.0967 -0.0181
   97SAPS  H15X 9730   5.169   2.894   8.740  0.6957  0.6220  1.2681
   97SAPS  H15Y 9731   5.343   2.848   8.753  0.6636 -0.4894 -1.4436
   97SAPS  C316 9732   5.227   2.701   8.657  1.0905  0.5465  0.0633
   97SAPS  H16X 9733   5.311   2.637   8.620 -1.2017 -1.3867 -2.2562
   97SAPS  H16Y 9734   5.146   2.708   8.582  0.7854 -0.2290  0.3069
   97SAPS  C317 9735   5.171   2.635   8.783  0.7379 -0.0666  0.4377
   97SAPS  H17X 9736   5.148   2.530   8.755 -0.5481  0.6223 -1.2380
   97SAPS  H17Y 9737   5.071   2.675   8.810  1.4141 -0.8057  4.8588
   97SAPS  C318 9738   5.268   2.627   8.902 -0.6598 -0.2460  0.3372
   97SAPS  H18X 9739   5.219   2.574   8.987  1.3817 -0.4535  1.4391
   97SAPS  H18Y 9740   5.308   2.719   8.949 -2.3540  0.3420  0.7373
   97SAPS  H18Z 9741   5.348   2.556   8.874 -1.4321 -0.6891 -0.8297
   98SAPS     N 9742   0.446   3.353   6.484  0.1881 -0.0050 -0.5467
   98SAPS   HN1 9743   0.504   3.296   6.549 -2.8465 -0.5950  1.8524
   98SAPS   HN2 9744   0.506   3.432   6.451  0.2463  0.0169 -0.3889
   98SAPS   HN3 9745   0.360   3.375   6.538  0.1766 -1.2272 -0.0407
   98SAPS   C12 9746   0.412   3.282   6.358  0.0233  0.0946  0.1217
   98SAPS  H12A 9747   0.315   3.311   6.321 -0.2782 -1.8168 -0.6840
   98SAPS   C13 9748   0.512   3.299   6.244 -0.0545 -0.5261  0.5312
   98SAPS  O13A 9749   0.615   3.366   6.265  0.0409 -0.5103 -0.2144
   98SAPS  O13B 9750   0.484   3.243   6.140 -0.3866 -0.1023 -0.2864
   98SAPS   C11 9751   0.404   3.131   6.399  0.3524  0.0947  0.0365
   98SAPS  H11A 9752   0.362   3.084   6.307 -1.0397  0.9770  0.1901
   98SAPS  H11B 9753   0.333   3.122   6.484  1.1271 -1.8489  0.5306
   98SAPS     P 9754   0.534   2.924   6.484  0.4681 -0.0201 -0.2549
   98SAPS   O13 9755   0.463   2.836   6.384  0.1507  0.0785 -0.4171
   98SAPS   O14 9756   0.676   2.889   6.506 -0.7195  0.5208 -0.7582
   98SAPS   O12 9757   0.535   3.070   6.429 -0.1037  0.0407 -0.4314
   98SAPS   O11 9758   0.450   2.932   6.620 -0.5012  0.1464 -0.2996
   98SAPS    C1 9759   0.507   3.023   6.722 -0.5681  0.6544 -0.2202
   98SAPS    HA 9760   0.599   3.075   6.688  0.5734 -1.1952 -0.0499
   98SAPS    HB 9761   0.428   3.094   6.755 -0.0234  1.1202  0.0978
   98SAPS    C2 9762   0.560   2.955   6.860 -0.5352 -0.0390  0.1451
   98SAPS    HS 9763   0.643   2.883   6.840 -1.1860 -0.9521  0.6621
   98SAPS   O21 9764   0.452   2.890   6.926 -1.0203  0.1812  0.3226
   98SAPS   C21 9765   0.469   2.766   6.954 -0.4482 -0.3617  0.0994
   98SAPS   O22 9766   0.558   2.688   6.916 -0.1047  0.3791  0.6467
   98SAPS   C22 9767   0.366   2.731   7.062 -0.7055 -0.3106  0.4376
   98SAPS   H2R 9768   0.283   2.805   7.071  0.7802  1.1504  3.4950
   98SAPS   H2S 9769   0.322   2.633   7.031 -1.3135  0.1815 -0.2978
   98SAPS    C3 9770   0.617   3.066   6.962 -0.1852 -0.5356  0.5513
   98SAPS    HX 9771   0.532   3.124   7.004  0.3755 -0.5577  1.7595
   98SAPS    HY 9772   0.678   3.141   6.908 -0.4050  0.4058  1.5845
   98SAPS   O31 9773   0.696   3.011   7.069 -0.0359 -0.1025  0.1849
   98SAPS   C31 9774   0.811   2.953   7.036 -0.2358 -0.1670 -0.4529
   98SAPS   O32 9775   0.867   2.962   6.931  0.4550  0.1813 -0.2246
   98SAPS   C32 9776   0.849   2.857   7.145  0.1343  0.5710  0.2117
   98SAPS   H2X 9777   0.940   2.892   7.199  1.9113 -2.1253 -0.7830
   98SAPS   H2Y 9778   0.866   2.756   7.103  0.2058  0.2896  0.8947
   98SAPS   C23 9779   0.414   2.716   7.209  0.7559  0.0778 -0.2628
   98SAPS   H3R 9780   0.462   2.810   7.243 -0.5906  0.0688  1.8126
   98SAPS   H3S 9781   0.486   2.631   7.204 -0.6546 -1.3075  1.5389
   98SAPS   C24 9782   0.321   2.692   7.328 -0.2552 -0.0423 -0.0909
   98SAPS   H4R 9783   0.371   2.687   7.427  0.0641  0.6906 -0.2113
   98SAPS   H4S 9784   0.275   2.592   7.315 -1.9193  0.7451 -0.4712
   98SAPS   C25 9785   0.213   2.803   7.333  0.5811  0.0024 -0.6457
   98SAPS   H5R 9786   0.140   2.791   7.251  0.2065 -0.3733 -0.2629
   98SAPS   C26 9787   0.199   2.897   7.428  0.2942  0.5155 -0.5235
   98SAPS   H6R 9788   0.119   2.970   7.411  0.1418  0.2637 -0.8928
   98SAPS   C27 9789   0.283   2.923   7.551  0.3088 -0.2783  0.4143
   98SAPS   H7R 9790   0.301   3.032   7.545 -2.7855  0.3255  0.1299
   98SAPS   H7S 9791   0.384   2.879   7.539  0.7174  1.0501 -1.4030
   98SAPS   C28 9792   0.231   2.878   7.685  0.4627 -0.1384 -0.1809
   98SAPS   H8R 9793   0.172   2.785   7.687  0.3823 -0.0821  0.3669
   98SAPS   C29 9794   0.260   2.929   7.807 -0.2568  0.0069  0.2548
   98SAPS   H9R 9795   0.225   2.865   7.889  1.3017 -0.4613  0.5872
   98SAPS  C210 9796   0.351   3.050   7.831  0.1681  0.2754  0.3180
   98SAPS  H10R 9797   0.303   3.150   7.839 -2.1710 -0.6180 -1.3597
   98SAPS  H10S 9798   0.428   3.061   7.751  1.5633  2.1666  1.8270
   98SAPS  C211 9799   0.431   3.023   7.960 -0.3368 -0.0064  0.0682
   98SAPS  H11R 9800   0.381   2.967   8.041  2.6124 -1.9558  0.6861
   98SAPS  C212 9801   0.557   3.069   7.979 -0.1828  0.6749 -0.5029
   98SAPS  H12R 9802   0.599   3.062   8.080 -2.9592  2.8523  0.9469
   98SAPS  C213 9803   0.636   3.152   7.874  0.4139 -0.1905  0.5969
   98SAPS  H13R 9804   0.622   3.108   7.773 -0.2352  0.0990  0.5612
   98SAPS  H13S 9805   0.738   3.110   7.893 -0.0186 -2.0593 -0.8904
   98SAPS  C214 9806   0.632   3.308   7.871  0.1056  0.5736 -0.1090
   98SAPS  H14R 9807   0.542   3.346   7.820  0.1541  0.0995 -0.5584
   98SAPS  C215 9808   0.727   3.400   7.899 -0.3892 -0.0681 -0.0357
   98SAPS  H15R 9809   0.708   3.506   7.877 -1.6860  0.1153  1.7871
   98SAPS  C216 9810   0.865   3.366   7.956  0.4987 -0.7245  0.5166
   98SAPS  H16R 9811   0.936   3.435   7.904 -0.8168  0.0051 -0.3653
   98SAPS  H16S 9812   0.896   3.260   7.953 -1.3149 -1.2670 -1.2896
   98SAPS  C217 9813   0.847   3.403   8.107 -0.8928 -0.9157  0.6890
   98SAPS  H17R 9814   0.780   3.325   8.149 -0.5951 -1.3088  0.4423
   98SAPS  H17S 9815   0.797   3.501   8.124 -1.5898 -1.0207 -0.5960
   98SAPS  C218 9816   0.979   3.390   8.193  1.1141 -0.2176  0.1845
   98SAPS  H18R 9817   1.043   3.475   8.160 -1.2872  1.1383 -1.3096
   98SAPS  H18S 9818   1.019   3.291   8.164  0.1645 -1.4135  2.7100
   98SAPS  C219 9819   0.968   3.377   8.342  0.2006 -0.2259 -0.6354
   98SAPS  H19R 9820   0.907   3.286   8.363  2.7130 -1.5469  1.4367
   98SAPS  H19S 9821   0.921   3.469   8.381  0.8857 -0.3760  0.5773
   98SAPS  C220 9822   1.100   3.360   8.410 -0.1927  0.1749  0.2889
   98SAPS  H20R 9823   1.140   3.259   8.388  1.4617  0.1623  2.9292
   98SAPS  H20S 9824   1.078   3.359   8.519 -2.5321  0.1302 -0.1303
   98SAPS  H20T 9825   1.173   3.442   8.391  0.5954 -0.9185 -1.6611
   98SAPS   C33 9826   0.736   2.826   7.244 -0.6533  0.3369 -0.1217
   98SAPS   H3X 9827   0.656   2.769   7.194  0.3611 -0.0689 -1.3043
   98SAPS   H3Y 9828   0.684   2.921   7.272 -0.1620  1.3058 -2.3045
   98SAPS   C34 9829   0.790   2.748   7.370 -0.3602 -0.3909  0.5656
   98SAPS   H4X 9830   0.864   2.805   7.431  4.0729 -0.5419 -4.0084
   98SAPS   H4Y 9831   0.849   2.664   7.327  0.8192  1.6530 -2.1986
   98SAPS   C35 9832   0.681   2.700   7.456  0.1157  0.0718 -0.9588
   98SAPS   H5X 9833   0.603   2.650   7.395  0.3612 -0.6500 -0.7039
   98SAPS   H5Y 9834   0.632   2.784   7.509  2.4804 -0.1473  1.8709
   98SAPS   C36 9835   0.732   2.622   7.582 -0.5335 -0.4405 -0.3063
   98SAPS   H6X 9836   0.823   2.673   7.620 -0.8042  2.1213 -2.8029
   98SAPS   H6Y 9837   0.772   2.522   7.555  1.4942  0.1038  0.4741
   98SAPS   C37 9838   0.630   2.624   7.691  0.0131  0.0776  0.8750
   98SAPS   H7X 9839   0.554   2.553   7.651 -0.9715  0.3686  2.1704
   98SAPS   H7Y 9840   0.591   2.727   7.703  3.3547  1.5621  0.1142
   98SAPS   C38 9841   0.701   2.578   7.822  1.0270  0.5280 -0.8768
   98SAPS   H8X 9842   0.791   2.638   7.846  1.6067 -1.2325  1.6984
   98SAPS   H8Y 9843   0.734   2.473   7.807  1.5387  0.4785  0.5278
   98SAPS   C39 9844   0.597   2.599   7.935 -0.5239  0.2197 -0.5695
   98SAPS   H9X 9845   0.516   2.524   7.926 -1.1096  0.5840  1.2741
   98SAPS   H9Y 9846   0.547   2.699   7.926 -0.9038  0.2275  1.2906
   98SAPS  C310 9847   0.654   2.568   8.077  0.2260  0.3307  0.1844
   98SAPS  H10X 9848   0.719   2.647   8.122 -1.7313  0.7183  2.5492
   98SAPS  H10Y 9849   0.705   2.469   8.079  3.0473  1.6011  3.7374
   98SAPS  C311 9850   0.536   2.550   8.178 -0.7869 -0.1170 -0.3159
   98SAPS  H11X 9851   0.565   2.474   8.253 -0.9906 -1.0593 -1.1723
   98SAPS  H11Y 9852   0.449   2.517   8.118  0.0344  0.5026 -1.9090
   98SAPS  C312 9853   0.498   2.681   8.242  0.3448  0.3805  0.3988
   98SAPS  H12X 9854   0.456   2.748   8.164 -0.3349  1.3791  1.6032
   98SAPS  H12Y 9855   0.593   2.727   8.277  2.6166 -0.9756 -3.3552
   98SAPS  C313 9856   0.408   2.678   8.363  0.0894  0.0714  0.1224
   98SAPS  H13X 9857   0.471   2.624   8.437 -0.5477  1.6418  1.8730
   98SAPS  H13Y 9858   0.318   2.619   8.337 -0.1861 -0.1445  1.5103
   98SAPS  C314 9859   0.369   2.817   8.421  0.8269 -0.1189 -0.3371
   98SAPS  H14X 9860   0.329   2.871   8.333 -0.7533 -1.3745 -0.4257
   98SAPS  H14Y 9861   0.461   2.872   8.451 -0.2881  0.4004  2.3270
   98SAPS  C315 9862   0.270   2.806   8.539 -0.2087 -0.0878  0.1624
   98SAPS  H15X 9863   0.337   2.782   8.624  1.7279 -1.1591 -1.5818
   98SAPS  H15Y 9864   0.188   2.732   8.532  0.8380 -1.2883  0.3450
   98SAPS  C316 9865   0.198   2.941   8.573  0.3652  0.0645 -0.0290
   98SAPS  H16X 9866   0.141   2.964   8.480  0.1947 -1.0723 -0.2116
   98SAPS  H16Y 9867   0.276   3.019   8.585 -0.4560  0.9171 -0.0797
   98SAPS  C317 9868   0.106   2.929   8.696  0.6036  0.2639  0.1497
   98SAPS  H17X 9869   0.034   2.846   8.679  1.0624 -0.5141  1.8459
   98SAPS  H17Y 9870   0.046   3.022   8.705 -0.7170 -0.2534 -2.3069
   98SAPS  C318 9871   0.192   2.915   8.825 -0.0587  0.5220  0.0737
   98SAPS  H18X 9872   0.122   2.896   8.910  1.4046  0.7506  1.3841
   98SAPS  H18Y 9873   0.247   3.009   8.846 -1.2492  1.1901  0.2561
   98SAPS  H18Z 9874   0.267   2.833   8.815 -2.0564 -1.4731  0.4587
   99SAPS     N 9875   2.570   0.906   6.009  0.3069 -0.4057 -0.4798
   99SAPS   HN1 9876   2.557   0.805   5.986  1.0910 -0.1408 -2.2542
   99SAPS   HN2 9877   2.478   0.952   5.991  0.1132 -1.0465 -1.1802
   99SAPS   HN3 9878   2.630   0.946   5.934 -1.4207  0.1373 -1.6467
   99SAPS   C12 9879   2.624   0.925   6.143 -1.1128 -0.1819 -0.1808
   99SAPS  H12A 9880   2.711   0.861   6.145 -0.3095  0.8729  0.0840
   99SAPS   C13 9881   2.686   1.063   6.179  0.3955 -0.3809  0.0392
   99SAPS  O13A 9882   2.702   1.153   6.094 -0.0540 -0.2873  0.3739
   99SAPS  O13B 9883   2.751   1.061   6.284  0.0532 -0.4137  0.6229
   99SAPS   C11 9884   2.520   0.898   6.257 -0.6364 -0.1996  0.0728
   99SAPS  H11A 9885   2.439   0.973   6.253  1.5804  2.7282  3.5932
   99SAPS  H11B 9886   2.570   0.914   6.355 -1.7242  0.4725  0.5351
   99SAPS     P 9887   2.535   0.649   6.317 -0.2029 -0.1083  0.1815
   99SAPS   O13 9888   2.508   0.538   6.228  0.2818 -0.1439 -0.7111
   99SAPS   O14 9889   2.670   0.689   6.338 -0.3280  0.2926  0.1430
   99SAPS   O12 9890   2.463   0.770   6.246  0.1334  0.3459  0.2243
   99SAPS   O11 9891   2.461   0.635   6.458 -0.5525  0.2483  0.5373
   99SAPS    C1 9892   2.496   0.715   6.569  0.2963 -0.3751  0.3179
   99SAPS    HA 9893   2.554   0.809   6.553  1.2750 -1.2483 -1.6268
   99SAPS    HB 9894   2.405   0.741   6.627 -0.3624 -0.2247 -0.7785
   99SAPS    C2 9895   2.581   0.627   6.667  0.8023 -0.2551 -0.0841
   99SAPS    HS 9896   2.678   0.595   6.624  0.7084  0.2764 -0.6957
   99SAPS   O21 9897   2.502   0.511   6.710 -0.5443 -0.0054 -0.2465
   99SAPS   C21 9898   2.578   0.405   6.729 -0.2561 -0.0097 -0.2996
   99SAPS   O22 9899   2.700   0.400   6.715 -0.1806 -0.2268  0.2895
   99SAPS   C22 9900   2.485   0.292   6.771  0.1989 -0.0106 -0.0960
   99SAPS   H2R 9901   2.390   0.332   6.813 -0.5570 -0.4293 -1.3633
   99SAPS   H2S 9902   2.454   0.223   6.689 -1.0267  0.1201  0.2282
   99SAPS    C3 9903   2.625   0.710   6.791 -0.3090  0.8194  0.0578
   99SAPS    HX 9904   2.524   0.739   6.829 -1.5356  1.0767 -3.0952
   99SAPS    HY 9905   2.676   0.802   6.754  2.3543 -0.9008 -0.8244
   99SAPS   O31 9906   2.708   0.636   6.888  0.3439  0.5483 -0.3705
   99SAPS   C31 9907   2.836   0.629   6.851  0.2607  1.1802 -0.3650
   99SAPS   O32 9908   2.889   0.684   6.756  0.3206 -0.0414  0.4503
   99SAPS   C32 9909   2.910   0.560   6.962 -0.6727  0.2038 -0.0171
   99SAPS   H2X 9910   2.891   0.451   6.947 -1.6704  0.5205 -1.3078
   99SAPS   H2Y 9911   2.869   0.588   7.061 -1.8396 -3.1109  0.5877
   99SAPS   C23 9912   2.551   0.206   6.877  0.9870 -0.6424  0.0790
   99SAPS   H3R 9913   2.650   0.183   6.834  0.9220  0.8599 -0.9468
   99SAPS   H3S 9914   2.502   0.106   6.875 -0.1021 -0.2955  3.1506
   99SAPS   C24 9915   2.530   0.261   7.019 -0.0945 -0.1727 -0.7809
   99SAPS   H4R 9916   2.421   0.280   7.026 -0.5125 -1.7510 -2.3496
   99SAPS   H4S 9917   2.587   0.356   7.033 -2.1700  1.1141 -0.5947
   99SAPS   C25 9918   2.583   0.160   7.113 -0.3449  0.0582 -0.3174
   99SAPS   H5R 9919   2.542   0.059   7.096 -1.0687  0.2907  0.0140
   99SAPS   C26 9920   2.664   0.174   7.218  0.0010  0.4974 -1.0101
   99SAPS   H6R 9921   2.699   0.088   7.277  2.3446  1.1420 -1.3513
   99SAPS   C27 9922   2.730   0.298   7.278  0.2920  1.0059 -0.2355
   99SAPS   H7R 9923   2.686   0.311   7.379  1.4924 -2.8201  0.9452
   99SAPS   H7S 9924   2.707   0.385   7.213 -1.2141  1.1196  0.4068
   99SAPS   C28 9925   2.882   0.298   7.288  0.1763  0.8369  0.5510
   99SAPS   H8R 9926   2.938   0.307   7.194 -1.5399 -0.3219 -0.6362
   99SAPS   C29 9927   2.947   0.281   7.400 -0.7001 -0.2666  0.5092
   99SAPS   H9R 9928   3.057   0.284   7.390 -0.8880  1.6627 -1.7554
   99SAPS  C210 9929   2.893   0.281   7.537  0.6556  0.3709 -0.3976
   99SAPS  H10R 9930   2.787   0.313   7.550  0.3700 -0.8966  0.5926
   99SAPS  H10S 9931   2.955   0.347   7.602 -0.4461  2.0444 -0.9700
   99SAPS  C211 9932   2.894   0.138   7.586  0.2877  0.4584  0.0259
   99SAPS  H11R 9933   2.976   0.070   7.560  0.7095 -0.0576  2.4659
   99SAPS  C212 9934   2.804   0.082   7.670 -0.1627  0.1637  0.2398
   99SAPS  H12R 9935   2.809  -0.027   7.687 -0.5605  0.3717  1.8682
   99SAPS  C213 9936   2.674   0.137   7.734  0.2574  0.2083 -0.8498
   99SAPS  H13R 9937   2.602   0.192   7.670 -1.0761 -0.9813 -0.4250
   99SAPS  H13S 9938   2.712   0.210   7.809  0.2654 -1.6396  1.0597
   99SAPS  C214 9939   2.594   0.035   7.812 -0.5856  0.3398 -0.4868
   99SAPS  H14R 9940   2.529  -0.029   7.751 -0.0600  0.6842 -1.4243
   99SAPS  C215 9941   2.587   0.016   7.944 -0.3480 -0.2132  0.7566
   99SAPS  H15R 9942   2.518  -0.065   7.971  0.2239 -2.2271 -3.1098
   99SAPS  C216 9943   2.661   0.089   8.052  0.2798  0.2662  0.1769
   99SAPS  H16R 9944   2.604   0.179   8.082  1.2286  0.6627  0.8344
   99SAPS  H16S 9945   2.756   0.132   8.015 -0.3367  0.7558 -0.8907
   99SAPS  C217 9946   2.704  -0.003   8.171 -0.2759 -0.5871  0.6480
   99SAPS  H17R 9947   2.622  -0.035   8.239  1.0071  0.8217  3.0284
   99SAPS  H17S 9948   2.767   0.067   8.231 -1.0528  0.2076  0.5555
   99SAPS  C218 9949   2.785  -0.123   8.130  0.2577 -0.2552 -0.9011
   99SAPS  H18R 9950   2.864  -0.089   8.061  0.7949 -0.7696 -0.5524
   99SAPS  H18S 9951   2.709  -0.192   8.088 -2.6082  1.8214  0.4841
   99SAPS  C219 9952   2.854  -0.187   8.251  0.0920 -0.1886  0.0158
   99SAPS  H19R 9953   2.781  -0.226   8.325  0.2576  0.8659  0.7532
   99SAPS  H19S 9954   2.911  -0.110   8.307 -1.4843  1.3506 -0.4115
   99SAPS  C220 9955   2.944  -0.303   8.202  0.1118 -0.3397 -0.7192
   99SAPS  H20R 9956   2.980  -0.377   8.277  0.3651 -4.0299 -4.1139
   99SAPS  H20S 9957   3.027  -0.255   8.145 -0.8970  0.5990 -1.4298
   99SAPS  H20T 9958   2.891  -0.363   8.125 -2.3129 -1.4708  1.6830
   99SAPS   C33 9959   3.061   0.584   6.968 -0.3864  0.0623  0.2712
   99SAPS   H3X 9960   3.108   0.563   6.869  0.7657 -1.0097  1.0193
   99SAPS   H3Y 9961   3.105   0.521   7.048  1.4923 -1.1878 -1.6334
   99SAPS   C34 9962   3.097   0.730   7.007  0.6484 -0.5818  0.4370
   99SAPS   H4X 9963   3.060   0.802   6.931  1.6748 -1.7947 -1.2498
   99SAPS   H4Y 9964   3.208   0.734   7.018  0.6812 -0.7491  0.1744
   99SAPS   C35 9965   3.050   0.756   7.156 -0.0796 -0.4662 -0.5633
   99SAPS   H5X 9966   3.092   0.679   7.223  2.3709 -0.9942 -2.5593
   99SAPS   H5Y 9967   2.940   0.755   7.172 -0.0129  2.6053  0.7336
   99SAPS   C36 9968   3.107   0.894   7.216  0.9442 -0.1897 -0.4796
   99SAPS   H6X 9969   3.093   0.973   7.139 -0.6017  0.1512  0.1193
   99SAPS   H6Y 9970   3.218   0.887   7.224  0.8256 -0.2332  1.5548
   99SAPS   C37 9971   3.039   0.951   7.344  0.0039 -0.0087  0.4081
   99SAPS   H7X 9972   2.929   0.935   7.351 -0.5339  3.0364  0.5837
   99SAPS   H7Y 9973   3.052   1.061   7.356 -3.0407  0.4368  0.3949
   99SAPS   C38 9974   3.098   0.896   7.476  0.0168  0.5544 -1.2256
   99SAPS   H8X 9975   3.203   0.932   7.481  0.2295 -0.1791  1.1589
   99SAPS   H8Y 9976   3.106   0.786   7.467 -0.8831  0.1215  1.9449
   99SAPS   C39 9977   3.031   0.946   7.603  0.3120  0.1963  0.7760
   99SAPS   H9X 9978   2.927   0.909   7.601  0.8606 -1.4059 -0.0247
   99SAPS   H9Y 9979   3.023   1.057   7.600 -4.3438  0.1186  2.3545
   99SAPS  C310 9980   3.096   0.904   7.732  0.7761  0.5555 -0.4659
   99SAPS  H10X 9981   3.197   0.949   7.739  0.9145  0.0771  1.4224
   99SAPS  H10Y 9982   3.113   0.795   7.718 -2.5691 -0.2145  0.4642
   99SAPS  C311 9983   3.017   0.915   7.870 -0.0749 -0.8558 -0.4712
   99SAPS  H11X 9984   2.921   0.860   7.858  0.2212 -0.9785 -2.9062
   99SAPS  H11Y 9985   2.993   1.020   7.897  0.1592 -0.8960 -0.1047
   99SAPS  C312 9986   3.098   0.858   7.993  0.6485  0.5418 -0.6443
   99SAPS  H12X 9987   3.190   0.921   7.998  2.2297 -1.6995 -0.0377
   99SAPS  H12Y 9988   3.129   0.752   7.986  1.6828  0.7676  0.2258
   99SAPS  C313 9989   3.021   0.881   8.123 -0.6424 -0.4773  0.4348
   99SAPS  H13X 9990   2.946   0.798   8.128 -1.9054  0.2388 -3.3832
   99SAPS  H13Y 9991   2.967   0.978   8.121  3.0161  1.7118 -1.9703
   99SAPS  C314 9992   3.120   0.880   8.238 -0.0049  0.5566 -1.2381
   99SAPS  H14X 9993   3.189   0.966   8.222  0.6124  0.4472  0.5601
   99SAPS  H14Y 9994   3.174   0.783   8.240 -1.3584 -0.2034 -0.3019
   99SAPS  C315 9995   3.047   0.879   8.373 -0.2420 -0.2219 -0.3048
   99SAPS  H15X 9996   2.993   0.977   8.377 -0.6841 -0.4304 -1.0310
   99SAPS  H15Y 9997   3.123   0.885   8.454 -0.0231 -0.3748 -0.4976
   99SAPS  C316 9998   2.944   0.768   8.395  0.0628  0.0692  0.5531
   99SAPS  H16X 9999   2.860   0.792   8.326 -0.5050 -0.8132  0.9170
   99SAPS  H16Y10000   2.892   0.762   8.493 -2.2519  0.7497 -0.5627
   99SAPS  C31710001   3.003   0.627   8.379  0.0204 -0.0597 -0.3515
   99SAPS  H17X10002   3.090   0.604   8.445 -2.2705 -3.2253  1.8604
   99SAPS  H17Y10003   3.031   0.605   8.274 -0.4492  1.1216 -0.7405
   99SAPS  C31810004   2.900   0.521   8.423 -0.1039 -0.1565  0.2585
   99SAPS  H18X10005   2.944   0.419   8.427  0.7964  0.2604  1.4910
   99SAPS  H18Y10006   2.809   0.518   8.360 -1.3142  0.6328  1.8872
   99SAPS  H18Z10007   2.867   0.534   8.528  0.6002  0.2148  0.4397
  100SAPS     N10008   3.996   2.656   6.437 -1.1511 -0.2411  0.3310
  100SAPS   HN110009   3.911   2.600   6.417 -1.0672 -0.3629  0.3146
  100SAPS   HN210010   4.082   2.601   6.458  0.0147  2.5563  3.9438
  100SAPS   HN310011   3.976   2.714   6.521 -0.6367  1.2763 -0.5498
  100SAPS   C1210012   4.007   2.745   6.323 -0.3857  0.4171  0.8148
  100SAPS  H12A10013   4.098   2.802   6.335 -1.4061  2.3439 -0.2037
  100SAPS   C1310014   4.002   2.673   6.186 -0.8468  0.1811  0.5295
  100SAPS  O13A10015   4.023   2.547   6.182  0.5625 -0.1913 -0.4294
  100SAPS  O13B10016   3.995   2.746   6.086  0.0778 -0.4304  0.1579
  100SAPS   C1110017   3.907   2.860   6.336  0.6292 -0.3613 -0.0836
  100SAPS  H11A10018   3.806   2.815   6.328  1.2829 -1.5816 -2.8648
  100SAPS  H11B10019   3.921   2.927   6.249 -0.7620  0.1080  0.0259
  100SAPS     P10020   3.813   2.976   6.551 -0.2998  0.3841 -0.1733
  100SAPS   O1310021   3.856   3.082   6.637 -0.5264 -0.2559 -0.4126
  100SAPS   O1410022   3.700   3.007   6.463  0.1964 -0.7028 -0.2397
  100SAPS   O1210023   3.935   2.931   6.455 -0.1586 -0.5351 -0.2277
  100SAPS   O1110024   3.790   2.849   6.637 -0.3917  0.5723  0.0578
  100SAPS    C110025   3.670   2.817   6.701 -0.2437 -0.2140 -0.4448
  100SAPS    HA10026   3.583   2.845   6.638 -0.5220 -1.1531 -0.4955
  100SAPS    HB10027   3.672   2.710   6.729 -2.3518 -0.0880  0.3962
  100SAPS    C210028   3.641   2.910   6.819 -0.2746 -0.0482 -0.0986
  100SAPS    HS10029   3.649   3.016   6.788 -0.4696 -0.1264 -0.4195
  100SAPS   O2110030   3.730   2.875   6.925  0.2889  0.2901 -0.3660
  100SAPS   C2110031   3.766   2.979   7.005 -0.6827 -0.2003  0.7421
  100SAPS   O2210032   3.725   3.092   7.001 -0.0350 -0.1100  0.0065
  100SAPS   C2210033   3.859   2.928   7.112 -0.4795 -0.3810 -0.0766
  100SAPS   H2R10034   3.963   2.940   7.075 -0.4550  0.8149  0.3326
  100SAPS   H2S10035   3.844   2.989   7.204  1.1390  0.1955 -0.1691
  100SAPS    C310036   3.493   2.885   6.873 -0.1960  0.2904  0.2449
  100SAPS    HX10037   3.491   2.783   6.918  0.0410  1.0146  1.9636
  100SAPS    HY10038   3.430   2.896   6.782 -0.1564  0.5273  0.2460
  100SAPS   O3110039   3.455   2.985   6.967 -0.0739  0.2251 -0.3153
  100SAPS   C3110040   3.417   3.100   6.920  0.1328  0.0077 -0.7512
  100SAPS   O3210041   3.414   3.131   6.805 -0.7860 -0.2027  0.9246
  100SAPS   C3210042   3.401   3.201   7.035 -0.8975  0.0896 -0.3213
  100SAPS   H2X10043   3.489   3.199   7.102  0.2575  1.4213 -1.7297
  100SAPS   H2Y10044   3.316   3.183   7.104 -1.6516  3.5214 -0.1687
  100SAPS   C2310045   3.848   2.780   7.151  0.8062  0.7751  0.6261
  100SAPS   H3R10046   3.936   2.742   7.206  1.9880  2.4495  0.0051
  100SAPS   H3S10047   3.839   2.718   7.059  1.3665  0.9955  0.4168
  100SAPS   C2410048   3.719   2.747   7.233  0.4276  0.5679 -0.3409
  100SAPS   H4R10049   3.696   2.640   7.220 -0.9964  0.6713  1.1285
  100SAPS   H4S10050   3.639   2.810   7.189  0.2360  0.6210  0.0762
  100SAPS   C2510051   3.717   2.759   7.393 -0.6609 -0.0429  1.2136
  100SAPS   H5R10052   3.642   2.825   7.439  0.6509  1.2133  1.6352
  100SAPS   C2610053   3.800   2.686   7.477 -0.5367 -0.3219  0.0625
  100SAPS   H6R10054   3.793   2.707   7.584  1.0698  0.3188  0.0759
  100SAPS   C2710055   3.910   2.593   7.438 -0.6614 -0.3230  0.3233
  100SAPS   H7R10056   4.009   2.642   7.454 -0.9870  0.1082  1.0462
  100SAPS   H7S10057   3.912   2.577   7.328 -1.1737 -2.6568  0.6020
  100SAPS   C2810058   3.901   2.463   7.513  0.2296 -0.0732 -0.1993
  100SAPS   H8R10059   3.873   2.371   7.459 -1.5538 -0.5894  1.4823
  100SAPS   C2910060   3.942   2.452   7.642 -0.7702  1.2224  0.2793
  100SAPS   H9R10061   3.936   2.353   7.690  3.1151 -0.1442 -1.6115
  100SAPS  C21010062   3.993   2.564   7.731 -0.3403  0.1145 -0.2837
  100SAPS  H10R10063   3.923   2.570   7.818  1.9522  1.3429  1.6103
  100SAPS  H10S10064   3.987   2.664   7.684 -2.3952  1.0978  1.8266
  100SAPS  C21110065   4.134   2.549   7.794 -0.0722  0.3841 -0.1915
  100SAPS  H11R10066   4.216   2.544   7.722 -0.5956  0.7062 -0.8201
  100SAPS  C21210067   4.159   2.542   7.933 -0.1232 -0.1956  0.0489
  100SAPS  H12R10068   4.264   2.542   7.965  0.3102  3.0439 -1.0548
  100SAPS  C21310069   4.059   2.538   8.048  0.2950 -0.4557 -0.2418
  100SAPS  H13R10070   4.071   2.438   8.094 -0.7255 -1.0392 -1.2014
  100SAPS  H13S10071   3.957   2.544   8.004  0.2403 -2.8180 -0.5535
  100SAPS  C21410072   4.064   2.656   8.140 -0.4474 -0.1007  0.2320
  100SAPS  H14R10073   4.128   2.737   8.101  0.9759 -1.1813  0.2713
  100SAPS  C21510074   3.999   2.667   8.261 -0.4463  0.0720  1.2472
  100SAPS  H15R10075   4.013   2.759   8.319  3.0337 -1.3784  2.9980
  100SAPS  C21610076   3.915   2.560   8.325 -0.8584  0.6888  0.6196
  100SAPS  H16R10077   3.851   2.512   8.248  0.0054  0.8268 -0.2158
  100SAPS  H16S10078   3.860   2.619   8.401 -2.5129  1.4876 -1.1142
  100SAPS  C21710079   4.003   2.447   8.388  0.4041  0.6331 -0.0956
  100SAPS  H17R10080   4.065   2.510   8.455  1.4709  2.2585 -2.4561
  100SAPS  H17S10081   4.065   2.393   8.312  1.0579 -3.4266  2.9563
  100SAPS  C21810082   3.913   2.348   8.459 -0.4500 -0.1115 -0.1763
  100SAPS  H18R10083   3.980   2.263   8.487  1.3320  1.7303  1.4005
  100SAPS  H18S10084   3.828   2.317   8.395 -1.2920  1.9051 -0.0975
  100SAPS  C21910085   3.842   2.397   8.584 -0.7913  0.0457  0.6891
  100SAPS  H19R10086   3.786   2.492   8.568  0.4118  0.9380  1.5295
  100SAPS  H19S10087   3.916   2.407   8.666 -0.2131 -1.9549  0.4689
  100SAPS  C22010088   3.733   2.293   8.626  0.7197  0.5317  0.1740
  100SAPS  H20R10089   3.773   2.190   8.626  2.0357  0.8751 -3.6556
  100SAPS  H20S10090   3.645   2.293   8.558 -0.2243  1.9741  1.3154
  100SAPS  H20T10091   3.692   2.332   8.722 -0.2725  2.8870 -1.1144
  100SAPS   C3310092   3.366   3.339   6.975  0.0067  0.3046  0.4895
  100SAPS   H3X10093   3.264   3.335   6.931  0.6170  0.4989 -0.9901
  100SAPS   H3Y10094   3.424   3.361   6.883  0.2645 -1.3144  0.2253
  100SAPS   C3410095   3.378   3.453   7.079  0.3903 -0.1934  0.0819
  100SAPS   H4X10096   3.356   3.548   7.026 -0.1435 -0.2245  0.2465
  100SAPS   H4Y10097   3.486   3.461   7.106  0.4783  2.5819 -0.7878
  100SAPS   C3510098   3.286   3.445   7.204 -0.5332 -0.2930 -0.3844
  100SAPS   H5X10099   3.198   3.394   7.160  0.6428 -1.4528 -1.4542
  100SAPS   H5Y10100   3.252   3.550   7.220 -0.7967 -0.2591 -1.1324
  100SAPS   C3610101   3.354   3.378   7.318 -0.3879 -0.2567  0.2903
  100SAPS   H6X10102   3.429   3.447   7.363 -0.9163 -0.5340  1.6180
  100SAPS   H6Y10103   3.405   3.284   7.288 -0.1427 -0.4711  1.3501
  100SAPS   C3710104   3.251   3.344   7.429 -0.6220 -0.1215 -0.7354
  100SAPS   H7X10105   3.174   3.268   7.402  0.3021 -1.7689  1.0636
  100SAPS   H7Y10106   3.191   3.434   7.457 -0.4584 -0.2183 -0.0665
  100SAPS   C3810107   3.328   3.284   7.553  0.5179 -0.1964  0.9200
  100SAPS   H8X10108   3.392   3.367   7.590 -0.3788  1.5418 -1.1883
  100SAPS   H8Y10109   3.405   3.210   7.522 -1.2362 -1.4720 -0.6509
  100SAPS   C3910110   3.232   3.223   7.657  0.0936 -0.0109 -0.4810
  100SAPS   H9X10111   3.178   3.144   7.600  0.3506  1.7865 -3.3953
  100SAPS   H9Y10112   3.157   3.295   7.697  1.3913  1.0066  0.1776
  100SAPS  C31010113   3.316   3.159   7.772  0.3320 -0.7209 -0.5845
  100SAPS  H10X10114   3.348   3.241   7.840 -0.9076 -1.9210  1.5499
  100SAPS  H10Y10115   3.398   3.103   7.723 -0.8303 -1.3984 -1.8055
  100SAPS  C31110116   3.250   3.056   7.856  0.2221 -0.3539 -0.3605
  100SAPS  H11X10117   3.199   2.980   7.792  0.2678 -0.3105 -0.4471
  100SAPS  H11Y10118   3.178   3.115   7.916  0.7610  0.2110 -0.2580
  100SAPS  C31210119   3.342   2.994   7.963 -0.0022  0.1631 -0.2120
  100SAPS  H12X10120   3.376   3.073   8.034  0.2075 -0.3361  0.2519
  100SAPS  H12Y10121   3.433   2.955   7.913 -0.5331  1.0699 -1.9583
  100SAPS  C31310122   3.258   2.875   8.024 -0.2219 -0.2917  0.1681
  100SAPS  H13X10123   3.230   2.811   7.937  0.4457  0.5853 -0.7187
  100SAPS  H13Y10124   3.165   2.914   8.070  0.0819  0.6248  0.0164
  100SAPS  C31410125   3.326   2.779   8.112 -0.8594 -0.3585 -0.1133
  100SAPS  H14X10126   3.351   2.831   8.207  1.2188 -0.1235 -0.7313
  100SAPS  H14Y10127   3.420   2.745   8.064 -0.6452 -0.9300  0.6922
  100SAPS  C31510128   3.247   2.650   8.143  0.1637  0.3627 -0.5171
  100SAPS  H15X10129   3.190   2.615   8.054 -1.2907  0.1022  0.4721
  100SAPS  H15Y10130   3.178   2.685   8.223  1.4400 -2.2143  1.8884
  100SAPS  C31610131   3.338   2.547   8.210  0.0120  0.3146 -0.0823
  100SAPS  H16X10132   3.403   2.504   8.131  0.9690 -0.9105  1.3284
  100SAPS  H16Y10133   3.279   2.462   8.249  0.3302 -0.4966 -1.3236
  100SAPS  C31710134   3.442   2.598   8.312 -0.0005 -0.1316  1.2410
  100SAPS  H17X10135   3.393   2.666   8.385  0.3919  1.2091  0.2998
  100SAPS  H17Y10136   3.513   2.657   8.251  0.2797 -0.8348  0.8694
  100SAPS  C31810137   3.525   2.487   8.384 -0.3952 -0.2501 -0.0210
  100SAPS  H18X10138   3.527   2.393   8.324  4.5034 -0.8233  0.5824
  100SAPS  H18Y10139   3.490   2.462   8.486  1.7791 -1.9684  0.3996
  100SAPS  H18Z10140   3.632   2.516   8.393  0.3235 -2.1633 -1.4311
  101OSM      N10141   6.511   2.325  11.112 -0.4035 -0.2109 -0.5797
  101OSM    C1510142   6.624   2.259  11.189 -0.3770 -0.2875  0.8538
  101OSM   H15A10143   6.675   2.323  11.259  0.5948  2.5230 -2.1296
  101OSM   H15B10144   6.700   2.229  11.118  0.1032 -1.3117  1.7822
  101OSM   H15C10145   6.603   2.169  11.244 -0.2131 -0.8377  0.0410
  101OSM    C1410146   6.427   2.386  11.211 -0.1705  0.8158 -1.2574
  101OSM   H14A10147   6.395   2.307  11.278  2.0528 -1.3734 -2.5846
  101OSM   H14B10148   6.333   2.433  11.184 -1.5099 -0.3536  1.0208
  101OSM   H14C10149   6.483   2.458  11.267  1.4535 -1.4950  0.2879
  101OSM    C1310150   6.555   2.442  11.025 -0.3226 -0.2505 -0.9472
  101OSM   H13A10151   6.628   2.400  10.958 -0.7455 -1.6704 -0.5572
  101OSM   H13B10152   6.607   2.512  11.088  2.2031 -2.7283 -0.0871
  101OSM   H13C10153   6.468   2.489  10.981  0.1710  0.8920 -0.7210
  101OSM    C1210154   6.447   2.225  11.018 -0.1094 -0.5547  0.3743
  101OSM   H12A10155   6.521   2.206  10.942  0.4335  0.1939  0.6979
  101OSM   H12B10156   6.368   2.272  10.963 -0.2419 -0.3853  0.7078
  101OSM    C1110157   6.395   2.093  11.067 -0.4213  0.2289 -0.1198
  101OSM   H11A10158   6.475   2.029  11.111 -1.5170 -0.7735  0.4727
  101OSM   H11B10159   6.370   2.031  10.978  0.3211 -1.7490  0.9822
  101OSM      P10160   6.154   2.153  11.126  0.0382 -0.3146 -0.3474
  101OSM    O1310161   6.049   2.051  11.164 -0.3474 -0.0798  0.6399
  101OSM    O1410162   6.136   2.291  11.186 -0.2068 -0.4793  0.5637
  101OSM    O1110163   6.154   2.159  10.972 -0.7369  0.4705 -0.1738
  101OSM    O1210164   6.291   2.094  11.162  0.0356  0.5117  0.3311
  101OSM    C1S10165   6.093   2.261  10.897  0.3029  0.3751  0.6389
  101OSM    H1S10166   6.113   2.361  10.941 -1.3838  1.0157  0.0568
  101OSM    H1T10167   5.983   2.251  10.911  0.2081 -1.7599 -1.1009
  101OSM     NF10168   6.089   2.375  10.690 -0.4391 -0.1117  0.0431
  101OSM    HNF10169   6.015   2.375  10.623 -0.0823 -0.0406 -0.3568
  101OSM    C2S10170   6.141   2.262  10.745  0.3005  0.0072 -0.5127
  101OSM    H2S10171   6.252   2.266  10.743  0.4852 -3.0037  0.2767
  101OSM    C3S10172   6.098   2.134  10.675 -0.2551  0.6834  0.7543
  101OSM    H3S10173   5.987   2.127  10.668 -0.1200 -2.1880 -0.0210
  101OSM     O310174   6.135   2.018  10.745 -0.1885  0.7160  0.0609
  101OSM    HO310175   6.168   2.055  10.827 -0.7544  2.1612 -0.3238
  101OSM    C4S10176   6.156   2.113  10.537 -0.4157  0.0431  0.7149
  101OSM    H4S10177   6.264   2.129  10.528 -0.3129 -0.3458  1.2152
  101OSM    C5S10178   6.078   2.089  10.426  0.1474  0.1496 -0.0749
  101OSM    H5S10179   5.968   2.090  10.434 -0.0681 -2.3595 -1.7533
  101OSM    C6S10180   6.135   2.065  10.289  0.9502 -0.1703  0.8126
  101OSM    H6S10181   6.134   1.956  10.267 -1.1324  0.0965 -0.8093
  101OSM    H6T10182   6.239   2.103  10.279 -0.0067  3.0513  1.6791
  101OSM    C7S10183   6.047   2.130  10.176  0.8241 -0.1924 -0.9631
  101OSM    H7S10184   6.059   2.240  10.190 -2.5478  0.4138 -1.7824
  101OSM    H7T10185   5.941   2.103  10.196  0.2527  0.7680 -2.5530
  101OSM    C8S10186   6.089   2.074  10.038  0.5413 -0.7671 -1.4144
  101OSM    H8S10187   6.065   1.967  10.055  0.2247 -0.6324 -1.0060
  101OSM    H8T10188   6.200   2.082  10.038  0.4787  0.5071 -2.4718
  101OSM    C9S10189   6.024   2.133   9.915  0.2622 -0.6523  0.1766
  101OSM    H9S10190   6.041   2.243   9.906  2.0561 -0.9709 -0.8509
  101OSM    H9T10191   5.915   2.114   9.921 -0.2955  1.4579 -1.8900
  101OSM   C10S10192   6.078   2.075   9.785  0.5322  0.3149 -0.8938
  101OSM   H10S10193   6.074   1.964   9.793 -1.2838  0.4182  0.2288
  101OSM   H10T10194   6.187   2.094   9.784  0.7297 -0.4538  1.3133
  101OSM   C11S10195   6.005   2.125   9.661  0.1117 -0.3284  0.1635
  101OSM   H11S10196   5.968   2.225   9.692 -0.4412  0.0166 -1.4793
  101OSM   H11T10197   5.915   2.063   9.640 -1.1495  1.7529 -0.8924
  101OSM   C12S10198   6.083   2.138   9.533 -0.5746 -0.5662 -0.0125
  101OSM   H12S10199   6.155   2.221   9.552 -1.0380  0.3858 -2.1321
  101OSM   H12T10200   6.015   2.192   9.463 -0.3090  1.5755  1.2893
  101OSM   C13S10201   6.151   2.011   9.475 -0.9052  0.1372  0.2756
  101OSM   H13S10202   6.072   1.933   9.485 -0.3345 -0.2170  2.6079
  101OSM   H13T10203   6.240   1.980   9.533  0.3443  1.5263 -0.8481
  101OSM   C14S10204   6.192   2.034   9.323 -0.5004 -0.0773  0.2387
  101OSM   H14S10205   6.265   2.118   9.326 -1.8323  1.2797 -2.2419
  101OSM   H14T10206   6.108   2.085   9.271 -0.9295  0.1484  1.1212
  101OSM   C15S10207   6.235   1.907   9.256  0.1271  0.4879  0.7161
  101OSM   H15S10208   6.141   1.847   9.252  0.9616 -0.9584  1.7823
  101OSM   H15T10209   6.306   1.865   9.330  1.1084  3.2869  1.4776
  101OSM   C16S10210   6.296   1.919   9.110  0.3867  0.7950 -0.8447
  101OSM   H16S10211   6.255   2.013   9.066  0.5852  0.8463 -0.9211
  101OSM   H16T10212   6.259   1.836   9.046 -0.0520  0.1404  0.2435
  101OSM   C17S10213   6.450   1.916   9.116 -0.2424  0.6744  0.1647
  101OSM   H17S10214   6.486   1.825   9.167 -1.1357  0.8558  1.1654
  101OSM   H17T10215   6.481   2.004   9.176  0.3912 -1.3703  3.0027
  101OSM   C18S10216   6.509   1.930   8.970 -0.2909  0.0833  0.6420
  101OSM   H18S10217   6.611   1.888   8.959 -0.9135 -0.7342 -3.5391
  101OSM   H18T10218   6.510   2.030   8.922 -0.4228 -1.1739 -2.1519
  101OSM   H18U10219   6.467   1.860   8.896  0.2865  0.7959 -0.3813
  101OSM    C1F10220   6.126   2.496  10.718 -0.2863  0.7716 -0.1829
  101OSM     OF10221   6.238   2.517  10.763  0.1759 -0.1096  0.4467
  101OSM    C2F10222   6.031   2.602  10.657 -0.3517 -0.6021 -0.4333
  101OSM    H2F10223   5.927   2.586  10.693  0.1097 -2.1888  0.2612
  101OSM    H2G10224   6.032   2.599  10.546 -1.7388  1.0160 -0.5350
  101OSM    C3F10225   6.072   2.741  10.709  0.6141 -0.4342 -0.3950
  101OSM    H3F10226   6.180   2.759  10.690  0.9796 -1.2740  0.7211
  101OSM    H3G10227   6.052   2.754  10.817  0.3038  1.5178 -0.6598
  101OSM    C4F10228   5.982   2.853  10.645  0.0310 -0.0976  0.3463
  101OSM    H4F10229   6.001   2.952  10.692  0.7434  0.8742 -1.8889
  101OSM    H4G10230   5.874   2.833  10.662 -0.6503  2.1896 -0.8875
  101OSM    C5F10231   5.988   2.855  10.486  0.0606  0.3955  0.1798
  101OSM    H5F10232   5.917   2.936  10.456 -0.0825  0.9512  1.8838
  101OSM    H5G10233   5.948   2.762  10.440  0.8187 -0.2611  0.8293
  101OSM    C6F10234   6.126   2.901  10.434 -0.4594  0.1651  0.5480
  101OSM    H6F10235   6.184   2.807  10.423 -0.2062  0.4332 -0.5288
  101OSM    H6G10236   6.183   2.939  10.521  0.7665 -1.9699  0.7474
  101OSM    C7F10237   6.128   3.006  10.323 -0.3661  0.3070  0.0125
  101OSM    H7F10238   6.229   3.052  10.313 -0.4695  1.4982  3.3537
  101OSM    H7G10239   6.048   3.079  10.348  0.2597  0.4164  1.8235
  101OSM    C8F10240   6.078   2.952  10.179  0.8318 -0.0175 -0.6878
  101OSM    H8F10241   5.970   2.926  10.184  0.9024 -0.1512  1.1425
  101OSM    H8G10242   6.140   2.862  10.162  2.5659  0.9691  0.1120
  101OSM    C9F10243   6.088   3.069  10.086  0.0287 -0.8907 -0.8099
  101OSM    H9F10244   6.073   3.165  10.138  0.2633 -1.4623  0.3568
  101OSM   C10F10245   6.127   3.069   9.962 -0.5863 -0.2562  0.1756
  101OSM   H10F10246   6.111   3.163   9.907 -2.3136  0.4140  1.7334
  101OSM   C11F10247   6.167   2.948   9.890 -0.0901  0.0797 -0.1497
  101OSM   H11F10248   6.156   2.855   9.950 -0.0478  0.8609  1.0984
  101OSM   H11G10249   6.276   2.957   9.874 -0.0341  1.3737  0.8554
  101OSM   C12F10250   6.100   2.928   9.751  0.1505 -0.1238  0.0044
  101OSM   H12F10251   5.990   2.920   9.766  0.0333  2.3785  0.8104
  101OSM   H12G10252   6.150   2.837   9.711  0.3439 -1.0644  2.2221
  101OSM   C13F10253   6.135   3.034   9.648  0.1570  0.6819  0.3968
  101OSM   H13F10254   6.239   3.069   9.667 -0.3688  1.4298  1.9892
  101OSM   H13G10255   6.067   3.121   9.658  0.9002  1.3698 -0.3577
  101OSM   C14F10256   6.137   2.972   9.514  0.3462  0.8770  0.5112
  101OSM   H14F10257   6.074   2.881   9.509 -0.5690  1.4928  0.7148
  101OSM   H14G10258   6.240   2.934   9.494 -0.7684 -2.4039  0.3619
  101OSM   C15F10259   6.111   3.064   9.395  0.4321  0.0456 -0.5958
  101OSM   H15F10260   6.180   3.151   9.396 -0.1823  0.6676 -3.3958
  101OSM   H15G10261   6.010   3.105   9.416  1.3217  2.0927 -0.0589
  101OSM   C16F10262   6.131   3.004   9.259 -0.6051 -0.2324 -0.0119
  101OSM   H16F10263   6.239   2.991   9.234 -1.1003 -0.8279 -2.0120
  101OSM   H16G10264   6.089   3.077   9.187 -2.1043  0.6816  1.6968
  101OSM   C17F10265   6.061   2.868   9.248  0.8812  0.0024  1.0951
  101OSM   H17F10266   5.961   2.876   9.295 -0.0057  1.1917 -0.9133
  101OSM   H17G10267   6.126   2.797   9.305  0.7185  0.3163  1.6782
  101OSM   C18F10268   6.039   2.818   9.106  0.6650  0.8642  0.2888
  101OSM   H18F10269   6.129   2.786   9.050 -0.5239 -2.2676 -0.0009
  101OSM   H18G10270   5.978   2.891   9.048 -0.3307  0.9807  1.4415
  101OSM   H18H10271   5.981   2.723   9.110  0.3218  1.0814  0.5622
  102OSM      N10272   6.144   1.657  11.470  0.2470 -0.4453 -0.3033
  102OSM    C1510273   6.270   1.625  11.540 -0.2696 -0.0337  0.1579
  102OSM   H15A10274   6.262   1.547  11.614  3.0948 -0.3810  0.2814
  102OSM   H15B10275   6.317   1.710  11.588  0.9666  0.2957 -1.5653
  102OSM   H15C10276   6.344   1.590  11.469 -0.6628  0.7034 -0.6411
  102OSM    C1410277   6.080   1.524  11.434  0.5006  0.2197  0.1479
  102OSM   H14A10278   5.990   1.546  11.378 -0.7265 -0.2006  1.8915
  102OSM   H14B10279   6.049   1.454  11.510 -1.8149 -0.6698 -1.4824
  102OSM   H14C10280   6.159   1.476  11.378  1.0179  0.7553  0.4232
  102OSM    C1310281   6.044   1.723  11.559  0.2889  0.7767 -0.6072
  102OSM   H13A10282   6.006   1.656  11.634 -1.6910 -0.5022 -2.6250
  102OSM   H13B10283   5.961   1.761  11.500 -1.2627  0.1256  1.0617
  102OSM   H13C10284   6.100   1.801  11.608  1.8840 -1.1070  0.7102
  102OSM    C1210285   6.170   1.750  11.353 -0.7463 -0.0147  0.6504
  102OSM   H12A10286   6.203   1.849  11.379  0.7616 -0.2301 -0.2731
  102OSM   H12B10287   6.074   1.762  11.306 -0.2970 -1.3505 -0.6775
  102OSM    C1110288   6.270   1.703  11.249  0.2916  0.1409 -0.6710
  102OSM   H11A10289   6.373   1.693  11.290 -1.1846  0.3620  3.5415
  102OSM   H11B10290   6.273   1.783  11.172  0.0504  1.3444  0.5239
  102OSM      P10291   6.291   1.513  11.069 -0.0029 -0.0800  0.0673
  102OSM    O1310292   6.437   1.503  11.097  0.3872  0.0408  0.1043
  102OSM    O1410293   6.222   1.391  11.022  0.0656  0.2831  1.0700
  102OSM    O1110294   6.272   1.624  10.950  0.1462 -0.2114  0.1170
  102OSM    O1210295   6.222   1.586  11.191  0.0941  0.2425  0.1794
  102OSM    C1S10296   6.276   1.580  10.814 -0.2778  0.1697  0.3300
  102OSM    H1S10297   6.185   1.528  10.779  0.5395 -1.1635  0.1115
  102OSM    H1T10298   6.363   1.514  10.794 -1.0258 -0.4635 -0.8609
  102OSM     NF10299   6.291   1.650  10.584  0.2061  0.0863 -0.2947
  102OSM    HNF10300   6.378   1.633  10.539  0.3680  0.9299 -0.3141
  102OSM    C2S10301   6.300   1.697  10.718 -0.1823  0.3100  1.0244
  102OSM    H2S10302   6.218   1.772  10.726 -0.7498 -0.1555 -0.1816
  102OSM    C3S10303   6.436   1.759  10.745  0.4315 -0.1667 -0.1307
  102OSM    H3S10304   6.505   1.676  10.715  0.0309 -0.5907  0.1128
  102OSM     O310305   6.460   1.800  10.874 -0.3788 -0.8424  0.4339
  102OSM    HO310306   6.399   1.750  10.929 -0.6786  0.4327  1.3395
  102OSM    C4S10307   6.450   1.884  10.657  0.1478  0.1527  0.1195
  102OSM    H4S10308   6.391   1.970  10.692  0.8360  0.3374  0.8728
  102OSM    C5S10309   6.545   1.903  10.561  0.6348  0.1165 -0.0680
  102OSM    H5S10310   6.611   1.817  10.545  2.3169  1.5404 -1.1465
  102OSM    C6S10311   6.565   2.022  10.476  0.4118  0.0574  0.2631
  102OSM    H6S10312   6.673   2.042  10.458  0.5016  0.2901  1.0517
  102OSM    H6T10313   6.522   2.115  10.520  0.9161  0.3291  0.1888
  102OSM    C7S10314   6.497   2.003  10.340 -0.6739 -0.5072  0.1436
  102OSM    H7S10315   6.483   2.106  10.302 -2.2878 -0.8397 -0.2216
  102OSM    H7T10316   6.398   1.954  10.349 -0.2835 -1.4110 -0.4002
  102OSM    C8S10317   6.577   1.925  10.244 -0.5096  0.1638 -0.4715
  102OSM    H8S10318   6.596   1.820  10.272 -2.4567  0.0761  0.6712
  102OSM    H8T10319   6.677   1.973  10.252  0.4730 -1.6303 -1.5007
  102OSM    C9S10320   6.525   1.931  10.095 -0.4899  0.0109  0.5253
  102OSM    H9S10321   6.522   2.040  10.075  2.6190  0.0316 -0.2578
  102OSM    H9T10322   6.423   1.886  10.100  0.2230 -1.5717  1.4647
  102OSM   C10S10323   6.615   1.855   9.994  0.2225  0.2392 -0.8752
  102OSM   H10S10324   6.607   1.747  10.021 -0.0087  0.7683  1.3625
  102OSM   H10T10325   6.726   1.864  10.002  0.5185 -2.2117 -1.2944
  102OSM   C11S10326   6.570   1.883   9.853  0.1730 -0.3806  0.4488
  102OSM   H11S10327   6.580   1.988   9.817 -1.6544  0.0458  1.0895
  102OSM   H11T10328   6.462   1.860   9.855 -0.0776  0.7509  0.8564
  102OSM   C12S10329   6.653   1.787   9.757 -0.3167 -0.7662 -0.2181
  102OSM   H12S10330   6.616   1.683   9.762 -3.0034  0.0646 -0.8410
  102OSM   H12T10331   6.756   1.793   9.798 -1.0005  1.5084  1.4108
  102OSM   C13S10332   6.650   1.829   9.606 -0.1747 -0.4173 -0.4785
  102OSM   H13S10333   6.712   1.921   9.597 -0.4056 -0.4481 -3.3075
  102OSM   H13T10334   6.548   1.869   9.585  0.4060  1.5981  0.2618
  102OSM   C14S10335   6.694   1.726   9.499 -0.1131 -0.7490 -0.0434
  102OSM   H14S10336   6.610   1.656   9.477  0.0772 -1.4794  1.4197
  102OSM   H14T10337   6.777   1.664   9.539  0.6094 -0.9561 -1.7876
  102OSM   C15S10338   6.744   1.784   9.359 -0.6321  0.0975  0.5755
  102OSM   H15S10339   6.820   1.861   9.383  0.9881 -1.7490  1.7161
  102OSM   H15T10340   6.652   1.827   9.316 -1.3119  0.8864  2.7152
  102OSM   C16S10341   6.805   1.671   9.280  0.3714  0.3015  0.6647
  102OSM   H16S10342   6.731   1.592   9.254 -0.1057  0.8102  0.4635
  102OSM   H16T10343   6.889   1.624   9.335  2.3824  1.5154 -1.2312
  102OSM   C17S10344   6.856   1.713   9.136 -0.4038 -0.7704 -0.1059
  102OSM   H17S10345   6.774   1.767   9.083 -0.0483 -0.1335 -0.0137
  102OSM   H17T10346   6.881   1.615   9.091 -0.9508 -0.6201 -0.7777
  102OSM   C18S10347   6.981   1.802   9.126 -0.1628  0.0795 -0.2321
  102OSM   H18S10348   7.004   1.819   9.018  1.1527 -0.3024 -0.0242
  102OSM   H18T10349   7.065   1.741   9.165  0.4568 -0.1193 -1.7981
  102OSM   H18U10350   6.972   1.899   9.180  1.4116  0.1771 -0.1116
  102OSM    C1F10351   6.171   1.619  10.530 -0.5392  0.2496  0.2393
  102OSM     OF10352   6.067   1.645  10.590 -0.1035 -0.1454  0.2398
  102OSM    C2F10353   6.162   1.561  10.389 -0.9630 -0.0687 -0.3026
  102OSM    H2F10354   6.197   1.456  10.397  0.0062  0.1959 -0.9416
  102OSM    H2G10355   6.244   1.607  10.330  1.5829 -2.6915  0.9436
  102OSM    C3F10356   6.025   1.558  10.323  0.3153  0.1616 -0.1975
  102OSM    H3F10357   5.999   1.666  10.318 -0.8892 -0.1002  0.1623
  102OSM    H3G10358   5.949   1.511  10.388  0.0422  3.0377  1.7628
  102OSM    C4F10359   6.017   1.485  10.188 -0.2808 -0.5212  0.3789
  102OSM    H4F10360   5.918   1.496  10.138  0.4501  0.4790 -0.9153
  102OSM    H4G10361   6.038   1.376  10.200  2.7391 -0.5028 -3.0493
  102OSM    C5F10362   6.127   1.526  10.084 -0.1126  0.1127 -0.0305
  102OSM    H5F10363   6.115   1.450  10.003  1.7778  1.2623 -1.4682
  102OSM    H5G10364   6.233   1.519  10.117  0.2434 -1.3080 -1.3760
  102OSM    C6F10365   6.112   1.668  10.035 -0.4817 -0.4266  0.8461
  102OSM    H6F10366   6.154   1.744  10.106  0.2484  0.7385 -0.7577
  102OSM    H6G10367   6.010   1.696  10.003  0.0554 -0.2224 -0.7594
  102OSM    C7F10368   6.197   1.701   9.909  0.1412 -0.1333  0.0299
  102OSM    H7F10369   6.305   1.686   9.934  0.5504  4.1470  1.6087
  102OSM    H7G10370   6.196   1.810   9.889  2.0098 -0.2610 -1.0208
  102OSM    C8F10371   6.161   1.624   9.779  0.1679 -0.3219 -0.4769
  102OSM    H8F10372   6.054   1.646   9.764  0.4722  0.1970 -2.0962
  102OSM    H8G10373   6.171   1.517   9.806  1.6130  0.2242  1.3737
  102OSM    C9F10374   6.234   1.689   9.662  0.1841  0.1932  0.4607
  102OSM    H9F10375   6.279   1.786   9.685 -0.0221  0.4023 -0.0150
  102OSM   C10F10376   6.255   1.635   9.539 -0.2894 -0.0306  0.0101
  102OSM   H10F10377   6.304   1.699   9.464  0.1605  2.2526  2.1349
  102OSM   C11F10378   6.210   1.498   9.497 -0.3671 -0.0771  0.2768
  102OSM   H11F10379   6.142   1.446   9.568 -0.3071 -2.1618 -1.0842
  102OSM   H11G10380   6.300   1.434   9.489 -0.6521 -0.5660  0.8878
  102OSM   C12F10381   6.132   1.483   9.353 -0.1699 -0.0704 -0.6527
  102OSM   H12F10382   6.040   1.545   9.364  0.0854  0.0223  1.5908
  102OSM   H12G10383   6.099   1.380   9.331 -1.1675 -0.1284  0.8935
  102OSM   C13F10384   6.210   1.545   9.240 -0.0438  0.7540  0.4761
  102OSM   H13F10385   6.300   1.486   9.211 -0.2995  1.4198 -1.9313
  102OSM   H13G10386   6.251   1.644   9.269  0.9029  0.0122  1.7802
  102OSM   C14F10387   6.124   1.544   9.114 -0.2681 -0.5090 -0.0680
  102OSM   H14F10388   6.178   1.606   9.040 -1.3596  1.6193  0.8359
  102OSM   H14G10389   6.033   1.607   9.124  1.2729  2.2256 -1.9220
  102OSM   C15F10390   6.081   1.402   9.077 -0.3861 -0.1549 -0.3695
  102OSM   H15F10391   5.991   1.371   9.133 -0.1149  3.5192  2.4471
  102OSM   H15G10392   6.152   1.325   9.114 -2.2601 -2.0410 -0.5288
  102OSM   C16F10393   6.062   1.392   8.923  0.6159 -0.7046 -0.3299
  102OSM   H16F10394   6.141   1.447   8.869  0.2137 -1.3599 -1.6302
  102OSM   H16G10395   5.970   1.441   8.884  0.9658  0.9037  0.7572
  102OSM   C17F10396   6.065   1.243   8.883 -0.7012  0.3926 -0.4187
  102OSM   H17F10397   6.042   1.253   8.775  0.4918  0.8309 -0.6515
  102OSM   H17G10398   5.986   1.190   8.941 -0.7741  0.9756  0.0280
  102OSM   C18F10399   6.198   1.166   8.886  0.4409 -0.4314 -0.2469
  102OSM   H18F10400   6.191   1.056   8.870  0.9319 -0.3512 -1.0697
  102OSM   H18G10401   6.234   1.182   8.990 -1.5913 -2.0471  0.7701
  102OSM   H18H10402   6.269   1.207   8.811  0.5167 -0.8860 -0.4287
  103OSM      N10403   5.524   4.552  11.795 -0.0771 -0.1528  0.1501
  103OSM    C1510404   5.416   4.457  11.832  0.1743  1.2444  0.1584
  103OSM   H15A10405   5.390   4.478  11.934 -1.8871 -0.8244  0.1216
  103OSM   H15B10406   5.436   4.351  11.826  0.5726  1.1716  2.2914
  103OSM   H15C10407   5.330   4.478  11.770 -1.2207  1.0086  1.9352
  103OSM    C1410408   5.464   4.696  11.806 -0.4129 -0.6899  0.3765
  103OSM   H14A10409   5.537   4.766  11.770 -2.1930  1.1115  0.0895
  103OSM   H14B10410   5.443   4.722  11.908  0.8756 -0.6144  0.6362
  103OSM   H14C10411   5.375   4.706  11.745  0.0680  0.8982 -0.1141
  103OSM    C1310412   5.638   4.545  11.888  0.7099 -0.3447 -0.3827
  103OSM   H13A10413   5.677   4.444  11.894 -0.7168 -0.8507  3.0315
  103OSM   H13B10414   5.606   4.565  11.989 -0.7175 -2.5052 -0.3493
  103OSM   H13C10415   5.714   4.618  11.865 -0.2750  0.9285  0.2746
  103OSM    C1210416   5.568   4.525  11.646 -0.1114 -0.0193 -0.6375
  103OSM   H12A10417   5.484   4.560  11.588 -0.0392 -1.2373 -1.5123
  103OSM   H12B10418   5.579   4.418  11.638  3.2266 -0.1445  2.7012
  103OSM    C1110419   5.695   4.596  11.601 -0.2134  0.3678  0.0305
  103OSM   H11A10420   5.697   4.707  11.597 -1.0693  0.3541 -1.3981
  103OSM   H11B10421   5.692   4.576  11.492 -1.1417  1.2898 -0.1302
  103OSM      P10422   5.890   4.427  11.635  0.1660  0.2555  0.0641
  103OSM    O1310423   6.000   4.430  11.729  0.2187 -0.2771 -0.0920
  103OSM    O1410424   5.799   4.310  11.649 -0.2662 -0.4147  0.0639
  103OSM    O1110425   5.944   4.443  11.489  0.6309  0.2112 -0.2022
  103OSM    O1210426   5.814   4.553  11.666 -0.0839 -0.4265 -0.4140
  103OSM    C1S10427   5.914   4.347  11.389 -0.5039 -0.3817  1.0444
  103OSM    H1S10428   5.810   4.308  11.402 -0.9988  0.2757 -0.6330
  103OSM    H1T10429   5.986   4.263  11.400  2.1895  1.4045 -1.4942
  103OSM     NF10430   5.844   4.341  11.144  0.3240  0.3646 -0.2947
  103OSM    HNF10431   5.894   4.323  11.060  2.1965  2.7724  0.2070
  103OSM    C2S10432   5.917   4.417  11.249  0.5392  0.1781  0.7006
  103OSM    H2S10433   5.861   4.513  11.257  0.7270  0.5795 -1.9475
  103OSM    C3S10434   6.059   4.445  11.212 -0.9342 -0.3379  0.0655
  103OSM    H3S10435   6.098   4.367  11.144  1.0764  1.3529 -0.8205
  103OSM     O310436   6.153   4.460  11.324  1.2327  0.0150  0.2872
  103OSM    HO310437   6.100   4.446  11.403 -0.0802 -2.0838 -0.9016
  103OSM    C4S10438   6.081   4.570  11.132 -0.9057  1.2304 -0.8370
  103OSM    H4S10439   6.075   4.656  11.200 -1.6005 -0.9593  2.0892
  103OSM    C5S10440   6.124   4.579  11.004 -0.6302  0.3269 -0.4883
  103OSM    H5S10441   6.152   4.484  10.957  0.0244 -0.3602  1.1876
  103OSM    C6S10442   6.160   4.705  10.929 -0.1203 -0.3883 -0.0367
  103OSM    H6S10443   6.269   4.708  10.905  0.1187  0.6536  1.0749
  103OSM    H6T10444   6.139   4.798  10.986  1.8470  0.6969 -0.9596
  103OSM    C7S10445   6.086   4.707  10.795  0.1463 -0.2103 -0.2863
  103OSM    H7S10446   6.091   4.807  10.747  1.5775 -1.4330 -2.8641
  103OSM    H7T10447   5.978   4.685  10.812 -0.6853  1.9385 -2.2658
  103OSM    C8S10448   6.144   4.611  10.684 -0.1414 -0.6598  0.1670
  103OSM    H8S10449   6.130   4.507  10.720 -0.8134 -0.0252  1.8387
  103OSM    H8T10450   6.253   4.632  10.681 -0.1805 -0.4320 -3.2742
  103OSM    C9S10451   6.079   4.623  10.546  0.1924  0.0842  0.1830
  103OSM    H9S10452   6.090   4.726  10.505 -0.2424  1.5757  3.4295
  103OSM    H9T10453   5.970   4.607  10.560  0.0756  2.1512  2.4946
  103OSM   C10S10454   6.146   4.534  10.432 -0.5098 -0.2452 -0.0274
  103OSM   H10S10455   6.134   4.428  10.463 -1.6248 -0.2312 -0.3620
  103OSM   H10T10456   6.255   4.553  10.433 -0.2407 -1.6003  1.8076
  103OSM   C11S10457   6.079   4.550  10.299 -1.1387 -0.0127  0.0136
  103OSM   H11S10458   6.084   4.652  10.256  3.2215 -0.6452 -1.4715
  103OSM   H11T10459   5.971   4.525  10.304 -0.9370 -0.7354  1.3038
  103OSM   C12S10460   6.146   4.469  10.194  0.0454 -0.3280  0.6216
  103OSM   H12S10461   6.160   4.365  10.231 -0.6145 -0.2032  1.2384
  103OSM   H12T10462   6.247   4.515  10.182 -0.3377 -0.1408 -2.6139
  103OSM   C13S10463   6.084   4.465  10.055  0.1370  0.6646 -0.2916
  103OSM   H13S10464   5.975   4.446  10.067  0.3927  0.1889  1.5149
  103OSM   H13T10465   6.120   4.374  10.001 -0.5754 -0.0946  0.4858
  103OSM   C14S10466   6.113   4.583   9.967 -0.2245 -0.5642 -0.6020
  103OSM   H14S10467   6.221   4.596   9.946 -0.2447  0.1021 -0.3245
  103OSM   H14T10468   6.082   4.676  10.020  3.2946  0.8386 -0.7784
  103OSM   C15S10469   6.039   4.580   9.838  0.4695  0.0623 -0.4869
  103OSM   H15S10470   6.061   4.676   9.787 -1.1246  2.1692  2.4962
  103OSM   H15T10471   5.937   4.591   9.881  1.9091  2.5488  2.8243
  103OSM   C16S10472   6.061   4.462   9.751  0.2741  0.6618  0.6187
  103OSM   H16S10473   5.985   4.464   9.670  0.9086 -1.6399 -0.1307
  103OSM   H16T10474   6.043   4.369   9.809  0.3420  0.8860  1.0009
  103OSM   C17S10475   6.201   4.440   9.685  0.0858 -0.0061 -0.2902
  103OSM   H17S10476   6.275   4.411   9.762 -1.7247  0.6969  1.8314
  103OSM   H17T10477   6.246   4.534   9.645  1.2508 -1.8786 -3.8312
  103OSM   C18S10478   6.191   4.342   9.567 -0.2712  0.2410 -0.5223
  103OSM   H18S10479   6.183   4.239   9.607 -1.4024  0.3062 -0.5296
  103OSM   H18T10480   6.270   4.351   9.490  2.4328 -0.3185  2.0066
  103OSM   H18U10481   6.100   4.368   9.508  1.2395  1.8368 -2.2950
  103OSM    C1F10482   5.715   4.323  11.145  1.5123  0.6189 -0.2220
  103OSM     OF10483   5.636   4.388  11.220 -0.0523 -0.2655  0.3493
  103OSM    C2F10484   5.662   4.215  11.056  0.0913 -0.2554  0.1954
  103OSM    H2F10485   5.719   4.123  11.079  3.7631  1.5362 -0.8066
  103OSM    H2G10486   5.683   4.240  10.949  2.7834  1.7168  1.0645
  103OSM    C3F10487   5.509   4.210  11.072  0.2703 -0.2873  0.5052
  103OSM    H3F10488   5.458   4.309  11.063 -0.1873 -0.6273 -0.9466
  103OSM    H3G10489   5.491   4.188  11.180  0.6334  1.6832  1.0174
  103OSM    C4F10490   5.443   4.100  10.984 -0.2266 -0.0992 -0.8058
  103OSM    H4F10491   5.441   4.002  11.035 -0.8174  0.1679 -0.2915
  103OSM    H4G10492   5.515   4.082  10.902  1.0882  0.5086  0.1753
  103OSM    C5F10493   5.298   4.120  10.940  0.0788 -0.7500 -0.4711
  103OSM    H5F10494   5.230   4.096  11.025 -0.3841  0.7485 -0.3767
  103OSM    H5G10495   5.278   4.047  10.860  0.2287 -1.1219 -0.1724
  103OSM    C6F10496   5.263   4.272  10.899 -0.1291  0.1939  0.3263
  103OSM    H6F10497   5.266   4.328  10.995 -0.6446  2.3926 -0.8660
  103OSM    H6G10498   5.156   4.288  10.873  0.1108  1.3073 -0.0289
  103OSM    C7F10499   5.335   4.325  10.780 -0.1580 -0.6947  0.3818
  103OSM    H7F10500   5.445   4.329  10.793 -0.2678 -0.2459  1.2811
  103OSM    H7G10501   5.313   4.434  10.781 -0.8671 -0.8191 -0.6167
  103OSM    C8F10502   5.299   4.262  10.641  0.1157  0.1297  0.7373
  103OSM    H8F10503   5.357   4.168  10.637 -0.7452 -0.3798  0.0605
  103OSM    H8G10504   5.349   4.333  10.572 -0.7962  1.3621  1.2891
  103OSM    C9F10505   5.149   4.230  10.623 -0.1296  0.1573 -0.2678
  103OSM    H9F10506   5.101   4.169  10.701 -0.9875  0.2904 -0.6754
  103OSM   C10F10507   5.073   4.270  10.513 -0.3962 -0.7120 -0.5382
  103OSM   H10F10508   4.964   4.261  10.524 -0.3252 -0.2068  0.8160
  103OSM   C11F10509   5.125   4.343  10.395  0.1636 -0.1031 -0.0604
  103OSM   H11F10510   5.235   4.359  10.390  0.4834 -0.9761  2.5334
  103OSM   H11G10511   5.078   4.443  10.400  2.7524  1.2190 -0.5107
  103OSM   C12F10512   5.066   4.278  10.266 -0.1125 -0.6914  0.7146
  103OSM   H12F10513   4.956   4.276  10.250  0.2053 -0.5193 -2.0198
  103OSM   H12G10514   5.098   4.172  10.265  0.8232 -0.4230  0.9044
  103OSM   C13F10515   5.114   4.358  10.145  0.0612  0.7033  0.5823
  103OSM   H13F10516   5.062   4.456  10.136 -1.7708  0.0720  3.3335
  103OSM   H13G10517   5.223   4.374  10.162  0.6278 -2.0101 -0.0726
  103OSM   C14F10518   5.083   4.289  10.011 -0.1303  0.3723  0.5702
  103OSM   H14F10519   4.973   4.273  10.002  0.2963 -1.2660 -3.4590
  103OSM   H14G10520   5.122   4.186  10.010  2.3503  1.1592  2.9582
  103OSM   C15F10521   5.156   4.371   9.898 -0.6370  1.4594 -0.6272
  103OSM   H15F10522   5.262   4.352   9.925 -1.4079 -1.8151  0.6014
  103OSM   H15G10523   5.124   4.477   9.904 -0.6730  1.3754  2.6127
  103OSM   C16F10524   5.118   4.317   9.762 -0.5674 -0.0032  0.2812
  103OSM   H16F10525   5.007   4.308   9.758 -0.6845  1.3696 -0.3800
  103OSM   H16G10526   5.145   4.212   9.741 -1.9013  0.0323 -1.9984
  103OSM   C17F10527   5.168   4.407   9.649  0.2741  0.5214 -0.1677
  103OSM   H17F10528   5.274   4.434   9.669  1.9413 -3.8945 -1.8590
  103OSM   H17G10529   5.099   4.494   9.644 -0.1851  0.2758  1.3541
  103OSM   C18F10530   5.157   4.335   9.515  0.0509 -0.5080 -0.5787
  103OSM   H18F10531   5.052   4.329   9.481 -0.6827 -5.8028  1.6603
  103OSM   H18G10532   5.197   4.232   9.500  1.1771 -0.1722  0.0028
  103OSM   H18H10533   5.221   4.402   9.453  1.3173 -0.6788  0.4962
  104OSM      N10534   3.570   2.653  11.472 -0.3472  0.7237  1.0029
  104OSM    C1510535   3.504   2.539  11.540 -0.0871 -0.4211 -0.5655
  104OSM   H15A10536   3.560   2.499  11.623 -0.9592 -1.5410 -0.5058
  104OSM   H15B10537   3.493   2.457  11.472  0.4800 -0.6076 -0.4387
  104OSM   H15C10538   3.405   2.562  11.576 -0.4203 -0.8463 -1.2046
  104OSM    C1410539   3.590   2.757  11.576  0.1007 -0.9598 -0.1728
  104OSM   H14A10540   3.635   2.716  11.666  0.0182 -1.4872 -0.3683
  104OSM   H14B10541   3.498   2.808  11.601  1.8637  1.6949  1.4020
  104OSM   H14C10542   3.663   2.832  11.551  0.7929 -0.6306  2.4971
  104OSM    C1310543   3.699   2.600  11.419 -0.6163  0.8379  0.6494
  104OSM   H13A10544   3.768   2.665  11.367  0.0777 -0.2007  0.2309
  104OSM   H13B10545   3.680   2.519  11.350  2.6066 -2.0928  2.8564
  104OSM   H13C10546   3.754   2.540  11.490 -1.6609 -1.7371 -0.5871
  104OSM    C1210547   3.488   2.704  11.359  1.0107  0.1331  0.8822
  104OSM   H12A10548   3.389   2.729  11.394  1.4054  0.2476  1.9500
  104OSM   H12B10549   3.472   2.616  11.299  0.8514 -1.3624  2.9916
  104OSM    C1110550   3.529   2.826  11.277 -0.6994 -0.6905 -0.0326
  104OSM   H11A10551   3.453   2.836  11.196  0.6140  0.7179 -1.1435
  104OSM   H11B10552   3.631   2.803  11.240  0.3314  3.1483  0.0180
  104OSM      P10553   3.629   3.073  11.319 -0.3356  0.4245 -0.1650
  104OSM    O1310554   3.561   3.204  11.353 -0.9597  0.0028  0.1815
  104OSM    O1410555   3.770   3.055  11.363 -0.1705  0.1921 -0.2494
  104OSM    O1110556   3.644   3.082  11.158 -0.1871  0.3760  0.4057
  104OSM    O1210557   3.534   2.949  11.348  0.3127  0.4122  0.1156
  104OSM    C1S10558   3.524   3.087  11.078 -0.9120 -0.4823  0.3817
  104OSM    H1S10559   3.472   3.182  11.103 -1.1685  0.2662 -2.6615
  104OSM    H1T10560   3.448   3.008  11.094  0.2274 -1.6867  0.0008
  104OSM     NF10561   3.432   3.144  10.865  0.0309 -0.0229  0.4134
  104OSM    HNF10562   3.367   3.085  10.818 -1.2449  1.1072  0.6587
  104OSM    C2S10563   3.549   3.082  10.926  0.3829 -0.5698  0.2571
  104OSM    H2S10564   3.635   3.145  10.894  0.6315 -1.2154 -0.3550
  104OSM    C3S10565   3.576   2.941  10.893  0.6414 -0.1695  0.0446
  104OSM    H3S10566   3.489   2.877  10.921  0.4376  0.0456 -0.0925
  104OSM     O310567   3.680   2.889  10.974 -0.1257 -0.1834  0.4658
  104OSM    HO310568   3.691   2.957  11.040  0.1082 -0.2970  0.5457
  104OSM    C4S10569   3.612   2.930  10.748 -0.1352 -0.2677  0.3768
  104OSM    H4S10570   3.697   2.993  10.721  0.0580  0.0889  1.7530
  104OSM    C5S10571   3.533   2.880  10.648  0.6383 -0.2596  0.2470
  104OSM    H5S10572   3.440   2.828  10.677  0.0084  0.4157 -0.5017
  104OSM    C6S10573   3.566   2.895  10.499 -0.2551  0.1380 -0.6449
  104OSM    H6S10574   3.509   2.984  10.467 -1.2066 -0.2774 -0.1633
  104OSM    H6T10575   3.522   2.809  10.444  0.4155  0.2189 -1.3254
  104OSM    C7S10576   3.711   2.926  10.458  0.0985 -0.0289  0.1028
  104OSM    H7S10577   3.784   2.848  10.490  0.5528 -0.4215 -1.7659
  104OSM    H7T10578   3.737   3.022  10.507  0.2117 -0.9263  1.8975
  104OSM    C8S10579   3.736   2.927  10.309 -0.1043  0.3393  0.5395
  104OSM    H8S10580   3.841   2.954  10.284 -0.5700  1.4920 -0.3077
  104OSM    H8T10581   3.665   3.006  10.276 -1.1303 -0.8438 -0.1766
  104OSM    C9S10582   3.697   2.798  10.236 -0.2190  0.8574 -0.2549
  104OSM    H9S10583   3.588   2.775  10.237 -0.5138  2.1259  0.6763
  104OSM    H9T10584   3.748   2.715  10.289 -0.3313 -0.5765 -2.3045
  104OSM   C10S10585   3.736   2.809  10.088  0.1018 -0.0379 -0.4647
  104OSM   H10S10586   3.696   2.721  10.033  2.3305 -0.7122 -1.1231
  104OSM   H10T10587   3.846   2.813  10.075  0.1132  1.4940 -0.0611
  104OSM   C11S10588   3.697   2.942  10.021 -0.0756 -0.3657 -0.5231
  104OSM   H11S10589   3.754   3.028  10.062  0.1554  0.7143 -2.9558
  104OSM   H11T10590   3.593   2.958  10.054  0.3866  0.9246  0.3740
  104OSM   C12S10591   3.695   2.948   9.866  1.1564  0.9860 -0.1145
  104OSM   H12S10592   3.791   2.939   9.812  0.8976  0.6143 -0.5185
  104OSM   H12T10593   3.656   3.048   9.835  0.5502 -0.2000 -3.5547
  104OSM   C13S10594   3.610   2.842   9.797  0.4400  0.2993 -0.1029
  104OSM   H13S10595   3.505   2.873   9.815 -0.3181 -0.9140 -2.1790
  104OSM   H13T10596   3.634   2.749   9.853 -0.7049  2.1457  3.8140
  104OSM   C14S10597   3.651   2.831   9.655 -0.9125  0.8714  0.0340
  104OSM   H14S10598   3.761   2.824   9.643 -1.1317  0.3980 -1.9955
  104OSM   H14T10599   3.605   2.912   9.594 -0.6999  1.0963  0.1686
  104OSM   C15S10600   3.597   2.701   9.593  0.2109  0.8786 -0.2584
  104OSM   H15S10601   3.635   2.613   9.649  2.2890  1.9126  0.0676
  104OSM   H15T10602   3.642   2.684   9.492 -0.6421  1.5243 -0.7604
  104OSM   C16S10603   3.445   2.703   9.576  0.5439  0.2138  0.1620
  104OSM   H16S10604   3.418   2.785   9.507  0.8901 -0.9339 -1.3998
  104OSM   H16T10605   3.394   2.720   9.673  0.5710  2.0931 -0.1316
  104OSM   C17S10606   3.405   2.568   9.524  0.7352  0.1938  0.0197
  104OSM   H17S10607   3.295   2.563   9.536  0.6529  1.1349 -0.2921
  104OSM   H17T10608   3.456   2.487   9.580 -0.9717 -0.7789  0.2403
  104OSM   C18S10609   3.429   2.537   9.371  0.5674 -0.3954 -0.5268
  104OSM   H18S10610   3.417   2.633   9.316  0.7945 -0.2948 -0.4013
  104OSM   H18T10611   3.355   2.463   9.332 -1.4963  2.2347 -1.9776
  104OSM   H18U10612   3.533   2.504   9.351  0.5122 -0.7228 -0.2754
  104OSM    C1F10613   3.404   3.278  10.870  0.2226  1.2864  0.0336
  104OSM     OF10614   3.477   3.360  10.918 -0.2818 -0.3337  0.0437
  104OSM    C2F10615   3.278   3.309  10.791 -0.5335  0.1910 -0.8000
  104OSM    H2F10616   3.194   3.296  10.862  0.0630  1.9705  0.3029
  104OSM    H2G10617   3.263   3.226  10.719 -0.3126 -0.7887  0.2657
  104OSM    C3F10618   3.270   3.433  10.713  0.3387 -0.3442  1.1147
  104OSM    H3F10619   3.317   3.514  10.773  0.1006  0.1772  0.6120
  104OSM    H3G10620   3.164   3.454  10.687  0.5502 -1.6646 -1.0362
  104OSM    C4F10621   3.342   3.436  10.579 -0.0831  0.5276 -0.1914
  104OSM    H4F10622   3.316   3.344  10.524 -2.5647 -0.1942  1.9914
  104OSM    H4G10623   3.447   3.437  10.615  0.9644 -0.5812 -2.9983
  104OSM    C5F10624   3.322   3.561  10.491  0.4506  0.3776 -0.2038
  104OSM    H5F10625   3.336   3.653  10.552 -0.7050  0.3333  0.1426
  104OSM    H5G10626   3.219   3.561  10.450 -0.2485 -0.4037  1.4250
  104OSM    C6F10627   3.421   3.566  10.382 -0.2173 -0.3799  0.6586
  104OSM    H6F10628   3.373   3.510  10.299 -0.0704 -1.8879  1.5462
  104OSM    H6G10629   3.517   3.519  10.409  0.7421  1.0638 -0.1343
  104OSM    C7F10630   3.446   3.705  10.324 -0.3790 -0.6619  0.3018
  104OSM    H7F10631   3.523   3.692  10.245 -1.5780  1.6633 -1.3627
  104OSM    H7G10632   3.500   3.756  10.407 -1.6455 -0.8676  1.2933
  104OSM    C8F10633   3.327   3.794  10.282 -0.5401 -1.3316 -0.1285
  104OSM    H8F10634   3.360   3.897  10.256  2.6228 -1.8691  1.3842
  104OSM    H8G10635   3.257   3.797  10.368 -0.5871  0.7564 -0.2001
  104OSM    C9F10636   3.247   3.733  10.166  0.1699  0.1516 -0.2458
  104OSM    H9F10637   3.167   3.663  10.193 -0.3203  1.9007  3.3850
  104OSM   C10F10638   3.275   3.757  10.040  0.0888 -0.4080  0.1545
  104OSM   H10F10639   3.194   3.742   9.966 -0.7087 -0.4066  1.0062
  104OSM   C11F10640   3.385   3.847   9.978  0.7786  0.0687  0.1400
  104OSM   H11F10641   3.478   3.790   9.959  2.0897  2.5091 -1.3120
  104OSM   H11G10642   3.412   3.929  10.047  0.6111  1.0180 -0.8865
  104OSM   C12F10643   3.341   3.906   9.848  0.3105  0.2240  0.5258
  104OSM   H12F10644   3.397   4.000   9.828 -1.5206  0.7359 -3.0202
  104OSM   H12G10645   3.235   3.942   9.852 -0.2146 -0.8755 -1.9376
  104OSM   C13F10646   3.345   3.809   9.728 -0.2464 -0.0278 -0.3180
  104OSM   H13F10647   3.278   3.721   9.743 -0.8611  0.6908  1.4688
  104OSM   H13G10648   3.446   3.763   9.739  0.8947  1.1436 -4.3040
  104OSM   C14F10649   3.342   3.858   9.588  0.1194  0.6321 -0.0683
  104OSM   H14F10650   3.440   3.896   9.552  0.9707 -1.7837 -0.4261
  104OSM   H14G10651   3.270   3.943   9.583  1.9866  2.3750  0.8420
  104OSM   C15F10652   3.323   3.751   9.483 -0.2038 -0.5731 -0.4675
  104OSM   H15F10653   3.234   3.686   9.492  0.7811 -1.9154 -0.1257
  104OSM   H15G10654   3.411   3.684   9.493  0.0150 -0.0772  1.1938
  104OSM   C16F10655   3.340   3.799   9.342 -0.9850 -0.8350  0.0584
  104OSM   H16F10656   3.325   3.718   9.267  0.7762 -0.8124 -0.3629
  104OSM   H16G10657   3.441   3.837   9.314 -1.9954 -0.1061 -2.9097
  104OSM   C17F10658   3.240   3.904   9.286  0.0515 -1.0806  0.0743
  104OSM   H17F10659   3.223   3.989   9.355  4.3230  1.0089 -1.0928
  104OSM   H17G10660   3.145   3.847   9.274  0.7998 -2.2746 -0.3553
  104OSM   C18F10661   3.279   3.962   9.147  0.0254  0.4178  0.0633
  104OSM   H18F10662   3.184   4.004   9.107 -0.9663 -2.1792 -0.4999
  104OSM   H18G10663   3.321   3.884   9.079 -0.6626 -0.6972  0.8760
  104OSM   H18H10664   3.357   4.040   9.157  0.5192 -0.0435 -0.1533
  105OSM      N10665   2.427   3.099  11.469  0.7567 -0.3567 -0.5464
  105OSM    C1510666   2.354   3.030  11.575 -0.2943 -0.0541  0.1794
  105OSM   H15A10667   2.344   3.088  11.666 -0.0201  1.3401 -0.6580
  105OSM   H15B10668   2.411   2.940  11.596  1.5222  0.7465 -1.1140
  105OSM   H15C10669   2.263   2.983  11.543 -0.1527  0.9435 -1.8084
  105OSM    C1410670   2.561   3.132  11.517  0.2110  0.3363 -0.5778
  105OSM   H14A10671   2.553   3.186  11.610 -0.6846  1.1771 -1.1356
  105OSM   H14B10672   2.617   3.191  11.447 -1.1357 -0.0123 -1.9906
  105OSM   H14C10673   2.618   3.040  11.527  1.3058  1.0538 -0.0008
  105OSM    C1310674   2.432   3.001  11.362  0.3834  0.0653  0.0261
  105OSM   H13A10675   2.470   3.042  11.269  1.6029 -1.3597 -0.1604
  105OSM   H13B10676   2.339   2.949  11.345 -1.5355  2.8690  1.3184
  105OSM   H13C10677   2.487   2.913  11.395 -2.0211 -1.1854  0.9341
  105OSM    C1210678   2.353   3.228  11.434 -0.2760 -0.5814 -0.3995
  105OSM   H12A10679   2.379   3.307  11.503  2.0416 -1.8427  0.2615
  105OSM   H12B10680   2.249   3.204  11.444 -1.4352  4.1454  1.8446
  105OSM    C1110681   2.370   3.283  11.294  0.3621 -1.0885  0.5807
  105OSM   H11A10682   2.475   3.292  11.259 -0.0131 -2.6496 -1.1006
  105OSM   H11B10683   2.331   3.387  11.299  1.6318 -0.6614  3.0538
  105OSM      P10684   2.164   3.219  11.158  0.4177 -0.1630  0.3399
  105OSM    O1310685   2.119   3.110  11.066 -0.0959  0.6134  0.5622
  105OSM    O1410686   2.091   3.240  11.275  0.5017  0.0189  0.6840
  105OSM    O1110687   2.186   3.350  11.073 -0.2218 -0.1646 -0.3616
  105OSM    O1210688   2.311   3.195  11.200 -0.1973 -0.3722 -0.0261
  105OSM    C1S10689   2.133   3.354  10.937  0.4397 -0.5074  0.1184
  105OSM    H1S10690   2.028   3.320  10.921 -0.0532  0.7756  0.4975
  105OSM    H1T10691   2.186   3.282  10.871  0.8532 -1.2542  1.2363
  105OSM     NF10692   2.108   3.488  10.733 -0.4109 -0.5244  0.3540
  105OSM    HNF10693   2.170   3.454  10.663 -1.2636 -2.3175  0.3851
  105OSM    C2S10694   2.165   3.492  10.868  0.3152  0.2977 -0.0394
  105OSM    H2S10695   2.112   3.573  10.923 -0.4860 -0.0644 -0.2632
  105OSM    C3S10696   2.321   3.522  10.886  0.5777 -0.4836  0.7419
  105OSM    H3S10697   2.388   3.447  10.838  2.6376  1.3348  0.5744
  105OSM     O310698   2.371   3.525  11.020  0.3007  0.3571 -0.1750
  105OSM    HO310699   2.312   3.466  11.067 -0.0583  0.1757 -0.8403
  105OSM    C4S10700   2.349   3.652  10.811  1.0277 -0.0376  0.2952
  105OSM    H4S10701   2.349   3.624  10.705 -2.7131  1.2800 -0.2202
  105OSM    C5S10702   2.365   3.775  10.857 -0.4244 -0.1643 -0.7416
  105OSM    H5S10703   2.348   3.797  10.963  2.1263  2.3476 -0.7483
  105OSM    C6S10704   2.394   3.894  10.769 -0.7749 -0.4090 -1.2405
  105OSM    H6S10705   2.497   3.926  10.794 -1.7147  0.0388  2.8782
  105OSM    H6T10706   2.321   3.975  10.793  2.2336  1.9776  0.6539
  105OSM    C7S10707   2.389   3.877  10.613  0.2133 -0.5849 -0.1626
  105OSM    H7S10708   2.293   3.832  10.580 -0.2228 -0.8829  1.4448
  105OSM    H7T10709   2.478   3.814  10.587  1.5544  0.7718  0.9443
  105OSM    C8S10710   2.395   4.004  10.531 -0.3479 -0.0631 -0.4480
  105OSM    H8S10711   2.487   4.064  10.548  0.1004 -0.3015 -1.9125
  105OSM    H8T10712   2.305   4.065  10.551 -0.2244 -0.1926  0.5546
  105OSM    C9S10713   2.381   3.964  10.384 -0.5850 -0.2713  0.2640
  105OSM    H9S10714   2.277   3.927  10.368 -0.1253 -0.3027 -3.4672
  105OSM    H9T10715   2.442   3.881  10.344 -0.4160  1.7569 -4.3963
  105OSM   C10S10716   2.393   4.079  10.274  0.7140  0.1197 -0.2345
  105OSM   H10S10717   2.488   4.133  10.293 -0.9009  2.7715  1.0331
  105OSM   H10T10718   2.305   4.147  10.273  1.0940  0.6534  0.8400
  105OSM   C11S10719   2.400   4.017  10.129  0.0899 -0.3534 -0.5964
  105OSM   H11S10720   2.300   3.976  10.104 -0.0729 -0.3915  0.0889
  105OSM   H11T10721   2.477   3.937  10.135  0.0479 -0.3273  0.4424
  105OSM   C12S10722   2.436   4.128  10.035  0.7337 -0.2993  0.4707
  105OSM   H12S10723   2.539   4.168  10.044 -0.1443  2.0032  1.0263
  105OSM   H12T10724   2.376   4.221  10.047 -0.2276 -0.9543  0.8170
  105OSM   C13S10725   2.419   4.093   9.895 -0.4680 -0.1053  1.0858
  105OSM   H13S10726   2.322   4.040   9.881 -1.0179  0.1243  3.6541
  105OSM   H13T10727   2.486   4.006   9.876  0.2211  0.2173  1.9900
  105OSM   C14S10728   2.430   4.198   9.791  0.1527 -0.0709  0.1984
  105OSM   H14S10729   2.536   4.229   9.801 -0.1345  0.8274  0.5909
  105OSM   H14T10730   2.365   4.284   9.820  2.3859  1.8034 -0.1288
  105OSM   C15S10731   2.418   4.148   9.648 -0.7802  0.2220 -1.0523
  105OSM   H15S10732   2.308   4.133   9.643 -1.0067 -0.5157  2.9663
  105OSM   H15T10733   2.475   4.053   9.645  0.4022  0.8958 -0.5969
  105OSM   C16S10734   2.477   4.255   9.556  1.2562 -0.1339 -0.0230
  105OSM   H16S10735   2.588   4.265   9.553  1.3740 -1.1784  0.3641
  105OSM   H16T10736   2.439   4.355   9.587  0.0851 -0.5389 -0.1126
  105OSM   C17S10737   2.429   4.239   9.407 -0.0355  0.0768  0.5347
  105OSM   H17S10738   2.468   4.147   9.358  0.1914  0.7369 -0.5418
  105OSM   H17T10739   2.481   4.327   9.364 -1.1114  0.2352 -0.4660
  105OSM   C18S10740   2.283   4.259   9.379 -0.2080 -0.8745 -0.2277
  105OSM   H18S10741   2.277   4.218   9.275 -0.0984  0.2919 -0.7117
  105OSM   H18T10742   2.264   4.368   9.391  3.7228 -0.3243  3.9314
  105OSM   H18U10743   2.214   4.202   9.444  0.2592 -1.3133 -0.1066
  105OSM    C1F10744   1.979   3.480  10.703 -0.2279 -0.1151  0.2113
  105OSM     OF10745   1.881   3.519  10.771 -0.1650 -0.5150  0.6769
  105OSM    C2F10746   1.951   3.408  10.569 -0.8725 -0.5210  0.2741
  105OSM    H2F10747   1.880   3.325  10.588  1.0636 -2.0689  1.0195
  105OSM    H2G10748   2.048   3.366  10.534 -0.2113  0.6738  0.5922
  105OSM    C3F10749   1.906   3.502  10.451  0.5725 -0.0921 -0.6962
  105OSM    H3F10750   1.963   3.597  10.457 -1.7237  1.4015 -1.2761
  105OSM    H3G10751   1.797   3.525  10.460  0.6258  0.5751 -1.6204
  105OSM    C4F10752   1.910   3.434  10.312 -0.4523 -0.3234  0.0156
  105OSM    H4F10753   1.829   3.358  10.316 -2.3625  1.5375 -1.7247
  105OSM    H4G10754   2.009   3.385  10.293 -0.7473 -0.2895 -1.7378
  105OSM    C5F10755   1.878   3.524  10.196 -0.4340 -0.2469  0.2142
  105OSM    H5F10756   1.953   3.603  10.213  0.3074 -0.9982  0.4813
  105OSM    H5G10757   1.789   3.588  10.213  0.5073  0.6447  2.0383
  105OSM    C6F10758   1.882   3.447  10.055 -0.2600  0.3060  0.0731
  105OSM    H6F10759   1.802   3.369  10.056  0.9301 -1.1170 -3.0556
  105OSM    H6G10760   1.980   3.394  10.060 -0.5752 -0.5130 -1.8172
  105OSM    C7F10761   1.879   3.531   9.927  0.3826 -0.2013 -1.2030
  105OSM    H7F10762   1.959   3.606   9.946  1.7153 -1.4381 -1.6916
  105OSM    H7G10763   1.778   3.571   9.906  1.3982  2.1902 -1.7870
  105OSM    C8F10764   1.918   3.452   9.797 -0.2263 -1.1351 -0.0279
  105OSM    H8F10765   2.023   3.421   9.817  1.6114  4.1424  0.2633
  105OSM    H8G10766   1.914   3.529   9.717  0.9895  0.0269  0.9750
  105OSM    C9F10767   1.825   3.341   9.755 -0.4623 -0.2890  0.1925
  105OSM    H9F10768   1.787   3.290   9.845  0.7882  1.3395  1.7248
  105OSM   C10F10769   1.783   3.312   9.628 -0.6062  0.1924 -0.5082
  105OSM   H10F10770   1.710   3.232   9.610 -1.2585  0.6361  0.0955
  105OSM   C11F10771   1.824   3.381   9.498  0.4638 -0.2672 -0.1262
  105OSM   H11F10772   1.804   3.490   9.509 -0.1788 -0.2616 -1.1981
  105OSM   H11G10773   1.759   3.337   9.419 -0.3540  0.4210  0.1548
  105OSM   C12F10774   1.970   3.368   9.455 -0.5276  0.6676 -0.3594
  105OSM   H12F10775   2.003   3.262   9.458  0.0130  0.7685 -1.7909
  105OSM   H12G10776   2.035   3.426   9.523  0.7342 -0.7275 -0.3365
  105OSM   C13F10777   1.995   3.419   9.310  0.3583  0.2288  0.6714
  105OSM   H13F10778   1.976   3.329   9.248  1.3505  0.5273 -0.0748
  105OSM   H13G10779   2.103   3.433   9.292  0.1688 -0.0088 -0.7568
  105OSM   C14F10780   1.918   3.542   9.267  0.6885  1.0989  0.1187
  105OSM   H14F10781   1.947   3.621   9.340 -0.0801  1.0981  0.4336
  105OSM   H14G10782   1.809   3.526   9.281  0.6625 -0.4360 -1.5298
  105OSM   C15F10783   1.946   3.589   9.129  0.0068 -0.3082  0.5286
  105OSM   H15F10784   2.052   3.571   9.102 -0.1831 -0.0319 -0.4231
  105OSM   H15G10785   1.921   3.697   9.124  2.5359  0.3897  1.3627
  105OSM   C16F10786   1.861   3.513   9.024  0.0558 -0.1490  0.5088
  105OSM   H16F10787   1.761   3.511   9.072  0.3263  2.0748  1.2744
  105OSM   H16G10788   1.893   3.406   9.023  1.2122  0.1907  0.4235
  105OSM   C17F10789   1.861   3.571   8.877  0.5702 -0.1375 -0.0094
  105OSM   H17F10790   1.954   3.544   8.823 -1.8152 -0.6500 -4.2419
  105OSM   H17G10791   1.835   3.679   8.874  1.3950  0.0522 -0.3905
  105OSM   C18F10792   1.754   3.508   8.796  0.4237 -0.4224  0.2961
  105OSM   H18F10793   1.741   3.578   8.710  1.2557  0.3212  0.7609
  105OSM   H18G10794   1.655   3.492   8.845 -0.4653 -0.6415 -1.4977
  105OSM   H18H10795   1.799   3.414   8.759  2.6728  0.7293 -0.0510
  106OSM      N10796   5.074   1.397  10.990  0.0313 -0.0935  0.3328
  106OSM    C1510797   4.995   1.388  11.120  0.5689 -1.1589  0.1272
  106OSM   H15A10798   5.034   1.457  11.193 -2.0862 -0.0096  0.5714
  106OSM   H15B10799   4.998   1.285  11.153 -2.0570 -1.2435  0.2985
  106OSM   H15C10800   4.891   1.409  11.101  0.8496  1.7307  1.3565
  106OSM    C1410801   5.075   1.540  10.936  0.4472  0.0775  0.9132
  106OSM   H14A10802   4.976   1.580  10.919  1.0634  2.0626  1.6598
  106OSM   H14B10803   5.112   1.535  10.834 -0.9270  1.7773  0.2699
  106OSM   H14C10804   5.135   1.601  11.002  0.4380 -0.0879  1.0743
  106OSM    C1310805   5.218   1.361  11.021 -0.0797  0.2105  0.0926
  106OSM   H13A10806   5.258   1.422  11.101  2.3410  1.2920 -1.8105
  106OSM   H13B10807   5.282   1.376  10.935 -0.7391 -1.9497 -0.8279
  106OSM   H13C10808   5.226   1.257  11.047 -2.1038 -0.3849 -1.4353
  106OSM    C1210809   5.010   1.294  10.899 -0.0953 -0.0777 -0.2220
  106OSM   H12A10810   5.041   1.300  10.795 -2.0377 -0.8467 -0.8762
  106OSM   H12B10811   4.903   1.307  10.893 -0.3949 -2.0181  0.5212
  106OSM    C1110812   5.028   1.149  10.938  0.1087  0.3930 -0.9605
  106OSM   H11A10813   5.136   1.124  10.950 -0.3309 -1.1826  0.1522
  106OSM   H11B10814   4.994   1.087  10.852  0.2263 -0.2051 -0.5849
  106OSM      P10815   4.863   1.005  11.101 -0.1627  0.5444  0.2332
  106OSM    O1310816   4.930   0.875  11.129 -0.1366  0.4888  0.2238
  106OSM    O1410817   4.773   1.056  11.207 -0.1376 -0.1760  0.8203
  106OSM    O1110818   4.791   0.991  10.956  0.3958 -0.3254  0.0415
  106OSM    O1210819   4.967   1.113  11.063  0.1086 -0.3992 -0.3852
  106OSM    C1S10820   4.688   1.090  10.923 -0.3696  0.4649 -0.0354
  106OSM    H1S10821   4.709   1.191  10.962  2.1970  0.2987 -0.8277
  106OSM    H1T10822   4.587   1.059  10.957  0.2091 -0.4190  0.9599
  106OSM     NF10823   4.568   1.198  10.735  0.7302  0.6340  0.1935
  106OSM    HNF10824   4.477   1.159  10.748  1.5080 -1.4815 -0.2985
  106OSM    C2S10825   4.667   1.092  10.774  0.4722  0.4319  0.1023
  106OSM    H2S10826   4.760   1.114  10.716 -0.0677  0.9322 -0.5860
  106OSM    C3S10827   4.629   0.950  10.726 -0.0597  0.4574 -0.0410
  106OSM    H3S10828   4.554   0.906  10.797  2.4700  0.0866  2.5958
  106OSM     O310829   4.736   0.852  10.738  0.1207  0.1750  0.4761
  106OSM    HO310830   4.767   0.866  10.828  1.0687 -1.9473  0.5285
  106OSM    C4S10831   4.586   0.955  10.588  0.1510  0.3757  0.1186
  106OSM    H4S10832   4.481   0.923  10.582 -0.0732  0.7556  1.7277
  106OSM    C5S10833   4.676   0.963  10.484  0.3810 -0.0268 -0.0776
  106OSM    H5S10834   4.778   0.983  10.520  0.6529 -0.8750 -0.3445
  106OSM    C6S10835   4.659   0.960  10.339  0.5394 -0.2853  0.2527
  106OSM    H6S10836   4.682   0.860  10.296 -1.9885 -0.1159 -1.7481
  106OSM    H6T10837   4.719   1.042  10.294 -0.5845  0.0799 -0.6270
  106OSM    C7S10838   4.514   1.002  10.291 -0.3739  0.0611 -0.6565
  106OSM    H7S10839   4.506   1.108  10.323  0.4359  0.5862 -2.0856
  106OSM    H7T10840   4.432   0.949  10.345 -0.7290  1.6301  0.3939
  106OSM    C8S10841   4.492   0.999  10.134  0.0237 -1.1642 -0.2742
  106OSM    H8S10842   4.400   1.059  10.116  1.1116  1.9301  3.1784
  106OSM    H8T10843   4.463   0.897  10.101 -0.1594 -0.7227 -1.5192
  106OSM    C9S10844   4.599   1.048  10.045 -0.1867  0.9462 -0.7737
  106OSM    H9S10845   4.693   1.002  10.081 -1.8856 -1.2358  1.2203
  106OSM    H9T10846   4.600   1.158  10.062 -0.3557  0.7376  0.7188
  106OSM   C10S10847   4.572   1.026   9.900 -1.2757  0.1878  0.8815
  106OSM   H10S10848   4.638   1.092   9.840 -0.8620 -1.7325 -0.9151
  106OSM   H10T10849   4.464   1.037   9.877 -1.6376 -0.4894  2.1681
  106OSM   C11S10850   4.615   0.882   9.858 -0.3330  0.5106 -0.0221
  106OSM   H11S10851   4.548   0.803   9.897 -0.0158 -0.9615 -2.3006
  106OSM   H11T10852   4.720   0.867   9.892  0.3830 -1.3486 -2.7001
  106OSM   C12S10853   4.618   0.852   9.707 -0.2963  0.1491 -0.0841
  106OSM   H12S10854   4.655   0.749   9.688  0.8289  0.9189 -2.4100
  106OSM   H12T10855   4.702   0.912   9.666  1.8092 -1.7339  1.2685
  106OSM   C13S10856   4.484   0.873   9.640 -0.0581  0.0191  0.3135
  106OSM   H13S10857   4.464   0.982   9.634  0.6332  0.1918  1.0265
  106OSM   H13T10858   4.416   0.805   9.697 -0.2032 -1.8868 -1.9827
  106OSM   C14S10859   4.484   0.832   9.495  0.1338  0.2247  0.4923
  106OSM   H14S10860   4.381   0.819   9.458  0.4102 -1.1404  0.1495
  106OSM   H14T10861   4.540   0.738   9.479 -2.1172 -0.7166 -2.7782
  106OSM   C15S10862   4.557   0.933   9.402  0.8021  0.4840 -0.1022
  106OSM   H15S10863   4.667   0.916   9.410  0.7061 -0.7500 -1.0215
  106OSM   H15T10864   4.530   1.034   9.438 -1.0885  0.0700 -0.2752
  106OSM   C16S10865   4.524   0.915   9.256  0.1051 -0.7672 -0.7493
  106OSM   H16S10866   4.422   0.960   9.253  1.1727  1.7916 -1.0012
  106OSM   H16T10867   4.527   0.814   9.211 -2.4670 -1.0996 -0.3519
  106OSM   C17S10868   4.605   1.005   9.163 -0.3462 -0.3563  0.4433
  106OSM   H17S10869   4.706   0.958   9.155 -0.4669 -0.6344  0.5368
  106OSM   H17T10870   4.617   1.108   9.203  0.1868  0.8586 -2.5505
  106OSM   C18S10871   4.548   1.015   9.027  0.5316  0.2198 -0.5072
  106OSM   H18S10872   4.448   1.064   9.031  0.5571  0.2710 -0.4850
  106OSM   H18T10873   4.533   0.914   8.985  0.4199  0.1525 -0.3103
  106OSM   H18U10874   4.610   1.068   8.952 -1.1906  1.6055 -1.0383
  106OSM    C1F10875   4.601   1.329  10.734  0.2982  0.4891  0.0630
  106OSM     OF10876   4.715   1.360  10.761  0.0390  0.4615 -0.5561
  106OSM    C2F10877   4.498   1.429  10.712 -0.3649  0.1607 -0.8080
  106OSM    H2F10878   4.498   1.477  10.812  0.1226  1.3708 -1.3686
  106OSM    H2G10879   4.395   1.387  10.710 -0.1808 -0.5451  1.3900
  106OSM    C3F10880   4.542   1.526  10.598  0.7073  0.6446 -0.7791
  106OSM    H3F10881   4.646   1.563  10.613  0.2048  1.3236  1.3894
  106OSM    H3G10882   4.473   1.613  10.611 -0.0809 -0.0390 -0.3313
  106OSM    C4F10883   4.531   1.466  10.452  0.0776  0.0228  0.6016
  106OSM    H4F10884   4.509   1.546  10.378  0.2826 -0.4360  0.0309
  106OSM    H4G10885   4.440   1.402  10.445  0.4592 -0.3820 -2.2694
  106OSM    C5F10886   4.653   1.379  10.407 -0.0609 -0.4600 -0.4702
  106OSM    H5F10887   4.630   1.303  10.329 -1.8417  0.1962 -0.6050
  106OSM    H5G10888   4.696   1.329  10.497 -1.6102  0.8106  1.0170
  106OSM    C6F10889   4.772   1.476  10.355  0.6635  0.0696 -0.5279
  106OSM    H6F10890   4.857   1.409  10.331  0.9449 -0.9024  2.7441
  106OSM    H6G10891   4.801   1.544  10.438 -0.4376 -0.7996  0.6175
  106OSM    C7F10892   4.746   1.555  10.232  0.3730  0.7205 -0.2611
  106OSM    H7F10893   4.841   1.605  10.202  0.6060  0.8976  0.7446
  106OSM    H7G10894   4.672   1.632  10.263  0.8414  0.6042  1.2432
  106OSM    C8F10895   4.676   1.486  10.115  0.0884 -0.1555 -0.0017
  106OSM    H8F10896   4.633   1.560  10.043  0.5917 -0.7971 -0.9812
  106OSM    H8G10897   4.586   1.430  10.149  0.4105 -1.0634 -0.6156
  106OSM    C9F10898   4.770   1.397  10.034 -0.3434  0.4073 -0.1736
  106OSM    H9F10899   4.845   1.340  10.090  2.3081  2.5844 -1.2742
  106OSM   C10F10900   4.788   1.388   9.904  0.1876  0.0002  0.3594
  106OSM   H10F10901   4.862   1.312   9.873 -1.5565 -1.8319  0.5163
  106OSM   C11F10902   4.727   1.473   9.799 -0.2335 -0.3672  0.8534
  106OSM   H11F10903   4.763   1.578   9.809  0.3533 -0.3601 -0.9502
  106OSM   H11G10904   4.616   1.470   9.811 -0.3866  1.4440  0.2722
  106OSM   C12F10905   4.759   1.422   9.660 -0.3131  0.3375 -0.2001
  106OSM   H12F10906   4.701   1.327   9.650 -0.8026  0.5672  0.4280
  106OSM   H12G10907   4.868   1.400   9.649 -0.0452  1.0014  1.0353
  106OSM   C13F10908   4.719   1.511   9.558  0.2308 -0.8251  0.0980
  106OSM   H13F10909   4.763   1.612   9.564 -0.8823 -0.3747  1.0154
  106OSM   H13G10910   4.611   1.537   9.556  0.3564 -0.2839 -1.2817
  106OSM   C14F10911   4.765   1.475   9.414  0.0305 -0.6813 -0.0896
  106OSM   H14F10912   4.709   1.386   9.377 -2.2537  1.5071 -2.2610
  106OSM   H14G10913   4.873   1.452   9.432  0.4153  0.4826 -0.8178
  106OSM   C15F10914   4.749   1.583   9.307  0.0281 -0.3174 -0.2874
  106OSM   H15F10915   4.840   1.646   9.297 -1.8636  2.7503  0.5752
  106OSM   H15G10916   4.670   1.651   9.344  1.0089  1.4733 -1.3723
  106OSM   C16F10917   4.701   1.525   9.171  0.0039  0.1870  0.9263
  106OSM   H16F10918   4.676   1.604   9.097  1.0805 -0.1157  0.2200
  106OSM   H16G10919   4.611   1.463   9.186  1.3967 -2.2622 -0.2157
  106OSM   C17F10920   4.810   1.439   9.100 -0.5850  0.4931  0.0879
  106OSM   H17F10921   4.766   1.365   9.030 -1.4970  0.0375  1.1157
  106OSM   H17G10922   4.846   1.369   9.178 -0.3877  0.6142  0.1062
  106OSM   C18F10923   4.932   1.506   9.038  0.0455 -0.7866  0.1592
  106OSM   H18F10924   4.908   1.561   8.944  0.0345 -0.7288  0.1967
  106OSM   H18G10925   5.002   1.431   8.996  0.1568  0.4085 -1.9622
  106OSM   H18H10926   4.985   1.578   9.104  0.4527 -0.9620  0.0269
  107OSM      N10927   4.729   5.861  11.564 -0.0135  0.2380 -0.0482
  107OSM    C1510928   4.577   5.867  11.581  0.0977 -0.3004 -0.2057
  107OSM   H15A10929   4.563   5.962  11.630 -1.3303  0.8074 -2.5797
  107OSM   H15B10930   4.535   5.785  11.639  0.3323 -1.2831 -1.3989
  107OSM   H15C10931   4.542   5.876  11.480  3.0477  3.1379 -1.1143
  107OSM    C1410932   4.785   6.001  11.531 -0.5605  0.3060 -0.6689
  107OSM   H14A10933   4.744   6.036  11.437  1.4898  3.3317 -0.5726
  107OSM   H14B10934   4.893   6.000  11.522 -0.4471 -0.9240  0.5276
  107OSM   H14C10935   4.766   6.074  11.608  1.0720 -1.4014  1.4763
  107OSM    C1310936   4.793   5.804  11.686 -0.6121 -0.6420 -0.4050
  107OSM   H13A10937   4.900   5.817  11.679 -0.4338 -1.0313  1.1938
  107OSM   H13B10938   4.781   5.697  11.698 -0.4937 -0.5005  1.1441
  107OSM   H13C10939   4.768   5.859  11.775  1.1105 -0.1538 -0.1907
  107OSM    C1210940   4.767   5.776  11.447  0.1154 -0.0406 -0.1701
  107OSM   H12A10941   4.738   5.674  11.466  0.3411  0.0573  0.7091
  107OSM   H12B10942   4.874   5.762  11.452  0.2562  0.7942 -0.5721
  107OSM    C1110943   4.728   5.825  11.307  0.9038 -0.7594 -0.2710
  107OSM   H11A10944   4.788   5.767  11.233  0.1536 -1.5668 -0.2701
  107OSM   H11B10945   4.763   5.929  11.292  0.6788 -0.8195 -1.2987
  107OSM      P10946   4.525   5.663  11.265 -0.0855  0.4483 -1.0437
  107OSM    O1310947   4.521   5.598  11.399 -0.1400  0.5332  0.3619
  107OSM    O1410948   4.396   5.678  11.190 -0.2451  0.3356 -0.2799
  107OSM    O1110949   4.628   5.582  11.177 -0.5000 -0.3291  0.4304
  107OSM    O1210950   4.590   5.805  11.279  0.6438  0.3337 -0.7229
  107OSM    C1S10951   4.585   5.565  11.037  0.3330  0.4342 -0.3741
  107OSM    H1S10952   4.581   5.662  10.982  1.5315  1.0729  0.6066
  107OSM    H1T10953   4.487   5.514  11.032  2.0968 -3.3700 -0.1906
  107OSM     NF10954   4.629   5.422  10.836  0.6664 -0.2746 -0.2493
  107OSM    HNF10955   4.630   5.325  10.816  0.4347 -0.1919 -0.6790
  107OSM    C2S10956   4.687   5.464  10.966 -0.3167 -0.4761  0.0581
  107OSM    H2S10957   4.780   5.525  10.963 -0.1035 -0.8320 -1.1386
  107OSM    C3S10958   4.733   5.349  11.064  0.2359 -0.0980 -0.2306
  107OSM    H3S10959   4.648   5.287  11.098  1.5000 -0.2527  2.9770
  107OSM     O310960   4.792   5.391  11.189 -0.3640 -0.2024 -0.4314
  107OSM    HO310961   4.761   5.477  11.216  1.9122  0.4571  0.3581
  107OSM    C4S10962   4.836   5.256  10.991  0.2151 -0.1640  0.8161
  107OSM    H4S10963   4.779   5.169  10.958 -0.0765  0.9150 -1.7508
  107OSM    C5S10964   4.972   5.267  10.984  0.1456  0.6493 -0.1207
  107OSM    H5S10965   5.018   5.347  11.044 -1.2593  0.9829  0.5525
  107OSM    C6S10966   5.061   5.159  10.913 -0.2510  0.7834 -0.4497
  107OSM    H6S10967   5.104   5.081  10.979 -2.5417  1.2547  1.7716
  107OSM    H6T10968   5.143   5.219  10.868 -1.7474  2.9677 -0.4781
  107OSM    C7S10969   4.998   5.089  10.793 -0.1490 -0.4086  0.1657
  107OSM    H7S10970   4.907   5.043  10.837 -1.4500  1.7601 -0.1070
  107OSM    H7T10971   5.054   5.004  10.749 -3.2560 -1.4231 -2.2165
  107OSM    C8S10972   4.968   5.194  10.680 -0.1347  0.2513 -0.2026
  107OSM    H8S10973   5.062   5.253  10.676  0.8030 -1.2196 -0.5357
  107OSM    H8T10974   4.877   5.255  10.698 -2.2941 -2.6367 -0.5828
  107OSM    C9S10975   4.953   5.131  10.541  0.3346 -0.3630 -0.4767
  107OSM    H9S10976   4.866   5.061  10.542 -0.3842  0.4352  2.3150
  107OSM    H9T10977   5.051   5.082  10.523 -0.0173 -2.5195  2.6525
  107OSM   C10S10978   4.937   5.242  10.437  0.3560 -0.1423 -0.0307
  107OSM   H10S10979   5.024   5.310  10.431  0.3697 -0.2797 -2.6356
  107OSM   H10T10980   4.843   5.300  10.448 -0.3333 -0.8361 -1.8125
  107OSM   C11S10981   4.920   5.195  10.287 -0.6157  0.3166  0.0045
  107OSM   H11S10982   4.818   5.154  10.270 -0.8567  1.0217 -0.2708
  107OSM   H11T10983   5.004   5.123  10.277 -0.7869 -0.5745  3.5582
  107OSM   C12S10984   4.936   5.308  10.182 -0.1039  0.3991  0.0734
  107OSM   H12S10985   5.033   5.360  10.195 -0.6061  1.5512 -0.5721
  107OSM   H12T10986   4.855   5.381  10.201 -0.3543 -0.0644  0.8272
  107OSM   C13S10987   4.924   5.252  10.038  0.1997  0.1018  0.7621
  107OSM   H13S10988   4.820   5.258   9.999  0.7949  1.5363 -0.7082
  107OSM   H13T10989   4.954   5.145  10.045  1.2744  0.4298  1.4395
  107OSM   C14S10990   5.007   5.330   9.938  0.0502  0.5245  0.0076
  107OSM   H14S10991   5.104   5.277   9.941 -0.3517 -0.2866 -0.9623
  107OSM   H14T10992   4.997   5.436   9.971 -0.0570  0.1155  1.3223
  107OSM   C15S10993   4.969   5.309   9.788  0.2052 -0.0147 -0.4346
  107OSM   H15S10994   4.868   5.344   9.756  0.1298 -1.5695 -1.9756
  107OSM   H15T10995   4.963   5.199   9.774 -1.3769  0.0958 -0.8566
  107OSM   C16S10996   5.083   5.339   9.694  0.1896 -0.0874 -0.2643
  107OSM   H16S10997   5.174   5.276   9.706 -1.8947 -3.0662  1.3225
  107OSM   H16T10998   5.102   5.447   9.712 -0.4492  0.4218 -2.3519
  107OSM   C17S10999   5.042   5.340   9.550 -0.3384 -0.1627 -0.6297
  107OSM   H17S11000   5.133   5.387   9.508  1.6430 -2.1937  1.1241
  107OSM   H17T11001   4.943   5.391   9.545  0.3117  1.1295 -0.6713
  107OSM   C18S11002   5.024   5.199   9.492  0.0984 -0.3426  0.7927
  107OSM   H18S11003   5.061   5.188   9.387  1.9287  1.7093  1.1524
  107OSM   H18T11004   4.916   5.174   9.479  0.4189 -1.1045 -0.7154
  107OSM   H18U11005   5.074   5.121   9.554 -1.1093 -1.8677 -0.0639
  107OSM    C1F11006   4.619   5.509  10.731  0.8823  0.3611  0.6479
  107OSM     OF11007   4.638   5.627  10.744  0.3881 -0.0573 -0.4358
  107OSM    C2F11008   4.610   5.453  10.592  0.2057 -0.3294  0.7049
  107OSM    H2F11009   4.539   5.369  10.582  0.3719 -0.5372  1.2554
  107OSM    H2G11010   4.713   5.413  10.575 -0.4052 -1.1159 -1.4405
  107OSM    C3F11011   4.583   5.553  10.474  0.0363  0.9391 -0.1694
  107OSM    H3F11012   4.645   5.644  10.485  0.2459  0.7261  0.4707
  107OSM    H3G11013   4.479   5.589  10.489  0.2286  1.3980  0.0858
  107OSM    C4F11014   4.586   5.505  10.324  0.2979  0.4313  0.3730
  107OSM    H4F11015   4.543   5.403  10.316 -1.5081  1.2102 -0.4969
  107OSM    H4G11016   4.693   5.495  10.298  0.1759  0.3280 -0.1080
  107OSM    C5F11017   4.502   5.598  10.223 -0.4635  0.1581  0.6112
  107OSM    H5F11018   4.568   5.687  10.224  0.9919 -0.7860 -1.7492
  107OSM    H5G11019   4.407   5.620  10.276 -0.4832  0.6997  0.3536
  107OSM    C6F11020   4.493   5.548  10.075 -0.3146  0.1958 -0.2793
  107OSM    H6F11021   4.414   5.476  10.047 -0.4858 -0.8354  2.5733
  107OSM    H6G11022   4.582   5.487  10.049 -2.3858 -2.8143 -0.8244
  107OSM    C7F11023   4.474   5.660   9.976  0.3015  0.5196 -0.4170
  107OSM    H7F11024   4.533   5.747  10.012  0.4138  0.0792  0.4995
  107OSM    H7G11025   4.366   5.685   9.971 -0.2852 -1.0150  2.3959
  107OSM    C8F11026   4.522   5.633   9.829  0.5739  0.0566  0.1422
  107OSM    H8F11027   4.480   5.713   9.765 -2.6862 -0.9160  0.8505
  107OSM    H8G11028   4.483   5.531   9.809  0.7544  0.1471 -0.6962
  107OSM    C9F11029   4.671   5.619   9.827 -0.4100 -0.5480 -0.0521
  107OSM    H9F11030   4.729   5.656   9.913  1.2375 -1.6493 -0.6459
  107OSM   C10F11031   4.742   5.585   9.716 -0.0723 -0.2688 -0.6637
  107OSM   H10F11032   4.849   5.567   9.735  0.1609  0.7523 -0.9243
  107OSM   C11F11033   4.695   5.536   9.584  0.7671  0.2753  0.3359
  107OSM   H11F11034   4.591   5.500   9.600  0.2632  1.4369 -0.2540
  107OSM   H11G11035   4.751   5.441   9.567  0.9480 -0.1689  2.9746
  107OSM   C12F11036   4.718   5.638   9.468  0.1973  0.2222 -0.4993
  107OSM   H12F11037   4.825   5.667   9.470  0.9913 -2.4745  0.0820
  107OSM   H12G11038   4.648   5.722   9.488  2.6303  1.6983  2.8164
  107OSM   C13F11039   4.688   5.585   9.325  0.2752  0.1956 -0.3890
  107OSM   H13F11040   4.584   5.545   9.320  0.0984  0.7356 -1.1436
  107OSM   H13G11041   4.766   5.510   9.300  1.3968  1.4888 -0.9109
  107OSM   C14F11042   4.692   5.706   9.224 -0.0761 -0.1383  0.2632
  107OSM   H14F11043   4.591   5.752   9.230  0.4516  1.1542 -0.1883
  107OSM   H14G11044   4.701   5.653   9.126 -1.6129 -0.6596  0.3812
  107OSM   C15F11045   4.800   5.806   9.237  0.0968  0.5118 -0.0359
  107OSM   H15F11046   4.887   5.747   9.274 -0.5373  0.8480  2.1625
  107OSM   H15G11047   4.766   5.877   9.316 -0.9694  0.8293 -0.7604
  107OSM   C16F11048   4.827   5.879   9.104 -0.1892  0.1611 -0.1174
  107OSM   H16F11049   4.745   5.953   9.091  2.0281  2.9790  0.6687
  107OSM   H16G11050   4.831   5.810   9.017 -0.3175  1.7288 -1.4079
  107OSM   C17F11051   4.959   5.959   9.100  0.8934  0.0442 -0.3082
  107OSM   H17F11052   4.973   5.995   8.996 -1.2481 -1.4897 -1.1884
  107OSM   H17G11053   5.044   5.889   9.119 -0.2318 -0.8616  1.6035
  107OSM   C18F11054   4.964   6.076   9.204  0.0426  0.7822  0.6407
  107OSM   H18F11055   4.951   6.040   9.308 -2.8134 -0.6690 -0.1286
  107OSM   H18G11056   4.888   6.153   9.179 -0.7097 -0.2812 -0.4432
  107OSM   H18H11057   5.068   6.115   9.206  0.5429 -0.4722 -0.0596
  108OSM      N11058   0.364   5.714  11.191 -0.5824  0.5486 -0.6234
  108OSM    C1511059   0.307   5.816  11.100 -0.0514  0.6557 -0.4909
  108OSM   H15A11060   0.205   5.787  11.078 -0.0478 -1.1483  1.6019
  108OSM   H15B11061   0.364   5.831  11.010  0.5378  0.5740 -0.1376
  108OSM   H15C11062   0.307   5.910  11.154  1.1254 -0.1519  0.9839
  108OSM    C1411063   0.283   5.707  11.314 -0.7435 -0.0157 -0.3505
  108OSM   H14A11064   0.277   5.806  11.357  0.8124  0.1860 -0.5692
  108OSM   H14B11065   0.328   5.646  11.391  1.3449  1.2244 -0.5168
  108OSM   H14C11066   0.184   5.670  11.291 -0.5410 -0.8458  0.0506
  108OSM    C1311067   0.366   5.590  11.105 -0.2223  0.5888  0.1503
  108OSM   H13A11068   0.426   5.513  11.150 -0.5056 -1.0882 -2.1801
  108OSM   H13B11069   0.419   5.611  11.013  1.3854 -0.6572  0.7409
  108OSM   H13C11070   0.269   5.545  11.091  0.5351 -2.1987  2.9301
  108OSM    C1211071   0.511   5.742  11.224 -0.6714 -0.5154  0.2367
  108OSM   H12A11072   0.531   5.845  11.249  0.9078 -0.8852  0.5715
  108OSM   H12B11073   0.569   5.727  11.135  2.3663  1.1872  1.8020
  108OSM    C1111074   0.580   5.645  11.324 -0.1581 -0.8262 -0.4326
  108OSM   H11A11075   0.543   5.662  11.427 -0.4330  1.1458 -0.8077
  108OSM   H11B11076   0.683   5.685  11.333 -0.1900 -1.2151  2.4242
  108OSM      P11077   0.639   5.410  11.380  0.3944 -0.0098  0.7615
  108OSM    O1311078   0.722   5.476  11.482  0.6928  1.2516  0.0009
  108OSM    O1411079   0.528   5.330  11.428 -0.0358 -0.8657  0.8233
  108OSM    O1111080   0.728   5.322  11.280 -0.3790 -0.7960  0.1382
  108OSM    O1211081   0.580   5.509  11.278  0.2800 -0.2658  0.2184
  108OSM    C1S11082   0.669   5.262  11.164 -0.9789  0.5890  0.8608
  108OSM    H1S11083   0.583   5.323  11.127  0.5187  2.8306  0.8445
  108OSM    H1T11084   0.643   5.156  11.184 -0.1748  0.3857  0.8479
  108OSM     NF11085   0.790   5.134  10.977  0.6197  0.2695 -0.2791
  108OSM    HNF11086   0.885   5.104  10.989  0.6825  0.4751 -0.2582
  108OSM    C2S11087   0.763   5.266  11.034  0.3858 -0.0504 -0.3804
  108OSM    H2S11088   0.702   5.312  10.953 -1.2547 -0.7510  0.4050
  108OSM    C3S11089   0.892   5.353  11.046  0.6335  0.2147  0.1392
  108OSM    H3S11090   0.946   5.303  11.129 -1.3226 -1.3940  0.5434
  108OSM     O311091   0.845   5.480  11.090 -0.4034 -0.1684  0.2150
  108OSM    HO311092   0.755   5.471  11.121 -0.4890 -1.1918 -0.2868
  108OSM    C4S11093   0.968   5.371  10.911  1.1160 -0.2135  0.4137
  108OSM    H4S11094   0.916   5.445  10.849 -1.8668 -0.7844  2.0280
  108OSM    C5S11095   1.085   5.312  10.874  0.4141  0.2543 -0.6526
  108OSM    H5S11096   1.139   5.250  10.947  1.4651  0.3168 -1.3589
  108OSM    C6S11097   1.153   5.341  10.745 -0.4699  0.0448 -0.6262
  108OSM    H6S11098   1.236   5.269  10.729 -0.6357 -0.4614  0.7255
  108OSM    H6T11099   1.199   5.442  10.738  0.7851 -0.5423 -1.2698
  108OSM    C7S11100   1.062   5.324  10.621 -0.7830  0.0423  0.5282
  108OSM    H7S11101   0.983   5.401  10.604 -0.1624  0.7293  0.6886
  108OSM    H7T11102   1.021   5.221  10.613  3.3074 -1.7297  0.0392
  108OSM    C8S11103   1.149   5.348  10.490  0.1926  0.3351  0.3471
  108OSM    H8S11104   1.246   5.294  10.501 -0.3089 -0.2500  2.4095
  108OSM    H8T11105   1.163   5.458  10.483  3.0538  0.0505  0.6029
  108OSM    C9S11106   1.079   5.301  10.359 -0.3016  0.0770 -1.0144
  108OSM    H9S11107   0.974   5.335  10.354 -1.4133 -2.6282  1.2204
  108OSM    H9T11108   1.059   5.193  10.347  1.1697 -0.6765  2.1824
  108OSM   C10S11109   1.139   5.373  10.230  0.3333 -0.2754 -0.9082
  108OSM   H10S11110   1.242   5.333  10.234  0.6480  0.3076 -2.5529
  108OSM   H10T11111   1.134   5.484  10.237 -0.6855 -0.4058  1.1489
  108OSM   C11S11112   1.073   5.319  10.098  0.5281  0.3538 -0.2087
  108OSM   H11S11113   0.972   5.361  10.077  0.3834  1.2619  1.9925
  108OSM   H11T11114   1.057   5.209  10.108  0.3532  0.5498  2.6708
  108OSM   C12S11115   1.162   5.340   9.977 -0.3746 -0.3138  0.0625
  108OSM   H12S11116   1.264   5.303  10.000 -0.6293 -1.0109  0.1014
  108OSM   H12T11117   1.175   5.449   9.961 -0.4849 -0.0793  1.5046
  108OSM   C13S11118   1.106   5.286   9.841  0.6922  0.1626  0.5009
  108OSM   H13S11119   1.021   5.352   9.813 -1.6403 -3.2781 -1.3403
  108OSM   H13T11120   1.059   5.186   9.851 -1.3385  1.0116 -0.0421
  108OSM   C14S11121   1.204   5.276   9.719  0.5749 -0.4913 -0.1129
  108OSM   H14S11122   1.295   5.218   9.746  0.4851 -1.8710 -2.5100
  108OSM   H14T11123   1.242   5.379   9.698  0.2011 -0.0660  1.2384
  108OSM   C15S11124   1.142   5.210   9.596  0.8721  0.6673  0.3137
  108OSM   H15S11125   1.070   5.280   9.547  0.8298 -0.6095 -1.5601
  108OSM   H15T11126   1.073   5.129   9.628 -0.8287  1.9658  0.1144
  108OSM   C16S11127   1.245   5.164   9.496  0.7881  0.2325 -0.0068
  108OSM   H16S11128   1.292   5.074   9.542  1.6844  0.2261 -0.9046
  108OSM   H16T11129   1.321   5.243   9.478  1.5767 -0.1865  1.3238
  108OSM   C17S11130   1.166   5.132   9.368 -0.7840  0.0511 -0.8686
  108OSM   H17S11131   1.122   5.229   9.337  0.2405  0.4150 -1.2321
  108OSM   H17T11132   1.085   5.065   9.403 -1.5754  1.1000 -0.6315
  108OSM   C18S11133   1.254   5.061   9.260 -0.4007  0.3420 -0.1169
  108OSM   H18S11134   1.321   4.985   9.305  1.0620  1.3528 -0.5452
  108OSM   H18T11135   1.325   5.142   9.234  1.0678 -0.3765  1.4778
  108OSM   H18U11136   1.202   5.020   9.171 -0.0453  2.6114 -1.4388
  108OSM    C1F11137   0.690   5.049  10.956  0.7063 -0.1777  0.2118
  108OSM     OF11138   0.573   5.079  10.971  0.2488 -0.2337 -0.2419
  108OSM    C2F11139   0.726   4.905  10.921 -0.5533  0.1781 -0.5096
  108OSM    H2F11140   0.708   4.853  11.017  2.7138 -0.6133 -0.2197
  108OSM    H2G11141   0.835   4.886  10.919 -0.3438  0.4789  2.9257
  108OSM    C3F11142   0.641   4.821  10.814  0.6932  0.0220  0.1010
  108OSM    H3F11143   0.536   4.834  10.847  1.3182  0.2995  2.0744
  108OSM    H3G11144   0.662   4.715  10.840  1.8756 -0.3392 -2.0863
  108OSM    C4F11145   0.668   4.850  10.672  0.3136  0.6470 -0.8770
  108OSM    H4F11146   0.618   4.773  10.608 -0.0619 -0.1850  0.3921
  108OSM    H4G11147   0.776   4.849  10.649  0.6024  1.1508  0.4113
  108OSM    C5F11148   0.612   4.982  10.621 -0.1745  0.1637  0.0051
  108OSM    H5F11149   0.640   5.060  10.696  4.5078 -0.1785 -1.1022
  108OSM    H5G11150   0.502   4.970  10.616  0.0400 -1.8345 -0.6695
  108OSM    C6F11151   0.676   5.043  10.490  0.1601 -0.0663 -0.2062
  108OSM    H6F11152   0.785   5.049  10.511 -0.1880  0.3124  1.6899
  108OSM    H6G11153   0.640   5.147  10.475  0.7693  0.2042  0.1363
  108OSM    C7F11154   0.640   4.967  10.360 -0.0677  0.0571 -0.4200
  108OSM    H7F11155   0.553   5.004  10.302  0.4393 -1.1154 -2.0155
  108OSM    H7G11156   0.624   4.859  10.380  0.7776  0.3010  1.9057
  108OSM    C8F11157   0.748   4.974  10.252  0.3018 -0.0995  0.3188
  108OSM    H8F11158   0.720   4.904  10.170 -0.0786  1.6529 -1.0944
  108OSM    H8G11159   0.844   4.949  10.303 -0.3590 -1.8766  0.7742
  108OSM    C9F11160   0.773   5.110  10.193 -0.0627  0.5402 -0.2571
  108OSM    H9F11161   0.828   5.172  10.266  0.0688 -0.8058  0.8130
  108OSM   C10F11162   0.743   5.150  10.070 -0.0499  0.2616 -0.3874
  108OSM   H10F11163   0.766   5.251  10.032 -1.5683  0.6930 -0.2528
  108OSM   C11F11164   0.673   5.076   9.959 -0.0883  0.0701 -0.5339
  108OSM   H11F11165   0.570   5.111   9.937  0.4889  1.1448 -1.6497
  108OSM   H11G11166   0.660   4.968   9.986  0.0543  0.1145 -0.2803
  108OSM   C12F11167   0.759   5.080   9.839 -0.1612 -0.4637 -0.3505
  108OSM   H12F11168   0.851   5.020   9.857  0.0573  0.6601  2.7667
  108OSM   H12G11169   0.797   5.184   9.828 -0.4956  0.2408  3.8025
  108OSM   C13F11170   0.685   5.031   9.714 -0.3302 -0.1378 -0.6287
  108OSM   H13F11171   0.580   5.067   9.713  0.0574  1.1057 -2.5515
  108OSM   H13G11172   0.672   4.921   9.712  1.9402 -0.5396  1.5546
  108OSM   C14F11173   0.752   5.071   9.574 -0.1600 -0.4754  0.0083
  108OSM   H14F11174   0.849   5.018   9.558 -0.3833 -0.4674 -1.5529
  108OSM   H14G11175   0.772   5.180   9.586 -1.7985  0.0800 -1.8248
  108OSM   C15F11176   0.660   5.056   9.454 -0.3898 -0.4084  0.3725
  108OSM   H15F11177   0.560   5.094   9.483 -1.3816 -2.1966 -0.4759
  108OSM   H15G11178   0.628   4.950   9.442 -1.2978 -0.2122  0.9366
  108OSM   C16F11179   0.712   5.141   9.337  0.3011 -0.3096 -0.2558
  108OSM   H16F11180   0.803   5.099   9.289  1.0659  1.0783 -0.0684
  108OSM   H16G11181   0.736   5.245   9.367  1.0508 -0.9415  1.4829
  108OSM   C17F11182   0.609   5.160   9.225 -0.1175  0.0826  0.7857
  108OSM   H17F11183   0.516   5.208   9.261 -1.7477 -3.3550  1.5437
  108OSM   H17G11184   0.575   5.058   9.195  0.2367  0.1037  0.2990
  108OSM   C18F11185   0.666   5.242   9.111  0.1735 -0.1725  0.2658
  108OSM   H18F11186   0.587   5.262   9.036 -0.2756 -3.5994 -0.3171
  108OSM   H18G11187   0.746   5.192   9.053 -2.1547 -3.1388 -0.6076
  108OSM   H18H11188   0.713   5.338   9.144  1.1954 -0.5612 -0.0149
  109OSM      N11189   2.464   5.395  11.175 -0.7550  0.5236 -0.6443
  109OSM    C1511190   2.607   5.369  11.211 -0.2747  0.0847 -0.2002
  109OSM   H15A11191   2.625   5.356  11.317  1.2435 -2.0695 -0.6452
  109OSM   H15B11192   2.663   5.457  11.182  0.2638  0.3933  1.6539
  109OSM   H15C11193   2.644   5.284  11.156 -0.9165  0.2084 -0.8320
  109OSM    C1411194   2.396   5.280  11.244  0.3267  0.1548  0.1601
  109OSM   H14A11195   2.292   5.285  11.218  0.5147  0.3695 -0.5975
  109OSM   H14B11196   2.406   5.289  11.351  2.1273 -2.2154  0.2632
  109OSM   H14C11197   2.446   5.187  11.222  1.1078 -0.4328  3.7425
  109OSM    C1311198   2.426   5.524  11.233  0.2388  0.2059 -0.4470
  109OSM   H13A11199   2.475   5.594  11.167  2.8105 -0.7114  0.3310
  109OSM   H13B11200   2.449   5.544  11.336 -0.4227  2.4072 -0.6769
  109OSM   H13C11201   2.319   5.527  11.222  0.0288 -1.2074  0.8967
  109OSM    C1211202   2.441   5.394  11.025  0.7375  0.4640 -0.3770
  109OSM   H12A11203   2.486   5.484  10.985 -4.2627  2.3688 -2.4547
  109OSM   H12B11204   2.338   5.387  10.995  0.0052 -2.2746  2.2961
  109OSM    C1111205   2.500   5.278  10.938  0.6032  0.2375  0.0209
  109OSM   H11A11206   2.453   5.282  10.837 -1.5096  1.1742  0.9852
  109OSM   H11B11207   2.453   5.187  10.980  1.3550 -0.1852 -0.0392
  109OSM      P11208   2.714   5.384  10.860 -0.0721 -0.2143 -0.2437
  109OSM    O1311209   2.621   5.496  10.838 -0.4869  0.2277 -0.5918
  109OSM    O1411210   2.837   5.421  10.933 -0.2799 -0.0452  0.3786
  109OSM    O1111211   2.754   5.330  10.712 -0.3701  0.3060 -0.4595
  109OSM    O1211212   2.639   5.259  10.928 -0.0529 -0.4905 -0.1055
  109OSM    C1S11213   2.890   5.363  10.675 -0.1994  0.0844  0.0056
  109OSM    H1S11214   2.960   5.292  10.725 -0.7868  0.3976  1.3159
  109OSM    H1T11215   2.918   5.467  10.702 -0.1309 -0.4817  2.2782
  109OSM     NF11216   3.050   5.403  10.478 -0.3774 -0.0008  0.1522
  109OSM    HNF11217   3.066   5.479  10.416 -0.5106 -0.4555 -0.4463
  109OSM    C2S11218   2.915   5.360  10.523  0.4144  0.1157  0.0886
  109OSM    H2S11219   2.886   5.258  10.490 -1.2598  1.0054 -1.4158
  109OSM    C3S11220   2.811   5.452  10.444  0.5365 -0.0827  0.6633
  109OSM    H3S11221   2.843   5.556  10.465 -0.0663  0.3109 -0.2865
  109OSM     O311222   2.675   5.444  10.481  0.0390  0.1977  0.6135
  109OSM    HO311223   2.679   5.396  10.564  0.5392  1.8013  1.5613
  109OSM    C4S11224   2.809   5.426  10.293  0.1438  0.5201  0.0912
  109OSM    H4S11225   2.780   5.322  10.269  0.1993  0.2361  1.1987
  109OSM    C5S11226   2.844   5.516  10.187  0.0532  0.1919 -0.8451
  109OSM    H5S11227   2.877   5.615  10.223  1.1390  0.8157 -3.3367
  109OSM    C6S11228   2.859   5.479  10.039  0.3658 -0.3597 -0.1233
  109OSM    H6S11229   2.759   5.469   9.991  0.5800 -1.6295 -0.3341
  109OSM    H6T11230   2.905   5.379  10.025  0.5832 -0.2836  0.0429
  109OSM    C7S11231   2.946   5.591   9.973 -0.0318 -0.1425 -0.2723
  109OSM    H7S11232   3.040   5.601  10.030  0.8657 -2.1279 -1.3092
  109OSM    H7T11233   2.893   5.689   9.972  0.9933  0.4285 -0.2881
  109OSM    C8S11234   2.995   5.556   9.834  0.6043  0.4399 -0.6187
  109OSM    H8S11235   2.899   5.548   9.778  0.8166  0.7321 -1.0316
  109OSM    H8T11236   3.045   5.458   9.847  1.4468  1.0796  1.2250
  109OSM    C9S11237   3.094   5.656   9.768 -0.7268 -0.4002 -0.6286
  109OSM    H9S11238   3.177   5.669   9.841 -2.6439 -0.2148  1.6714
  109OSM    H9T11239   3.040   5.750   9.745 -0.3381 -0.7474 -3.2949
  109OSM   C10S11240   3.150   5.591   9.644 -0.3109  0.0115  0.4360
  109OSM   H10S11241   3.228   5.515   9.662  0.8461  1.4451  1.8021
  109OSM   H10T11242   3.208   5.671   9.593 -0.5357 -1.1994 -1.8374
  109OSM   C11S11243   3.046   5.527   9.554  0.8493 -0.3524 -0.4480
  109OSM   H11S11244   2.953   5.587   9.548  0.6659 -0.6410 -0.5014
  109OSM   H11T11245   3.031   5.425   9.593 -3.1904  0.6854  1.1598
  109OSM   C12S11246   3.076   5.530   9.403 -0.4324  0.3212 -0.3535
  109OSM   H12S11247   2.990   5.490   9.345  0.1858 -1.2896 -0.2141
  109OSM   H12T11248   3.158   5.456   9.389 -0.5579 -0.1440  1.1177
  109OSM   C13S11249   3.117   5.665   9.346  0.8321 -0.0326 -0.6188
  109OSM   H13S11250   3.221   5.690   9.375  0.3266  0.1505  1.1198
  109OSM   H13T11251   3.052   5.749   9.379 -1.5203 -1.6658 -0.8763
  109OSM   C14S11252   3.123   5.663   9.189  0.0451  0.0174  0.0733
  109OSM   H14S11253   3.028   5.624   9.147  0.5862 -1.9811  0.6025
  109OSM   H14T11254   3.201   5.588   9.164 -1.1110 -1.1734 -0.0746
  109OSM   C15S11255   3.154   5.798   9.128  0.3005  0.3137  1.1158
  109OSM   H15S11256   3.262   5.825   9.132  0.0410  1.7183 -0.1535
  109OSM   H15T11257   3.088   5.876   9.172 -1.8368  1.2274 -3.1061
  109OSM   C16S11258   3.098   5.806   8.980  0.0294 -0.4299  0.5985
  109OSM   H16S11259   2.990   5.833   8.981  0.0594 -0.2939  0.2363
  109OSM   H16T11260   3.108   5.708   8.929  0.0518 -0.7282  1.1654
  109OSM   C17S11261   3.185   5.908   8.902 -0.3862 -0.8976 -0.1726
  109OSM   H17S11262   3.174   5.906   8.791 -0.8755  0.1530 -0.1553
  109OSM   H17T11263   3.293   5.890   8.920 -0.3976 -0.5063  0.2962
  109OSM   C18S11264   3.153   6.052   8.936  0.7501 -0.1227  0.8919
  109OSM   H18S11265   3.125   6.073   9.041 -1.0385  1.7264  0.1122
  109OSM   H18T11266   3.070   6.088   8.872 -0.2921 -1.1653  1.6298
  109OSM   H18U11267   3.244   6.110   8.907  0.1158  1.1759  1.4078
  109OSM    C1F11268   3.159   5.339  10.516  0.0126 -0.1784 -0.1856
  109OSM     OF11269   3.153   5.245  10.593  0.6545  0.3137  0.2242
  109OSM    C2F11270   3.286   5.401  10.464  0.5355  0.1604  0.2453
  109OSM    H2F11271   3.336   5.458  10.545 -0.5371 -0.2142  1.2018
  109OSM    H2G11272   3.272   5.476  10.383 -3.3658  0.0526  0.6319
  109OSM    C3F11273   3.385   5.295  10.412  0.2915  0.4026  0.2180
  109OSM    H3F11274   3.412   5.219  10.488  2.1827 -1.0625 -1.7872
  109OSM    H3G11275   3.485   5.337  10.386  0.9681 -1.5010 -0.4508
  109OSM    C4F11276   3.335   5.213  10.295  0.1033  0.5111  0.2039
  109OSM    H4F11277   3.262   5.144  10.343 -0.1738  1.4528  1.1508
  109OSM    H4G11278   3.416   5.147  10.257 -0.3821  0.8566 -1.5101
  109OSM    C5F11279   3.272   5.300  10.190 -0.3160  0.6469  1.2232
  109OSM    H5F11280   3.338   5.384  10.157  0.6366 -0.7668 -0.6679
  109OSM    H5G11281   3.177   5.341  10.229 -1.8103 -1.7517  0.2881
  109OSM    C6F11282   3.239   5.222  10.054  0.5450 -0.3576 -0.1765
  109OSM    H6F11283   3.184   5.293   9.989  0.6412 -1.2868 -1.3095
  109OSM    H6G11284   3.177   5.134  10.078 -0.4899 -0.3326 -2.4958
  109OSM    C7F11285   3.362   5.187   9.972  0.4895  0.6888 -0.5160
  109OSM    H7F11286   3.429   5.119  10.029 -1.2927 -0.4354  0.3405
  109OSM    H7G11287   3.420   5.279   9.953  0.0156  0.8767 -1.1079
  109OSM    C8F11288   3.327   5.130   9.830  0.0055  0.5011 -0.4298
  109OSM    H8F11289   3.249   5.053   9.850  0.9713  0.1352  2.4231
  109OSM    H8G11290   3.414   5.065   9.803 -0.5060 -0.0590 -0.7596
  109OSM    C9F11291   3.291   5.238   9.731 -0.0886 -0.0482 -0.2311
  109OSM    H9F11292   3.280   5.335   9.783 -0.7232  0.0467 -0.5239
  109OSM   C10F11293   3.272   5.238   9.597  0.4881  0.2440  0.3883
  109OSM   H10F11294   3.258   5.335   9.547  0.3982  0.1707  0.2706
  109OSM   C11F11295   3.269   5.126   9.500 -0.5260  0.8983 -0.2273
  109OSM   H11F11296   3.166   5.111   9.462 -1.2575  1.2225  1.5161
  109OSM   H11G11297   3.296   5.033   9.555 -2.2866  0.5423  0.1023
  109OSM   C12F11298   3.360   5.150   9.375 -0.8340 -0.8189 -0.2289
  109OSM   H12F11299   3.465   5.169   9.406 -1.2977  0.2133  0.7651
  109OSM   H12G11300   3.335   5.239   9.314  1.2225 -0.6358 -0.8913
  109OSM   C13F11301   3.351   5.033   9.270  0.1519  0.2953  0.0747
  109OSM   H13F11302   3.243   5.013   9.258 -0.1335  2.1304 -0.8132
  109OSM   H13G11303   3.387   4.943   9.324  0.3851  0.4353  0.1573
  109OSM   C14F11304   3.437   5.050   9.138  0.9627  0.2733 -0.5486
  109OSM   H14F11305   3.539   5.067   9.178  0.2786  0.4331  1.2150
  109OSM   H14G11306   3.412   5.147   9.090 -2.3127  0.2514  0.8527
  109OSM   C15F11307   3.416   4.930   9.046 -0.2211 -0.1449  0.0904
  109OSM   H15F11308   3.308   4.911   9.031 -0.1635 -1.7603  1.4889
  109OSM   H15G11309   3.448   4.835   9.092 -3.3797 -1.2976  0.1236
  109OSM   C16F11310   3.484   4.933   8.907 -0.3535 -0.3716 -0.3652
  109OSM   H16F11311   3.593   4.948   8.922 -0.2830 -1.5137  0.4049
  109OSM   H16G11312   3.447   5.016   8.844  1.2173  0.3796 -0.3387
  109OSM   C17F11313   3.457   4.807   8.825  0.2558  0.4037 -0.6981
  109OSM   H17F11314   3.350   4.778   8.813 -0.4756  1.7849  1.7791
  109OSM   H17G11315   3.510   4.717   8.863  0.1241  1.2766  1.6991
  109OSM   C18F11316   3.503   4.828   8.681 -0.1619  0.1852  0.5551
  109OSM   H18F11317   3.614   4.835   8.679 -0.1379  1.0297  2.4789
  109OSM   H18G11318   3.463   4.922   8.637  1.9017  0.6504 -0.4402
  109OSM   H18H11319   3.476   4.737   8.623 -0.9473 -0.6315  2.1368
  110OSM      N11320   3.792   3.467  11.158  0.0558  0.0973  0.0947
  110OSM    C1511321   3.903   3.420  11.249  0.5430 -0.4716 -0.2434
  110OSM   H15A11322   3.946   3.502  11.305  3.0018 -2.8011  1.4848
  110OSM   H15B11323   3.978   3.387  11.179  0.7024  0.1130 -0.3589
  110OSM   H15C11324   3.872   3.348  11.323 -0.1520  1.1843  1.1607
  110OSM    C1411325   3.738   3.345  11.083 -0.1190  0.0674 -0.4666
  110OSM   H14A11326   3.817   3.308  11.019 -1.8163 -1.1029 -2.0082
  110OSM   H14B11327   3.647   3.366  11.028 -1.5529 -0.9631  1.4171
  110OSM   H14C11328   3.714   3.266  11.152 -1.2209  1.3979  0.7235
  110OSM    C1311329   3.684   3.524  11.254  0.1828  0.5394 -0.0285
  110OSM   H13A11330   3.718   3.615  11.301  0.0564  0.6742 -0.1995
  110OSM   H13B11331   3.665   3.439  11.319  1.5445 -2.6796 -3.4520
  110OSM   H13C11332   3.592   3.544  11.202  1.0342  0.7431 -1.4955
  110OSM    C1211333   3.838   3.569  11.056 -0.5003  0.1617 -0.5079
  110OSM   H12A11334   3.882   3.651  11.111  0.5627 -0.5034 -0.3270
  110OSM   H12B11335   3.751   3.615  11.012 -0.6333  0.4101  0.0053
  110OSM    C1111336   3.941   3.512  10.949  0.4924 -0.3093  0.1741
  110OSM   H11A11337   3.955   3.587  10.868  1.7638 -0.6553  0.0551
  110OSM   H11B11338   3.908   3.420  10.897  0.5384  1.2548 -2.8245
  110OSM      P11339   4.160   3.598  11.050 -0.2879  0.4090  0.0491
  110OSM    O1311340   4.102   3.720  10.989  0.9549 -0.3107 -0.1375
  110OSM    O1411341   4.193   3.600  11.192  0.4194 -0.0417 -0.8689
  110OSM    O1111342   4.293   3.549  10.972  0.6487  0.4314  0.4300
  110OSM    O1211343   4.071   3.480  11.004 -0.0807 -0.0797  0.6024
  110OSM    C1S11344   4.281   3.533  10.832 -0.1574 -0.3359  0.0435
  110OSM    H1S11345   4.205   3.605  10.794  2.6705  1.7616 -2.1712
  110OSM    H1T11346   4.254   3.429  10.806  1.7292 -0.6508 -0.8136
  110OSM     NF11347   4.385   3.568  10.602 -0.5203 -0.2170 -0.2368
  110OSM    HNF11348   4.389   3.477  10.561  0.1263 -1.1514  1.7635
  110OSM    C2S11349   4.410   3.565  10.746 -0.3813 -0.8560  0.2204
  110OSM    H2S11350   4.432   3.669  10.779 -0.5404 -0.4142 -1.0144
  110OSM    C3S11351   4.531   3.474  10.786 -0.3290 -0.6536  1.0546
  110OSM    H3S11352   4.498   3.373  10.756 -0.6421 -0.2004 -0.2096
  110OSM     O311353   4.564   3.473  10.924  0.3364 -0.0243 -0.3697
  110OSM    HO311354   4.482   3.495  10.969  0.3811 -0.9204  0.1692
  110OSM    C4S11355   4.653   3.515  10.710 -0.8567 -0.4959 -0.3256
  110OSM    H4S11356   4.675   3.623  10.702  0.2423 -0.7567 -0.9458
  110OSM    C5S11357   4.713   3.423  10.637 -0.2435 -0.3034 -0.0859
  110OSM    H5S11358   4.666   3.326  10.615 -0.3124 -0.1235 -0.7528
  110OSM    C6S11359   4.832   3.455  10.555 -0.1471  0.3970 -0.3929
  110OSM    H6S11360   4.895   3.365  10.568  0.0114  0.3330 -1.5815
  110OSM    H6T11361   4.896   3.541  10.584  0.1257  0.2623 -0.5913
  110OSM    C7S11362   4.811   3.469  10.406  0.8123 -0.3863 -0.0463
  110OSM    H7S11363   4.760   3.380  10.364 -0.7141  0.4370 -0.0008
  110OSM    H7T11364   4.916   3.470  10.371  0.4474  0.1416 -1.1679
  110OSM    C8S11365   4.725   3.592  10.369 -0.4110  0.0388  1.3119
  110OSM    H8S11366   4.784   3.680  10.404  2.0612 -1.0577  0.1428
  110OSM    H8T11367   4.628   3.588  10.423  0.0758 -0.5466  2.1812
  110OSM    C9S11368   4.695   3.594  10.219  0.6489  0.4965 -0.6859
  110OSM    H9S11369   4.632   3.684  10.201 -1.2975 -0.6511  0.0334
  110OSM    H9T11370   4.618   3.515  10.203 -0.2308  1.1732  0.0471
  110OSM   C10S11371   4.809   3.581  10.115 -0.3436  0.0004 -0.7649
  110OSM   H10S11372   4.859   3.482  10.119 -0.5577 -0.0737  1.0814
  110OSM   H10T11373   4.882   3.652  10.159 -1.0653  0.3572 -0.1221
  110OSM   C11S11374   4.768   3.615   9.972 -0.2263  0.4465  0.8241
  110OSM   H11S11375   4.851   3.584   9.905  1.4018  0.1858  2.8443
  110OSM   H11T11376   4.743   3.723   9.966 -1.3085  0.3106  2.0975
  110OSM   C12S11377   4.649   3.532   9.927  0.0853  0.7490  0.3591
  110OSM   H12S11378   4.562   3.546   9.995 -0.9151 -1.9462 -0.2191
  110OSM   H12T11379   4.674   3.425   9.945  2.0752  1.6322  3.6893
  110OSM   C13S11380   4.602   3.562   9.782 -0.3657 -0.2401  0.0779
  110OSM   H13S11381   4.564   3.667   9.790  0.3619  0.0358 -0.0480
  110OSM   H13T11382   4.518   3.500   9.744  0.7581 -1.8301  0.1161
  110OSM   C14S11383   4.713   3.552   9.681  0.3844  0.3984  0.3616
  110OSM   H14S11384   4.735   3.443   9.672 -0.3897  0.0636  2.1553
  110OSM   H14T11385   4.805   3.609   9.705 -0.7204  2.5040 -0.1680
  110OSM   C15S11386   4.645   3.587   9.543  0.1943 -0.1472 -0.0709
  110OSM   H15S11387   4.608   3.692   9.542 -1.1927 -0.5727 -2.7881
  110OSM   H15T11388   4.560   3.516   9.539  0.5521 -0.6054  0.2707
  110OSM   C16S11389   4.742   3.569   9.419 -0.0702  0.0863 -0.6221
  110OSM   H16S11390   4.787   3.467   9.416 -0.5444 -0.1161 -0.9629
  110OSM   H16T11391   4.825   3.643   9.423 -0.3311  0.5868 -3.2396
  110OSM   C17S11392   4.675   3.573   9.288  0.3516  0.3055  0.9790
  110OSM   H17S11393   4.615   3.485   9.257  2.0886 -0.5592 -0.0385
  110OSM   H17T11394   4.752   3.573   9.209 -1.2434 -1.7665 -0.6796
  110OSM   C18S11395   4.593   3.704   9.279 -0.4552  0.4560 -0.3818
  110OSM   H18S11396   4.583   3.737   9.174  0.5784  0.1703 -0.5757
  110OSM   H18T11397   4.624   3.788   9.345 -1.6062 -0.8976  2.0308
  110OSM   H18U11398   4.494   3.665   9.312  0.2201 -0.3514  0.7534
  110OSM    C1F11399   4.340   3.677  10.534  0.0264  0.1795 -0.2747
  110OSM     OF11400   4.315   3.785  10.592 -0.7809 -0.9194 -0.1405
  110OSM    C2F11401   4.330   3.651  10.384 -0.7416  0.8664 -0.0391
  110OSM    H2F11402   4.223   3.628  10.365  0.1253 -1.3968 -3.1199
  110OSM    H2G11403   4.398   3.567  10.359  1.5994  2.6792 -0.0725
  110OSM    C3F11404   4.356   3.784  10.300 -0.0294  0.4950 -0.0496
  110OSM    H3F11405   4.464   3.803  10.285 -0.0578  0.7846  0.1060
  110OSM    H3G11406   4.309   3.868  10.356 -0.7159  0.8235 -1.0907
  110OSM    C4F11407   4.290   3.782  10.165  0.0566  0.1918 -0.6330
  110OSM    H4F11408   4.298   3.887  10.131 -0.2026  0.5020  0.2292
  110OSM    H4G11409   4.184   3.749  10.161  0.8637 -2.5185 -1.6560
  110OSM    C5F11410   4.368   3.707  10.055 -1.1124  0.0286 -0.2891
  110OSM    H5F11411   4.360   3.599  10.083 -0.5310  0.2341  0.7262
  110OSM    H5G11412   4.477   3.729  10.052 -1.3220  1.0360 -0.9140
  110OSM    C6F11413   4.316   3.730   9.914 -0.0627 -0.1663  0.1863
  110OSM    H6F11414   4.206   3.713   9.914 -0.4202  1.8576  1.6455
  110OSM    H6G11415   4.366   3.659   9.845  0.8132  1.2119 -0.6496
  110OSM    C7F11416   4.333   3.878   9.863 -0.6000  0.6609 -0.5174
  110OSM    H7F11417   4.441   3.899   9.852 -0.0517 -1.7097 -0.2637
  110OSM    H7G11418   4.295   3.948   9.941  0.5356 -1.1691  1.7969
  110OSM    C8F11419   4.255   3.897   9.735 -0.6050  0.1567  0.3094
  110OSM    H8F11420   4.237   4.006   9.726  2.2159  0.7579  0.9695
  110OSM    H8G11421   4.163   3.836   9.748 -0.3782  0.2902  3.5782
  110OSM    C9F11422   4.348   3.864   9.619 -0.2083  0.2105 -0.1222
  110OSM    H9F11423   4.434   3.803   9.648  0.7133  1.5146 -0.0254
  110OSM   C10F11424   4.339   3.908   9.493  0.0263  0.0129 -0.1057
  110OSM   H10F11425   4.400   3.872   9.408 -1.1624  0.7481 -1.3105
  110OSM   C11F11426   4.226   3.990   9.444 -0.1081 -0.4197  0.3926
  110OSM   H11F11427   4.250   4.097   9.460 -0.9771  0.0691 -1.2842
  110OSM   H11G11428   4.131   3.952   9.487 -0.2460 -0.3582  0.1485
  110OSM   C12F11429   4.213   3.996   9.283 -0.2854  0.0196  0.0372
  110OSM   H12F11430   4.309   4.023   9.234 -1.1074 -0.3845 -1.8492
  110OSM   H12G11431   4.144   4.081   9.263 -0.8123 -1.0322 -2.9745
  110OSM   C13F11432   4.159   3.862   9.231  0.2708  0.5098 -0.0323
  110OSM   H13F11433   4.070   3.833   9.291  1.0204 -0.1320  0.8033
  110OSM   H13G11434   4.242   3.790   9.249  0.2379  0.9935  2.3571
  110OSM   C14F11435   4.111   3.852   9.082  0.0089  0.4889 -0.0045
  110OSM   H14F11436   4.018   3.914   9.076  0.7111  1.4984 -0.7875
  110OSM   H14G11437   4.081   3.750   9.050  0.6752 -0.1977  1.4668
  110OSM   C15F11438   4.207   3.911   8.987  0.1682  0.4152  0.1473
  110OSM   H15F11439   4.223   4.021   9.000  1.8597  0.1263  0.7805
  110OSM   H15G11440   4.155   3.908   8.889 -0.1020  2.8737  0.1366
  110OSM   C16F11441   4.340   3.838   8.978  0.1717  0.7357 -0.0171
  110OSM   H16F11442   4.365   3.817   9.084 -0.6274 -0.8145 -0.1125
  110OSM   H16G11443   4.411   3.903   8.922 -0.0541  0.7985 -0.2330
  110OSM   C17F11444   4.340   3.694   8.913 -0.3136  0.1295 -0.1596
  110OSM   H17F11445   4.283   3.620   8.975  1.3613 -2.5942 -1.6837
  110OSM   H17G11446   4.446   3.666   8.927 -0.0313  1.8746  1.6417
  110OSM   C18F11447   4.283   3.692   8.775 -0.4923 -0.1041  0.2227
  110OSM   H18F11448   4.177   3.727   8.772 -0.5145 -0.1983 -2.2861
  110OSM   H18G11449   4.282   3.589   8.733 -2.3440 -0.7181  1.6224
  110OSM   H18H11450   4.344   3.756   8.709 -1.4993 -0.4518 -1.0986
  111OSM      N11451   5.215   0.049  11.108  0.6771 -0.5126  0.2236
  111OSM    C1511452   5.317  -0.057  11.098 -0.2187 -0.1544 -0.1801
  111OSM   H15A11453   5.367  -0.057  11.194 -0.8151 -1.9033  0.1698
  111OSM   H15B11454   5.382  -0.046  11.013  0.3968 -2.2496 -0.0355
  111OSM   H15C11455   5.263  -0.150  11.087 -0.4514 -0.0964  0.4197
  111OSM    C1411456   5.095   0.016  11.027  0.2540  0.4069 -0.0338
  111OSM   H14A11457   5.076  -0.090  11.030  0.5503  0.3550  0.0989
  111OSM   H14B11458   5.100   0.030  10.920  1.0581 -2.3865 -0.4412
  111OSM   H14C11459   5.004   0.058  11.065  0.6262 -0.1335  1.5145
  111OSM    C1311460   5.172   0.036  11.250 -0.3355 -0.2362 -0.1014
  111OSM   H13A11461   5.113  -0.052  11.274  0.8788 -1.0796 -0.1127
  111OSM   H13B11462   5.117   0.125  11.278  3.0855  1.9015  0.3825
  111OSM   H13C11463   5.253   0.041  11.322  0.1891  0.8807 -0.7486
  111OSM    C1211464   5.258   0.195  11.073  0.0735  0.8278  0.0411
  111OSM   H12A11465   5.313   0.235  11.157 -0.1168 -0.9089  1.0602
  111OSM   H12B11466   5.174   0.263  11.070  1.2766  2.3069 -1.1475
  111OSM    C1111467   5.342   0.226  10.944  0.2651  0.3286 -0.5055
  111OSM   H11A11468   5.376   0.331  10.953  1.4139 -0.1334  0.8457
  111OSM   H11B11469   5.276   0.198  10.858  1.1634  0.9926 -1.4383
  111OSM      P11470   5.592   0.182  11.010  0.6288 -0.3846 -0.5180
  111OSM    O1311471   5.559   0.257  11.137  1.3502  0.1192 -0.1298
  111OSM    O1411472   5.667   0.058  11.018  0.1260  0.1278 -0.6425
  111OSM    O1111473   5.656   0.285  10.910 -0.2200  0.2768 -0.2278
  111OSM    O1211474   5.454   0.141  10.940  0.1161 -0.2441  0.6971
  111OSM    C1S11475   5.713   0.233  10.791 -0.3444  0.7627  0.1566
  111OSM    H1S11476   5.761   0.133  10.796 -1.4033  0.3159  2.7349
  111OSM    H1T11477   5.795   0.302  10.762  0.9031 -1.1734 -1.1204
  111OSM     NF11478   5.660   0.188  10.552 -0.5194 -0.1324  0.6485
  111OSM    HNF11479   5.675   0.244  10.472 -1.7008 -0.5452  0.1274
  111OSM    C2S11480   5.615   0.252  10.674  0.2089  0.2113 -0.4364
  111OSM    H2S11481   5.520   0.209  10.713  0.8668  0.2955  1.3365
  111OSM    C3S11482   5.584   0.399  10.664 -0.4961  0.1527  0.3776
  111OSM    H3S11483   5.680   0.452  10.652  0.4029 -0.7529  2.8783
  111OSM     O311484   5.517   0.452  10.784  0.0059 -0.2132 -0.2342
  111OSM    HO311485   5.546   0.405  10.862 -0.7829  0.0304  0.2103
  111OSM    C4S11486   5.482   0.414  10.550  0.2483  1.3354  0.1786
  111OSM    H4S11487   5.375   0.396  10.570  0.3803  0.9715  0.5759
  111OSM    C5S11488   5.516   0.464  10.431  0.0163  0.1866  0.4794
  111OSM    H5S11489   5.616   0.500  10.403  0.6292 -1.5515  0.3251
  111OSM    C6S11490   5.420   0.491  10.316 -0.2975 -0.3878 -0.2014
  111OSM    H6S11491   5.396   0.599  10.327  0.0523 -0.1201 -1.7916
  111OSM    H6T11492   5.320   0.447  10.337 -0.6222  1.2150  1.9458
  111OSM    C7S11493   5.484   0.473  10.177  1.0037 -0.2982  0.4206
  111OSM    H7S11494   5.517   0.367  10.165 -0.3359 -0.6604 -0.3355
  111OSM    H7T11495   5.577   0.533  10.169  1.4198 -1.0791 -1.1559
  111OSM    C8S11496   5.386   0.508  10.058 -0.2527  0.3953 -0.1013
  111OSM    H8S11497   5.335   0.604  10.084  0.1960  0.6914 -0.3126
  111OSM    H8T11498   5.310   0.427  10.055 -2.3314  2.2584 -0.8279
  111OSM    C9S11499   5.463   0.531   9.928  0.6224  0.3085  0.4530
  111OSM    H9S11500   5.520   0.440   9.899  2.1745  1.5181 -0.4333
  111OSM    H9T11501   5.538   0.612   9.943  1.1429 -0.3571  1.5207
  111OSM   C10S11502   5.376   0.555   9.802 -0.0292  0.6840  0.1294
  111OSM   H10S11503   5.295   0.624   9.834 -0.9000 -0.1432 -0.2799
  111OSM   H10T11504   5.331   0.459   9.771 -0.4985  1.0340 -0.2939
  111OSM   C11S11505   5.458   0.594   9.686  0.4873  0.5802  0.2008
  111OSM   H11S11506   5.553   0.536   9.679  0.8579  1.2859 -0.7921
  111OSM   H11T11507   5.490   0.700   9.699 -0.5973  1.3956 -2.9617
  111OSM   C12S11508   5.370   0.577   9.556  0.0672  0.2877  0.2575
  111OSM   H12S11509   5.274   0.631   9.574 -2.2901 -2.5696 -2.5167
  111OSM   H12T11510   5.332   0.475   9.534 -2.2381  0.6957  1.9401
  111OSM   C13S11511   5.446   0.642   9.444 -0.0757  0.1040  0.2829
  111OSM   H13S11512   5.537   0.591   9.406  0.7328  0.4583  1.6616
  111OSM   H13T11513   5.475   0.747   9.468 -0.1150  0.0783  0.4433
  111OSM   C14S11514   5.350   0.638   9.321  0.3296 -0.4059  0.4892
  111OSM   H14S11515   5.249   0.683   9.335  0.4767  0.0703  0.0426
  111OSM   H14T11516   5.336   0.533   9.289  3.2779 -0.3221 -1.3955
  111OSM   C15S11517   5.409   0.711   9.204 -0.0567  0.0096  0.7055
  111OSM   H15S11518   5.509   0.664   9.194  0.7203  2.0160 -4.0106
  111OSM   H15T11519   5.440   0.810   9.245  2.2727  0.2186 -1.2991
  111OSM   C16S11520   5.329   0.719   9.068  0.0468  0.5076 -0.0814
  111OSM   H16S11521   5.232   0.770   9.078  0.0280  0.4556 -0.0024
  111OSM   H16T11522   5.303   0.615   9.037 -1.5761  1.4876 -2.2294
  111OSM   C17S11523   5.424   0.771   8.960 -0.1201  0.2234  0.5483
  111OSM   H17S11524   5.474   0.859   9.006  2.1658 -2.1200  2.9135
  111OSM   H17T11525   5.368   0.800   8.869  0.9866  0.3535 -0.1073
  111OSM   C18S11526   5.518   0.663   8.908  0.1373 -0.0644 -0.4092
  111OSM   H18S11527   5.557   0.604   8.993  1.1735 -2.3874 -2.3710
  111OSM   H18T11528   5.602   0.706   8.849 -0.8232  0.7963 -1.2062
  111OSM   H18U11529   5.468   0.590   8.841  1.2114 -0.1660 -1.1370
  111OSM    C1F11530   5.665   0.057  10.542  0.0502 -0.6407 -0.3114
  111OSM     OF11531   5.648  -0.017  10.636  0.1731 -0.0417 -0.4910
  111OSM    C2F11532   5.684  -0.000  10.404  0.5582  0.1909 -0.0836
  111OSM    H2F11533   5.656  -0.107  10.413 -1.1130  0.5779 -0.3502
  111OSM    H2G11534   5.787   0.018  10.366  1.1321 -1.4672  0.5821
  111OSM    C3F11535   5.582   0.051  10.291 -0.3008  0.0053 -0.0091
  111OSM    H3F11536   5.627   0.036  10.190 -1.3359  1.1057 -0.6628
  111OSM    H3G11537   5.572   0.161  10.305 -2.2597  0.0645 -1.5171
  111OSM    C4F11538   5.445  -0.014  10.308 -0.0102 -0.0100 -0.7508
  111OSM    H4F11539   5.398   0.022  10.402  1.9285 -0.5232  0.4826
  111OSM    H4G11540   5.464  -0.122  10.325  1.1494  0.3108  0.1176
  111OSM    C5F11541   5.350   0.003  10.184 -1.0759 -0.8126  0.1970
  111OSM    H5F11542   5.350   0.112  10.164 -0.0551 -0.4612  1.8569
  111OSM    H5G11543   5.251  -0.037  10.214 -0.5491 -2.4852 -0.2226
  111OSM    C6F11544   5.405  -0.056  10.055 -0.8303  0.1683 -0.4279
  111OSM    H6F11545   5.407  -0.166  10.068 -0.1225  0.4067  1.9883
  111OSM    H6G11546   5.506  -0.020  10.026 -1.8396  2.2459 -1.6287
  111OSM    C7F11547   5.316  -0.028   9.933  0.9887  0.2209 -0.2613
  111OSM    H7F11548   5.208  -0.037   9.958  1.3609 -0.0962  1.3139
  111OSM    H7G11549   5.338  -0.103   9.853 -2.3583 -3.1001  1.6221
  111OSM    C8F11550   5.319   0.127   9.883 -0.1441 -0.1207  0.3984
  111OSM    H8F11551   5.310   0.192   9.973 -2.8582 -1.3866  1.1538
  111OSM    H8G11552   5.227   0.138   9.822  0.6893 -0.3780 -0.9385
  111OSM    C9F11553   5.445   0.158   9.802 -0.2311  0.3798 -0.5112
  111OSM    H9F11554   5.527   0.210   9.854  0.5415 -0.4026 -0.9162
  111OSM   C10F11555   5.458   0.134   9.674 -0.2729 -0.3768  0.3972
  111OSM   H10F11556   5.555   0.166   9.634 -0.7393 -0.6510 -1.0221
  111OSM   C11F11557   5.354   0.082   9.576  0.5030 -0.0920 -0.5985
  111OSM   H11F11558   5.261   0.046   9.625  2.4403 -0.6148  3.0265
  111OSM   H11G11559   5.401  -0.005   9.524  1.5141 -0.0273  0.1785
  111OSM   C12F11560   5.314   0.163   9.457 -0.3241 -0.7951 -0.2722
  111OSM   H12F11561   5.409   0.183   9.403  0.9796  1.9796  2.7266
  111OSM   H12G11562   5.276   0.263   9.487 -0.1673 -0.5851 -0.7642
  111OSM   C13F11563   5.206   0.100   9.361 -0.1961  0.1207  0.3545
  111OSM   H13F11564   5.131   0.179   9.337  0.1917  0.0606 -1.1594
  111OSM   H13G11565   5.153   0.016   9.411  0.7992 -0.8742 -0.1956
  111OSM   C14F11566   5.273   0.045   9.232  0.2628  0.1809  0.6073
  111OSM   H14F11567   5.331  -0.047   9.254  1.1520  0.0222 -2.1067
  111OSM   H14G11568   5.344   0.114   9.182 -1.2143 -0.0787 -2.0370
  111OSM   C15F11569   5.177   0.020   9.121  0.4005  0.6266  0.3742
  111OSM   H15F11570   5.243   0.004   9.033  0.0524  0.0419  0.2130
  111OSM   H15G11571   5.123   0.116   9.107  2.3379  1.8342  0.8509
  111OSM   C16F11572   5.081  -0.093   9.152  0.0128  0.5689  0.2841
  111OSM   H16F11573   5.013  -0.080   9.238 -2.3357  0.2474 -1.4340
  111OSM   H16G11574   5.143  -0.185   9.162  1.6278  1.5499 -0.3668
  111OSM   C17F11575   4.988  -0.108   9.032 -0.7848  0.2785 -0.0228
  111OSM   H17F11576   5.055  -0.141   8.950 -1.6999  1.6110 -1.3621
  111OSM   H17G11577   4.936  -0.012   9.012 -1.7779 -0.4283 -0.9471
  111OSM   C18F11578   4.886  -0.227   9.052 -0.1990 -0.7844  0.2066
  111OSM   H18F11579   4.820  -0.206   9.139  0.6413 -2.0756  1.1854
  111OSM   H18G11580   4.940  -0.320   9.079 -0.6625 -1.0343  0.2917
  111OSM   H18H11581   4.826  -0.244   8.960 -0.5956  1.2806  0.0158
  112OSM      N11582   4.873   5.162  11.486  0.1304  0.1529  0.1639
  112OSM    C1511583   4.826   5.035  11.547  0.9310 -0.2214  0.3828
  112OSM   H15A11584   4.809   5.051  11.653 -1.3555 -1.6289  0.2904
  112OSM   H15B11585   4.894   4.955  11.521  1.2149  0.5231 -1.3121
  112OSM   H15C11586   4.731   4.997  11.513  0.3737  0.1068  1.5226
  112OSM    C1411587   4.775   5.273  11.511 -0.5891  0.3559  0.1165
  112OSM   H14A11588   4.801   5.350  11.439 -4.5534 -0.2750 -2.3274
  112OSM   H14B11589   4.775   5.310  11.612 -0.9163  1.9848 -0.4406
  112OSM   H14C11590   4.676   5.241  11.482 -0.2072 -1.7890  1.0254
  112OSM    C1311591   5.008   5.200  11.547  0.2077 -0.0648  0.2649
  112OSM   H13A11592   4.994   5.231  11.650 -1.2761  1.5466 -0.3796
  112OSM   H13B11593   5.055   5.277  11.488 -1.8498 -0.6344 -2.2780
  112OSM   H13C11594   5.078   5.118  11.541  1.2642  0.5521  2.8699
  112OSM    C1211595   4.894   5.138  11.333  0.5570  0.4475  0.1933
  112OSM   H12A11596   4.924   5.228  11.280 -0.6454  0.8718  0.2077
  112OSM   H12B11597   4.797   5.119  11.291 -0.3235  1.8660  1.4822
  112OSM    C1111598   4.997   5.034  11.286 -0.2738  0.2805  0.0211
  112OSM   H11A11599   5.100   5.073  11.304  0.2683  0.2796 -2.6335
  112OSM   H11B11600   4.985   5.023  11.176  0.6264 -0.3233 -0.0288
  112OSM      P11601   5.067   4.790  11.366  0.0733  0.2197  0.5241
  112OSM    O1311602   5.197   4.829  11.418  0.1449  0.4369 -0.1835
  112OSM    O1411603   4.993   4.682  11.430 -0.3467 -0.0763 -0.5565
  112OSM    O1111604   5.080   4.755  11.211 -0.6952  0.3096 -0.2619
  112OSM    O1211605   4.976   4.912  11.357  0.7981  0.1404  0.1404
  112OSM    C1S11606   4.985   4.670  11.146 -0.3103  0.9985  0.5250
  112OSM    H1S11607   4.882   4.705  11.167 -0.7697 -0.2041  0.3843
  112OSM    H1T11608   5.001   4.567  11.183  1.1248  0.6354 -0.9585
  112OSM     NF11609   4.883   4.633  10.932 -0.5807 -0.3466 -0.0419
  112OSM    HNF11610   4.876   4.539  10.898 -0.7286  0.2977 -1.9118
  112OSM    C2S11611   5.006   4.685  10.999  0.1106  0.1646  0.4421
  112OSM    H2S11612   5.012   4.793  10.973 -2.6984  0.0617 -1.1475
  112OSM    C3S11613   5.137   4.623  10.943  0.1699  1.2432 -0.1914
  112OSM    H3S11614   5.120   4.514  10.957  1.6626  1.0981  0.7001
  112OSM     O311615   5.251   4.648  11.026 -0.0626  0.7268 -0.1597
  112OSM    HO311616   5.209   4.689  11.102 -0.7656  0.2238 -0.2658
  112OSM    C4S11617   5.156   4.660  10.796 -0.3933  0.8323 -0.4463
  112OSM    H4S11618   5.103   4.589  10.731 -0.9078  0.2113  0.6185
  112OSM    C5S11619   5.225   4.761  10.736 -0.0243  0.6345 -0.1759
  112OSM    H5S11620   5.267   4.837  10.803  0.1012  0.5325 -0.1390
  112OSM    C6S11621   5.234   4.797  10.587 -0.2423  0.4596 -0.2550
  112OSM    H6S11622   5.342   4.800  10.560  0.8134 -3.2977  2.8184
  112OSM    H6T11623   5.209   4.904  10.571 -2.1255 -0.1778 -2.1406
  112OSM    C7S11624   5.163   4.700  10.493 -0.0501  0.1819  0.3454
  112OSM    H7S11625   5.054   4.701  10.513 -0.7019  1.2471 -2.7426
  112OSM    H7T11626   5.205   4.599  10.513 -0.3921 -0.3328 -1.3740
  112OSM    C8S11627   5.195   4.728  10.347  0.3447 -0.0331 -0.0452
  112OSM    H8S11628   5.197   4.628  10.299 -0.8712 -0.7963  1.3730
  112OSM    H8T11629   5.299   4.765  10.338  0.9713 -1.3109  1.4400
  112OSM    C9S11630   5.102   4.815  10.264  0.3349  0.1124 -0.3296
  112OSM    H9S11631   5.107   4.913  10.315 -0.0595  0.0826 -0.2329
  112OSM    H9T11632   4.999   4.773  10.273  0.8437 -1.1147 -0.0296
  112OSM   C10S11633   5.149   4.835  10.123 -0.3540  0.1720 -0.3629
  112OSM   H10S11634   5.189   4.742  10.077  0.2420  0.9806 -1.5091
  112OSM   H10T11635   5.224   4.915  10.111  0.4472 -0.7730 -1.9122
  112OSM   C11S11636   5.034   4.875  10.032  0.0760  0.7290 -0.2687
  112OSM   H11S11637   4.996   4.967  10.081 -0.6848 -0.1599  0.8343
  112OSM   H11T11638   4.971   4.785  10.042  1.8584 -0.6487 -0.8091
  112OSM   C12S11639   5.069   4.915   9.886 -0.2526  0.5851  0.1711
  112OSM   H12S11640   5.156   4.985   9.891  0.1327  0.2495 -1.2974
  112OSM   H12T11641   4.997   4.979   9.830  0.8510  0.2505 -1.7499
  112OSM   C13S11642   5.114   4.803   9.793  0.1592  0.9359 -0.1507
  112OSM   H13S11643   5.039   4.724   9.774  0.3187  0.4970  0.9349
  112OSM   H13T11644   5.202   4.746   9.829 -1.7640 -2.0304  0.1862
  112OSM   C14S11645   5.138   4.856   9.652  0.1953  0.0265 -0.1171
  112OSM   H14S11646   5.217   4.934   9.653 -0.8197  1.0918  0.7733
  112OSM   H14T11647   5.049   4.908   9.609  0.0281  0.3899  0.6433
  112OSM   C15S11648   5.192   4.756   9.548  0.2604  0.0005 -0.1023
  112OSM   H15S11649   5.122   4.669   9.550  0.1769  0.0592 -0.3603
  112OSM   H15T11650   5.294   4.715   9.560  1.2846  1.2143 -3.6337
  112OSM   C16S11651   5.194   4.818   9.406 -0.3766  0.7630 -0.0894
  112OSM   H16S11652   5.092   4.864   9.404 -2.1340 -2.6233  2.1968
  112OSM   H16T11653   5.199   4.740   9.328 -0.2126 -0.3204  0.9802
  112OSM   C17S11654   5.295   4.935   9.389  0.4202  0.2484 -0.4142
  112OSM   H17S11655   5.398   4.908   9.419 -0.0899 -0.5899  0.6335
  112OSM   H17T11656   5.259   5.018   9.455 -2.2614 -0.4236 -0.9348
  112OSM   C18S11657   5.303   4.981   9.244  0.5911  0.4398  0.2124
  112OSM   H18S11658   5.205   5.026   9.217  1.0860  1.2965 -0.2095
  112OSM   H18T11659   5.315   4.889   9.184 -0.6829 -1.6885  3.0084
  112OSM   H18U11660   5.386   5.054   9.226  0.2980  1.0978  1.4026
  112OSM    C1F11661   4.766   4.704  10.933 -0.5962 -0.5262  0.6219
  112OSM     OF11662   4.760   4.816  10.979  0.1224  0.5024 -0.4898
  112OSM    C2F11663   4.645   4.642  10.859 -0.7354  0.1789 -0.2681
  112OSM    H2F11664   4.551   4.699  10.869 -1.3078 -0.9093  0.8414
  112OSM    H2G11665   4.646   4.541  10.907  0.5102  0.4493  0.3261
  112OSM    C3F11666   4.671   4.620  10.708 -0.2559  0.4660  0.4502
  112OSM    H3F11667   4.743   4.536  10.700  1.3612  1.9018 -1.3162
  112OSM    H3G11668   4.723   4.697  10.647  3.6501 -2.8368 -0.7926
  112OSM    C4F11669   4.544   4.570  10.628 -0.4218  0.1694  0.2664
  112OSM    H4F11670   4.475   4.655  10.610  0.3674  1.0426  1.2487
  112OSM    H4G11671   4.494   4.496  10.694 -0.7688  0.4323  0.3001
  112OSM    C5F11672   4.582   4.501  10.497  0.2247  0.5485  0.5829
  112OSM    H5F11673   4.498   4.447  10.449 -0.9569  1.5283  1.4998
  112OSM    H5G11674   4.652   4.421  10.529 -1.2434  0.2491  3.4077
  112OSM    C6F11675   4.659   4.598  10.396 -0.2154 -0.3330 -0.0777
  112OSM    H6F11676   4.756   4.623  10.445 -0.3081 -0.5843  0.2340
  112OSM    H6G11677   4.588   4.682  10.381 -0.2266 -0.4053 -0.4268
  112OSM    C7F11678   4.698   4.522  10.268 -0.1983 -0.1032  0.0288
  112OSM    H7F11679   4.613   4.468  10.221  0.2081 -0.4269 -0.3596
  112OSM    H7G11680   4.777   4.448  10.294  1.4654  1.8188  0.7284
  112OSM    C8F11681   4.756   4.618  10.164  0.5143 -0.4428  0.4204
  112OSM    H8F11682   4.848   4.668  10.204  0.2736 -0.9759  1.6879
  112OSM    H8G11683   4.687   4.703  10.145  2.9419  1.3955 -0.7718
  112OSM    C9F11684   4.787   4.540  10.045  0.9575  0.2409  0.2138
  112OSM    H9F11685   4.874   4.476  10.066  2.1792  1.0036 -2.1174
  112OSM   C10F11686   4.748   4.547   9.915 -0.3419 -0.0981 -1.5209
  112OSM   H10F11687   4.774   4.467   9.845 -1.2047 -2.2267  0.4485
  112OSM   C11F11688   4.647   4.642   9.861  0.7038 -0.6800  0.5526
  112OSM   H11F11689   4.616   4.727   9.925  0.9233 -1.2248  1.4009
  112OSM   H11G11690   4.551   4.593   9.833  0.2974  0.2325  0.3019
  112OSM   C12F11691   4.706   4.701   9.731 -0.4765  0.0874  0.5085
  112OSM   H12F11692   4.800   4.753   9.760 -0.4524 -0.3249  1.2031
  112OSM   H12G11693   4.638   4.772   9.681  1.7843  1.6404 -0.5107
  112OSM   C13F11694   4.729   4.608   9.608 -0.3065  0.6910 -0.1578
  112OSM   H13F11695   4.636   4.549   9.589  0.5311 -1.3966  1.7965
  112OSM   H13G11696   4.812   4.535   9.619 -0.7127  0.3457  0.8119
  112OSM   C14F11697   4.770   4.699   9.487 -0.6418 -0.1576  0.0800
  112OSM   H14F11698   4.866   4.750   9.511 -1.5678  2.0336 -0.6185
  112OSM   H14G11699   4.693   4.773   9.460 -1.2840  0.1834  2.5780
  112OSM   C15F11700   4.802   4.624   9.357  0.0958  0.3542 -0.0223
  112OSM   H15F11701   4.711   4.574   9.318  0.2183 -0.8625  1.1680
  112OSM   H15G11702   4.878   4.548   9.387  0.7038  0.5778 -0.9683
  112OSM   C16F11703   4.859   4.704   9.245 -0.8474  0.8692 -0.2550
  112OSM   H16F11704   4.932   4.775   9.289 -0.2979  0.0250  0.2096
  112OSM   H16G11705   4.785   4.770   9.195 -1.6343 -0.0291 -0.2912
  112OSM   C17F11706   4.946   4.626   9.139 -0.3047  0.3070 -0.0927
  112OSM   H17F11707   4.998   4.707   9.084  0.7281  1.2176  2.0762
  112OSM   H17G11708   4.875   4.571   9.074 -1.0850  1.5768 -0.3512
  112OSM   C18F11709   5.042   4.517   9.197  0.5246  0.2625 -0.2802
  112OSM   H18F11710   5.108   4.472   9.119 -2.0689 -2.5084 -1.0952
  112OSM   H18G11711   4.989   4.433   9.246  1.3403  0.7279  1.4485
  112OSM   H18H11712   5.106   4.571   9.270 -0.7520 -0.4671  1.4518
  113OSM      N11713   1.952   4.034  11.124  0.4458 -0.1570  0.7315
  113OSM    C1511714   1.975   4.182  11.119  0.3419 -0.2057  0.4314
  113OSM   H15A11715   1.996   4.215  11.019 -4.0605  2.9775  0.3089
  113OSM   H15B11716   2.063   4.210  11.176  1.2390  2.5039 -2.0617
  113OSM   H15C11717   1.895   4.242  11.159  0.7442  2.8534 -2.8302
  113OSM    C1411718   1.840   4.001  11.035  0.0231  0.2137  0.1362
  113OSM   H14A11719   1.843   3.896  11.008 -2.3347  0.2322 -0.3633
  113OSM   H14B11720   1.856   4.065  10.949  0.5590 -0.9923 -0.7063
  113OSM   H14C11721   1.747   4.029  11.082 -0.4814  0.9358 -1.2341
  113OSM    C1311722   2.069   3.963  11.061 -0.5626 -0.2501  0.6204
  113OSM   H13A11723   2.033   3.891  10.989 -2.2486  0.3226  0.8443
  113OSM   H13B11724   2.129   3.922  11.142 -0.3488  0.9965  1.1141
  113OSM   H13C11725   2.133   4.033  11.010  1.7773 -2.4087  0.3692
  113OSM    C1211726   1.923   3.978  11.263 -0.0163 -0.8114  0.1708
  113OSM   H12A11727   2.011   3.975  11.326 -1.0260 -2.2844  1.5851
  113OSM   H12B11728   1.900   3.873  11.247 -3.4779 -0.2725  0.8238
  113OSM    C1111729   1.807   4.043  11.337  0.2607  0.6163 -0.3294
  113OSM   H11A11730   1.827   4.152  11.346  0.4876  0.5255  0.2517
  113OSM   H11B11731   1.803   4.021  11.445  0.6422  3.7139  0.4240
  113OSM      P11732   1.606   3.892  11.270  0.0978  0.0838 -0.3775
  113OSM    O1311733   1.706   3.787  11.300  0.1433 -0.0550 -0.0988
  113OSM    O1411734   1.479   3.898  11.348 -0.5069  0.1233  0.6363
  113OSM    O1111735   1.574   3.888  11.117 -0.4301 -0.1668  0.2092
  113OSM    O1211736   1.682   4.034  11.278  0.2761 -0.8826  0.0508
  113OSM    C1S11737   1.483   3.984  11.059 -0.8249 -0.0395 -0.5610
  113OSM    H1S11738   1.533   4.075  11.019  0.0864 -0.4162 -0.2813
  113OSM    H1T11739   1.421   4.036  11.135 -1.5855 -1.2703 -0.3212
  113OSM     NF11740   1.320   4.004  10.870  0.6528 -0.3670 -0.8726
  113OSM    HNF11741   1.223   4.007  10.893  0.3224  0.3517 -2.2752
  113OSM    C2S11742   1.393   3.913  10.951  0.1180  0.6646  0.3914
  113OSM    H2S11743   1.452   3.849  10.883 -0.7944 -0.3332  0.5203
  113OSM    C3S11744   1.307   3.800  11.025  0.3369 -0.0814 -0.1573
  113OSM    H3S11745   1.250   3.843  11.110  1.2548 -2.2407  1.6628
  113OSM     O311746   1.389   3.704  11.095  0.6004 -0.2314  0.6692
  113OSM    HO311747   1.473   3.750  11.105 -0.0399  1.3411 -0.7180
  113OSM    C4S11748   1.201   3.738  10.933 -0.8922  0.1897  0.8780
  113OSM    H4S11749   1.097   3.772  10.929 -0.9889 -0.1790 -0.9894
  113OSM    C5S11750   1.239   3.652  10.841 -0.0208  0.2203 -0.2571
  113OSM    H5S11751   1.346   3.623  10.846  0.0101  0.5031  2.0245
  113OSM    C6S11752   1.144   3.578  10.754 -0.4173 -0.4781 -0.3699
  113OSM    H6S11753   1.042   3.582  10.798  0.3804 -2.1345  1.7929
  113OSM    H6T11754   1.161   3.468  10.750 -0.4822 -0.4784 -0.6801
  113OSM    C7S11755   1.128   3.631  10.609  0.1315  0.0938  0.0569
  113OSM    H7S11756   1.061   3.565  10.551  0.9663  0.6496 -1.5812
  113OSM    H7T11757   1.218   3.603  10.550  0.3791  1.5283 -0.2847
  113OSM    C8S11758   1.104   3.777  10.587  0.2349  0.0590  0.0234
  113OSM    H8S11759   1.199   3.829  10.612  0.0201  0.7520 -0.5904
  113OSM    H8T11760   1.034   3.816  10.663  2.0426  0.5337  1.5209
  113OSM    C9S11761   1.054   3.813  10.440  0.4585 -0.1035 -0.2749
  113OSM    H9S11762   1.033   3.921  10.427 -0.3164 -0.0840  0.9381
  113OSM    H9T11763   0.955   3.770  10.416  1.7918 -3.3424 -0.5041
  113OSM   C10S11764   1.153   3.771  10.333  0.2524 -0.4227  0.1152
  113OSM   H10S11765   1.160   3.661  10.339  0.6067 -0.4230 -0.2547
  113OSM   H10T11766   1.258   3.800  10.355  0.2875 -1.0195  0.7637
  113OSM   C11S11767   1.120   3.818  10.193 -0.5604  0.7793  0.1497
  113OSM   H11S11768   1.078   3.920  10.201  0.5761  1.4003 -1.2887
  113OSM   H11T11769   1.049   3.750  10.141  0.9961 -0.7248 -0.1058
  113OSM   C12S11770   1.244   3.843  10.108  0.2691  0.3014  0.3210
  113OSM   H12S11771   1.314   3.756  10.103 -1.6761 -1.3555  0.2539
  113OSM   H12T11772   1.304   3.926  10.150  2.2503 -1.9392  2.2538
  113OSM   C13S11773   1.213   3.875   9.959 -0.3774 -0.0795  0.0942
  113OSM   H13S11774   1.308   3.924   9.928  0.0241  1.4232  3.2624
  113OSM   H13T11775   1.140   3.958   9.945  1.1679  1.0262 -1.9591
  113OSM   C14S11776   1.181   3.760   9.871  0.2430 -0.4441  0.8926
  113OSM   H14S11777   1.098   3.694   9.905  1.3910 -1.7953  1.1545
  113OSM   H14T11778   1.272   3.700   9.847 -0.0687 -1.4392  2.1191
  113OSM   C15S11779   1.136   3.794   9.722  0.4206  0.0085  0.3811
  113OSM   H15S11780   1.045   3.857   9.730  0.5744  0.0143  2.5598
  113OSM   H15T11781   1.107   3.704   9.663  0.0119 -0.2258  0.9340
  113OSM   C16S11782   1.249   3.878   9.645  1.0605 -0.4544 -0.8082
  113OSM   H16S11783   1.354   3.845   9.662  1.5224  1.6202  0.6366
  113OSM   H16T11784   1.240   3.980   9.687  1.1543 -0.4390 -0.8273
  113OSM   C17S11785   1.234   3.880   9.494  0.2294 -0.1523 -0.0230
  113OSM   H17S11786   1.168   3.957   9.449  0.7990 -0.3502 -1.2572
  113OSM   H17T11787   1.201   3.784   9.450  0.3854 -0.2514  0.0738
  113OSM   C18S11788   1.371   3.898   9.426 -0.0473  0.8967 -0.3805
  113OSM   H18S11789   1.428   3.986   9.459  0.3970  0.8459 -0.9936
  113OSM   H18T11790   1.350   3.923   9.320 -0.0624  3.4578  0.1593
  113OSM   H18U11791   1.425   3.801   9.428 -2.4371 -0.5730  2.7696
  113OSM    C1F11792   1.364   4.083  10.776 -0.1750 -0.4368 -0.4215
  113OSM     OF11793   1.490   4.091  10.751  1.1978 -0.5985 -0.0336
  113OSM    C2F11794   1.266   4.158  10.697 -0.0719 -0.1762  1.2265
  113OSM    H2F11795   1.267   4.266  10.721 -0.3173 -0.4566  2.5725
  113OSM    H2G11796   1.166   4.119  10.725 -0.1371  1.0009  2.7896
  113OSM    C3F11797   1.281   4.128  10.546 -0.1146  0.1764 -0.6960
  113OSM    H3F11798   1.260   4.021  10.528  0.7965 -0.2623  0.6879
  113OSM    H3G11799   1.380   4.164  10.511  0.2550 -1.3730 -1.3003
  113OSM    C4F11800   1.183   4.215  10.462  0.3727  0.4095  0.8065
  113OSM    H4F11801   1.190   4.323  10.484  1.1171  0.4237  0.5133
  113OSM    H4G11802   1.078   4.180  10.477  0.0376 -0.4059 -2.5550
  113OSM    C5F11803   1.214   4.204  10.311  0.1501 -0.0773  0.5212
  113OSM    H5F11804   1.199   4.099  10.278  0.5710  0.1524 -0.4322
  113OSM    H5G11805   1.317   4.240  10.290  0.1933 -0.9394 -0.8951
  113OSM    C6F11806   1.137   4.304  10.227  0.7192  0.0695  0.5165
  113OSM    H6F11807   1.195   4.399  10.223 -2.8094  2.4349  0.4412
  113OSM    H6G11808   1.040   4.332  10.274  0.9513  0.1019  0.9797
  113OSM    C7F11809   1.094   4.256  10.080 -0.3167  0.5696  0.4943
  113OSM    H7F11810   1.014   4.184  10.107 -0.1893  0.3120  0.1952
  113OSM    H7G11811   1.186   4.210  10.039  0.1367  1.9128 -0.0476
  113OSM    C8F11812   1.040   4.362   9.981 -0.6508 -0.0388 -0.0145
  113OSM    H8F11813   0.967   4.415  10.045 -3.8570 -2.8076 -1.0474
  113OSM    H8G11814   0.983   4.320   9.895 -0.3081 -1.1667  0.2873
  113OSM    C9F11815   1.142   4.462   9.937  0.2936 -0.3551  0.2212
  113OSM    H9F11816   1.144   4.555   9.995  2.2725  0.4998 -1.0963
  113OSM   C10F11817   1.227   4.436   9.837 -0.5887  0.1162  0.7281
  113OSM   H10F11818   1.302   4.514   9.818 -2.0117  1.1339 -1.0633
  113OSM   C11F11819   1.244   4.312   9.752  0.0553 -0.0649 -0.1089
  113OSM   H11F11820   1.152   4.250   9.752  0.1278 -0.2234 -1.9690
  113OSM   H11G11821   1.331   4.249   9.780 -1.0306 -1.5479  0.0400
  113OSM   C12F11822   1.263   4.359   9.612 -0.7050  0.0672  0.6662
  113OSM   H12F11823   1.356   4.418   9.603 -0.7253 -0.2644 -3.6017
  113OSM   H12G11824   1.181   4.428   9.582 -0.0703 -0.0978 -1.6313
  113OSM   C13F11825   1.276   4.249   9.506 -0.0201 -0.0497  0.5381
  113OSM   H13F11826   1.200   4.171   9.525  0.6716 -0.7963  0.2804
  113OSM   H13G11827   1.374   4.199   9.521  0.7373  1.3506  0.4447
  113OSM   C14F11828   1.227   4.308   9.371 -0.3237  0.2678  0.6023
  113OSM   H14F11829   1.300   4.388   9.347  1.7435 -1.6673  0.0234
  113OSM   H14G11830   1.127   4.355   9.382  0.1551  1.1880  1.0766
  113OSM   C15F11831   1.213   4.202   9.262 -0.5796 -0.2726 -0.3854
  113OSM   H15F11832   1.113   4.154   9.264  0.1030 -1.8050 -1.4284
  113OSM   H15G11833   1.281   4.118   9.287 -2.5303 -1.3638  1.5933
  113OSM   C16F11834   1.226   4.250   9.116 -0.4809 -0.1586  0.0190
  113OSM   H16F11835   1.202   4.358   9.116  0.1049  0.0852  3.3850
  113OSM   H16G11836   1.147   4.198   9.057  1.2788 -1.1285 -1.6208
  113OSM   C17F11837   1.358   4.212   9.032  0.2651 -0.3846  0.7511
  113OSM   H17F11838   1.434   4.268   9.090  1.2800 -0.0770 -0.7977
  113OSM   H17G11839   1.357   4.257   8.930  1.9150  1.2723  1.4147
  113OSM   C18F11840   1.396   4.059   9.029  0.1692 -0.2653 -0.3907
  113OSM   H18F11841   1.436   4.037   9.130 -2.9752  0.8827  1.2290
  113OSM   H18G11842   1.475   4.042   8.952  0.2200  2.8674 -1.1685
  113OSM   H18H11843   1.306   3.994   9.028 -0.7931  0.8852  2.3558
  114OSM      N11844   3.416   4.986  11.553 -0.0817  0.5845 -0.3187
  114OSM    C1511845   3.294   5.059  11.546  0.2369 -0.5186  0.1557
  114OSM   H15A11846   3.214   4.990  11.522  0.7210 -1.0407  0.0185
  114OSM   H15B11847   3.296   5.138  11.473  0.4142 -1.4160 -0.8506
  114OSM   H15C11848   3.279   5.115  11.637  1.2881  0.5411 -0.2984
  114OSM    C1411849   3.531   5.089  11.552  0.7539  0.4388  0.3127
  114OSM   H14A11850   3.604   5.071  11.475  0.7283 -0.8328  0.5605
  114OSM   H14B11851   3.578   5.096  11.649 -0.1680  1.4406  0.7046
  114OSM   H14C11852   3.476   5.176  11.520 -1.0481 -1.2829 -1.6706
  114OSM    C1311853   3.419   4.918  11.690  0.1920 -0.0953  0.7275
  114OSM   H13A11854   3.350   4.836  11.702  1.0901 -0.9582  0.1841
  114OSM   H13B11855   3.396   4.989  11.768  2.0902  0.5222  0.7828
  114OSM   H13C11856   3.515   4.881  11.720  0.5066  1.1873  1.3858
  114OSM    C1211857   3.427   4.890  11.437  0.6248  0.3248  0.1022
  114OSM   H12A11858   3.352   4.814  11.449 -1.7333  2.3156 -1.3036
  114OSM   H12B11859   3.527   4.850  11.452  0.6726  0.8682  1.3637
  114OSM    C1111860   3.418   4.951  11.291  0.3925  0.6930 -0.0710
  114OSM   H11A11861   3.474   4.887  11.220 -0.9391  0.6981 -1.1746
  114OSM   H11B11862   3.463   5.053  11.291 -1.0700  1.3685 -0.7611
  114OSM      P11863   3.169   4.867  11.238  0.0940 -0.2209 -0.3023
  114OSM    O1311864   3.179   4.776  11.348  0.1166 -0.1137  0.3520
  114OSM    O1411865   3.046   4.940  11.209 -0.0572 -0.0634  0.3332
  114OSM    O1111866   3.203   4.785  11.112  0.4946 -0.2762 -0.5608
  114OSM    O1211867   3.286   4.973  11.258  0.3686  0.0357  0.3399
  114OSM    C1S11868   3.261   4.846  10.994  0.2359 -0.4060 -1.1425
  114OSM    H1S11869   3.371   4.859  11.003  0.6045 -1.9226 -2.8189
  114OSM    H1T11870   3.219   4.946  10.969  2.4532  0.4374 -1.7313
  114OSM     NF11871   3.309   4.832  10.746  0.0457  0.2374  0.6207
  114OSM    HNF11872   3.247   4.893  10.698 -1.1050  0.6591  2.5099
  114OSM    C2S11873   3.248   4.760  10.858 -0.1528 -0.1672 -0.4597
  114OSM    H2S11874   3.302   4.667  10.885 -1.0402 -0.6957 -0.4472
  114OSM    C3S11875   3.098   4.721  10.834 -0.1864 -0.0535 -0.0311
  114OSM    H3S11876   3.037   4.814  10.824  0.4187  0.8715  3.5533
  114OSM     O311877   3.029   4.662  10.944 -0.0571  0.2033 -0.1130
  114OSM    HO311878   3.080   4.699  11.017 -1.8986  0.7727  0.9418
  114OSM    C4S11879   3.093   4.627  10.720  0.6800  0.0106 -0.0308
  114OSM    H4S11880   3.173   4.552  10.725 -0.6293 -1.4784 -0.2654
  114OSM    C5S11881   3.013   4.643  10.610 -0.4550  0.1430  0.3315
  114OSM    H5S11882   2.957   4.737  10.602  0.1616  0.4163 -1.1466
  114OSM    C6S11883   3.003   4.561  10.487  0.7461  0.9902 -0.1650
  114OSM    H6S11884   2.896   4.551  10.462  0.4088  0.1787  1.4459
  114OSM    H6T11885   3.037   4.456  10.500  0.4299  1.0282  1.0950
  114OSM    C7S11886   3.084   4.622  10.376  0.5072  0.1680 -0.0589
  114OSM    H7S11887   3.192   4.602  10.392  0.0093 -1.7769  1.2389
  114OSM    H7T11888   3.062   4.730  10.357 -1.6403 -0.4820 -1.7297
  114OSM    C8S11889   3.041   4.553  10.242 -0.1722  0.5587 -0.3400
  114OSM    H8S11890   2.936   4.583  10.221  0.7932  2.8463 -2.3583
  114OSM    H8T11891   3.045   4.442  10.251 -1.7038  0.5549  0.7380
  114OSM    C9S11892   3.116   4.593  10.117 -0.1727  0.3314 -0.3639
  114OSM    H9S11893   3.078   4.546  10.024  1.5107 -3.8598  0.8084
  114OSM    H9T11894   3.221   4.556  10.114  0.2331  1.3778  0.6758
  114OSM   C10S11895   3.121   4.745  10.079  0.0971 -0.1282 -0.1999
  114OSM   H10S11896   3.166   4.809  10.157  0.2435 -0.7347  0.2228
  114OSM   H10T11897   3.026   4.790  10.042  0.3759 -1.3084 -2.5313
  114OSM   C11S11898   3.211   4.772   9.958  0.0228  0.3005 -0.8919
  114OSM   H11S11899   3.318   4.752   9.975 -0.6300 -1.7698  1.3510
  114OSM   H11T11900   3.201   4.879   9.930  0.3684  0.4622 -0.4075
  114OSM   C12S11901   3.163   4.698   9.830 -0.1449  0.0228  0.3823
  114OSM   H12S11902   3.054   4.718   9.820 -0.2114 -1.1569 -1.7494
  114OSM   H12T11903   3.171   4.589   9.851  2.0439 -0.1243 -0.9130
  114OSM   C13S11904   3.223   4.742   9.692 -0.9427 -0.4767 -0.3677
  114OSM   H13S11905   3.334   4.737   9.690 -0.8882 -0.9705  1.8601
  114OSM   H13T11906   3.200   4.851   9.688  1.1068  0.0394  0.3706
  114OSM   C14S11907   3.149   4.688   9.572 -0.1145 -0.2428  0.4999
  114OSM   H14S11908   3.044   4.725   9.573  0.4595  1.4727  0.6151
  114OSM   H14T11909   3.142   4.577   9.576 -2.1700 -0.1257  1.5490
  114OSM   C15S11910   3.196   4.727   9.429 -0.2288  0.5071 -0.2949
  114OSM   H15S11911   3.299   4.701   9.397  0.2720  2.7310 -0.6987
  114OSM   H15T11912   3.217   4.836   9.441 -0.4473  0.5384 -0.1995
  114OSM   C16S11913   3.094   4.687   9.319  0.0708 -0.6225 -0.0978
  114OSM   H16S11914   3.000   4.743   9.337 -0.2282 -1.1588  0.0316
  114OSM   H16T11915   3.069   4.580   9.336  0.0160 -0.7627 -1.0031
  114OSM   C17S11916   3.140   4.720   9.174  0.3320  0.6718 -0.5061
  114OSM   H17S11917   3.243   4.681   9.161  0.2454 -0.5202  1.7967
  114OSM   H17T11918   3.131   4.830   9.166 -0.5448  0.8448  1.9249
  114OSM   C18S11919   3.045   4.647   9.075  0.1165 -0.2614 -0.1460
  114OSM   H18S11920   3.079   4.664   8.971 -0.6725  0.8752 -0.2397
  114OSM   H18T11921   2.938   4.669   9.090 -0.3355 -2.4463  0.0916
  114OSM   H18U11922   3.061   4.540   9.097 -0.6331 -0.1910  0.8225
  114OSM    C1F11923   3.444   4.838  10.747  0.5168 -0.3308  0.1052
  114OSM     OF11924   3.503   4.767  10.822  0.4458  0.1619 -0.6078
  114OSM    C2F11925   3.500   4.942  10.654  0.0376 -0.3497  0.0155
  114OSM    H2F11926   3.551   5.014  10.722 -2.0584  0.5804  0.6981
  114OSM    H2G11927   3.412   4.982  10.598 -0.9848  2.2997  3.1460
  114OSM    C3F11928   3.606   4.891  10.557 -0.1457  0.0226 -0.5197
  114OSM    H3F11929   3.549   4.825  10.488 -2.1815 -1.2036  2.1309
  114OSM    H3G11930   3.681   4.825  10.606  0.2193  0.6881 -0.1573
  114OSM    C4F11931   3.667   5.011  10.478  0.0111 -0.0961 -0.4310
  114OSM    H4F11932   3.706   5.089  10.547  0.8721  0.9530 -2.0306
  114OSM    H4G11933   3.581   5.063  10.430  0.2894  0.5124 -0.2873
  114OSM    C5F11934   3.778   4.978  10.373  0.1741  0.7665  0.5067
  114OSM    H5F11935   3.847   4.905  10.419 -1.3877 -0.0614  1.6528
  114OSM    H5G11936   3.854   5.055  10.350  2.8075 -1.5596  0.9427
  114OSM    C6F11937   3.734   4.912  10.238 -0.2217 -0.0291 -0.1580
  114OSM    H6F11938   3.701   4.808  10.259  1.0760 -0.3026  0.6352
  114OSM    H6G11939   3.829   4.909  10.180  0.4678  1.1171  0.8607
  114OSM    C7F11940   3.636   4.985  10.145 -0.4157 -0.0309  0.1830
  114OSM    H7F11941   3.668   5.087  10.115  0.0610 -0.2904 -0.2004
  114OSM    H7G11942   3.549   5.010  10.210  0.5993  1.6625  0.9529
  114OSM    C8F11943   3.594   4.894  10.027  0.0602  0.2465 -0.4461
  114OSM    H8F11944   3.518   4.952   9.971 -0.7049  0.3288  0.6420
  114OSM    H8G11945   3.548   4.807  10.078 -2.7854  0.2628 -2.7455
  114OSM    C9F11946   3.711   4.843   9.947 -0.0511 -0.5238  0.6897
  114OSM    H9F11947   3.805   4.821  10.000 -0.3954  1.3568  2.1920
  114OSM   C10F11948   3.719   4.842   9.819 -0.4369 -0.3287  0.1421
  114OSM   H10F11949   3.810   4.804   9.771 -0.6908  0.0351 -0.6519
  114OSM   C11F11950   3.603   4.883   9.725  0.5749 -0.7617 -0.0736
  114OSM   H11F11951   3.616   4.992   9.707  2.1947 -0.9092  0.0519
  114OSM   H11G11952   3.508   4.869   9.781 -1.6418  0.2527 -3.3085
  114OSM   C12F11953   3.581   4.793   9.598  0.1810 -0.4628  0.4055
  114OSM   H12F11954   3.483   4.811   9.549 -0.2866 -3.3042  0.1104
  114OSM   H12G11955   3.564   4.688   9.632 -0.8813 -0.3362  0.3201
  114OSM   C13F11956   3.684   4.819   9.492  0.0943 -0.2087  0.5687
  114OSM   H13F11957   3.779   4.780   9.534 -0.0590  0.5944  1.7073
  114OSM   H13G11958   3.688   4.930   9.495  0.6111 -0.1161 -1.6829
  114OSM   C14F11959   3.660   4.750   9.360  0.1081 -0.1288  0.2791
  114OSM   H14F11960   3.558   4.776   9.325  0.8339  0.4079 -1.5468
  114OSM   H14G11961   3.647   4.641   9.381  0.5435 -0.3693 -0.6334
  114OSM   C15F11962   3.779   4.770   9.269 -0.1732  0.1253 -0.5070
  114OSM   H15F11963   3.865   4.720   9.320 -1.4487 -0.2151  1.3857
  114OSM   H15G11964   3.812   4.875   9.280 -0.0732 -0.0002  0.4951
  114OSM   C16F11965   3.767   4.711   9.127 -0.1015 -0.7426  0.5230
  114OSM   H16F11966   3.693   4.761   9.062 -1.1966 -2.3256  0.5128
  114OSM   H16G11967   3.724   4.610   9.140 -0.2440 -0.8099 -0.3785
  114OSM   C17F11968   3.899   4.712   9.056 -0.6153 -0.2410 -0.4518
  114OSM   H17F11969   3.961   4.641   9.115 -1.0174  0.0475  0.3250
  114OSM   H17G11970   3.949   4.811   9.066  0.3882 -0.8590  1.0530
  114OSM   C18F11971   3.907   4.669   8.916  0.1952 -0.1902  0.1737
  114OSM   H18F11972   3.858   4.570   8.902 -1.1490  0.3311  1.0377
  114OSM   H18G11973   4.015   4.650   8.897 -0.6442 -3.0133 -2.6125
  114OSM   H18H11974   3.874   4.739   8.837  0.0616  1.2426  1.4631
  115OSM      N11975   2.802   4.696  11.365 -0.5444  0.2339  0.1409
  115OSM    C1511976   2.902   4.587  11.376  0.0333  0.0132 -0.7957
  115OSM   H15A11977   2.891   4.544  11.475  0.4108  2.0240  0.1799
  115OSM   H15B11978   3.004   4.618  11.362 -0.1770  2.1101  1.4662
  115OSM   H15C11979   2.873   4.502  11.317  0.0178 -0.8426  0.4067
  115OSM    C1411980   2.823   4.806  11.459  0.1185 -0.5596  0.3553
  115OSM   H14A11981   2.756   4.885  11.428  0.4035 -1.4640 -2.8658
  115OSM   H14B11982   2.924   4.841  11.470 -1.0704  3.6413 -0.0757
  115OSM   H14C11983   2.793   4.784  11.560  0.2834  1.4890  0.9048
  115OSM    C1311984   2.800   4.756  11.229 -0.6354  0.8707 -0.2338
  115OSM   H13A11985   2.886   4.818  11.208 -0.2982  0.4448 -0.1163
  115OSM   H13B11986   2.719   4.827  11.231 -0.9602  0.4931  0.2501
  115OSM   H13C11987   2.793   4.684  11.149  0.9006 -0.7377  1.0081
  115OSM    C1211988   2.670   4.621  11.398  0.1466 -0.5560 -0.3979
  115OSM   H12A11989   2.676   4.579  11.498 -1.2691  1.4408  0.5761
  115OSM   H12B11990   2.655   4.543  11.325 -0.8568 -2.0801  1.3335
  115OSM    C1111991   2.535   4.703  11.393 -0.8750 -0.4776  0.0447
  115OSM   H11A11992   2.543   4.781  11.472 -1.2792  0.2107 -0.5784
  115OSM   H11B11993   2.444   4.644  11.418  0.7006 -2.5294  1.1988
  115OSM      P11994   2.428   4.897  11.250 -0.5311  0.5135  0.3433
  115OSM    O1311995   2.362   4.927  11.376  0.1742 -0.0100 -0.3461
  115OSM    O1411996   2.521   5.003  11.200 -0.0869 -0.1986  0.2677
  115OSM    O1111997   2.332   4.840  11.140  0.2652 -0.1120  0.2218
  115OSM    O1211998   2.518   4.765  11.268 -0.4702 -0.2651  0.0012
  115OSM    C1S11999   2.364   4.802  11.005 -0.3689 -0.2331  0.5820
  115OSM    H1S12000   2.399   4.696  11.007  2.1423  0.4931 -1.0601
  115OSM    H1T12001   2.445   4.869  10.971  0.9027 -1.4233  1.1650
  115OSM     NF12002   2.298   4.774  10.770  0.7074  0.1130  0.0510
  115OSM    HNF12003   2.329   4.846  10.709  1.8168 -0.9560 -0.7092
  115OSM    C2S12004   2.247   4.809  10.902  0.1552  0.3927  0.2658
  115OSM    H2S12005   2.159   4.748  10.929 -0.2750 -0.6583 -3.0987
  115OSM    C3S12006   2.191   4.959  10.905 -0.1195 -0.2800 -0.2102
  115OSM    H3S12007   2.268   5.028  10.865 -0.5237  0.0944 -0.3560
  115OSM     O312008   2.163   5.010  11.039 -0.2228 -0.5044 -0.1938
  115OSM    HO312009   2.215   4.958  11.101 -0.4428 -1.0222 -0.4378
  115OSM    C4S12010   2.064   4.963  10.826 -0.4095  0.6255 -0.2984
  115OSM    H4S12011   1.980   4.901  10.860 -0.0138  0.6302  0.7377
  115OSM    C5S12012   2.030   5.048  10.723 -0.4887  0.2921 -0.2192
  115OSM    H5S12013   2.097   5.128  10.688  0.3421  0.3169  1.3312
  115OSM    C6S12014   1.894   5.040  10.653  0.6017  0.0102 -1.1476
  115OSM    H6S12015   1.865   5.143  10.625  0.6908  0.3154 -0.1425
  115OSM    H6T12016   1.813   5.002  10.719  0.2153  2.4112 -0.1683
  115OSM    C7S12017   1.899   4.951  10.523 -0.1298  0.3086 -0.2625
  115OSM    H7S12018   1.911   4.843  10.548 -0.7150  0.3845  0.3665
  115OSM    H7T12019   1.984   4.992  10.464  0.4661 -0.3911  0.0976
  115OSM    C8S12020   1.767   4.974  10.437  0.3234 -0.1788 -0.5410
  115OSM    H8S12021   1.752   5.084  10.448 -1.7023 -0.3982 -0.6389
  115OSM    H8T12022   1.675   4.928  10.480  1.1688  0.2975  1.9328
  115OSM    C9S12023   1.792   4.935  10.296  0.0054  0.2431  0.5306
  115OSM    H9S12024   1.823   4.832  10.269 -0.0730  0.7760 -1.7644
  115OSM    H9T12025   1.878   4.994  10.257  0.0441  0.1235  0.4361
  115OSM   C10S12026   1.674   4.962  10.203 -0.8861 -0.0254 -0.2247
  115OSM   H10S12027   1.637   5.063  10.229  0.1832  0.1298  0.7940
  115OSM   H10T12028   1.591   4.894  10.230 -0.6036  0.4242  1.9589
  115OSM   C11S12029   1.714   4.931  10.057 -0.1169  0.3815  0.5131
  115OSM   H11S12030   1.763   4.832  10.053 -0.6726  0.0211  1.9027
  115OSM   H11T12031   1.784   5.007  10.016  0.3756 -0.4255 -0.1677
  115OSM   C12S12032   1.606   4.952   9.945 -0.4251 -0.7445  0.0375
  115OSM   H12S12033   1.570   5.057   9.948  1.7294  0.0346  1.3478
  115OSM   H12T12034   1.521   4.884   9.964 -1.5899  1.0370  1.5806
  115OSM   C13S12035   1.662   4.927   9.806 -0.1231  0.0332 -0.9172
  115OSM   H13S12036   1.706   4.825   9.809 -0.2655 -0.0034  0.1822
  115OSM   H13T12037   1.750   4.991   9.787  1.1956 -1.0230  1.2358
  115OSM   C14S12038   1.570   4.940   9.686 -0.1438 -0.0372 -1.1375
  115OSM   H14S12039   1.538   5.046   9.696 -2.7452 -0.7849 -0.6758
  115OSM   H14T12040   1.477   4.883   9.709  0.5969 -0.2600  1.6528
  115OSM   C15S12041   1.630   4.897   9.554 -0.0201  0.3097  0.1387
  115OSM   H15S12042   1.705   4.815   9.559 -0.0727  0.2193 -0.4860
  115OSM   H15T12043   1.698   4.983   9.538 -1.8960  1.7013 -0.8594
  115OSM   C16S12044   1.533   4.878   9.434 -0.0972  0.1863 -0.1219
  115OSM   H16S12045   1.592   4.840   9.348  0.5084  2.5215 -0.8092
  115OSM   H16T12046   1.494   4.975   9.396 -2.2134 -0.0317  1.3116
  115OSM   C17S12047   1.410   4.792   9.465 -0.3200 -0.5755 -0.3519
  115OSM   H17S12048   1.330   4.859   9.504  0.0986  0.4916 -1.2582
  115OSM   H17T12049   1.441   4.722   9.545 -1.4179  0.6838  1.2408
  115OSM   C18S12050   1.349   4.714   9.352 -0.1822  0.0701 -0.5494
  115OSM   H18S12051   1.429   4.669   9.289 -0.1057 -0.2862 -0.1985
  115OSM   H18T12052   1.295   4.785   9.285  0.3748  0.9046 -0.1382
  115OSM   H18U12053   1.276   4.635   9.381  1.1953 -0.2924  2.2739
  115OSM    C1F12054   2.334   4.650  10.742  0.0117 -0.5826  0.0714
  115OSM     OF12055   2.302   4.561  10.823  0.6699  0.2918 -0.1316
  115OSM    C2F12056   2.440   4.621  10.645  0.0182 -0.3892  0.0044
  115OSM    H2F12057   2.532   4.661  10.693 -0.4865 -0.3028  0.9160
  115OSM    H2G12058   2.419   4.689  10.560 -0.9640  0.5162  0.9382
  115OSM    C3F12059   2.462   4.482  10.588 -0.3058 -0.1305 -0.1763
  115OSM    H3F12060   2.362   4.443  10.558  0.0152 -0.0521 -1.4184
  115OSM    H3G12061   2.484   4.405  10.664 -3.6531 -0.4561  0.6376
  115OSM    C4F12062   2.554   4.492  10.476  0.0346 -0.0167 -0.8741
  115OSM    H4F12063   2.576   4.390  10.437  0.0781 -0.0789 -0.6874
  115OSM    H4G12064   2.654   4.515  10.519 -1.0230  0.5163  1.4317
  115OSM    C5F12065   2.526   4.586  10.356 -0.3604 -0.2558  0.2421
  115OSM    H5F12066   2.546   4.691  10.386  0.6040 -1.3583  4.1826
  115OSM    H5G12067   2.418   4.582  10.333 -0.6907 -1.0732  1.7885
  115OSM    C6F12068   2.623   4.550  10.238  0.2667 -0.5764 -0.8658
  115OSM    H6F12069   2.602   4.453  10.188  0.8278 -0.7707 -0.7252
  115OSM    H6G12070   2.727   4.541  10.276  0.3287 -0.6014 -1.0419
  115OSM    C7F12071   2.622   4.652  10.118 -0.1017  0.1470 -0.2161
  115OSM    H7F12072   2.659   4.752  10.149  1.2997 -0.7946  1.3299
  115OSM    H7G12073   2.514   4.668  10.098 -0.5336  2.2404  3.0366
  115OSM    C8F12074   2.709   4.609   9.997  0.0821 -0.1155 -0.1823
  115OSM    H8F12075   2.800   4.563  10.040  0.1394  0.7173  0.6308
  115OSM    H8G12076   2.728   4.700   9.937  0.7942 -0.9972 -1.3328
  115OSM    C9F12077   2.636   4.512   9.905  0.0044 -0.6371  0.9081
  115OSM    H9F12078   2.581   4.437   9.964 -1.1069  0.1545  0.9067
  115OSM   C10F12079   2.636   4.508   9.773 -0.4545  0.6339 -0.1236
  115OSM   H10F12080   2.597   4.421   9.719  0.4879 -0.4389  0.8714
  115OSM   C11F12081   2.711   4.596   9.680  0.2139  0.5170  0.5902
  115OSM   H11F12082   2.813   4.559   9.654 -0.5567 -1.4256  0.1382
  115OSM   H11G12083   2.724   4.696   9.728  0.1605 -0.1756  2.1069
  115OSM   C12F12084   2.639   4.623   9.541 -0.4985 -0.4065  0.3703
  115OSM   H12F12085   2.557   4.698   9.554  0.6601  1.0163 -0.1931
  115OSM   H12G12086   2.608   4.525   9.501  1.0119 -0.7926  0.0721
  115OSM   C13F12087   2.740   4.689   9.441  0.1233  0.0298 -0.7062
  115OSM   H13F12088   2.825   4.619   9.426 -0.2831 -0.9454  1.1911
  115OSM   H13G12089   2.773   4.784   9.487 -0.7724  0.7342 -1.4800
  115OSM   C14F12090   2.675   4.730   9.307 -0.4872 -0.2974 -0.8808
  115OSM   H14F12091   2.762   4.778   9.256  0.0231  0.5900  0.7542
  115OSM   H14G12092   2.584   4.794   9.300 -1.6602 -2.0822 -3.0083
  115OSM   C15F12093   2.627   4.612   9.221 -0.2181  0.0370 -0.2668
  115OSM   H15F12094   2.528   4.575   9.254 -0.8525  2.1822  0.4288
  115OSM   H15G12095   2.701   4.532   9.242  2.2015  2.7444  2.5374
  115OSM   C16F12096   2.623   4.652   9.071  0.1770 -0.2470 -0.0641
  115OSM   H16F12097   2.727   4.655   9.032  0.1611  0.9311 -0.0517
  115OSM   H16G12098   2.595   4.759   9.068 -1.2325 -0.6151 -1.9781
  115OSM   C17F12099   2.525   4.557   9.003 -0.2033 -0.6220  0.2017
  115OSM   H17F12100   2.482   4.596   8.908 -1.8734 -1.5170  0.5436
  115OSM   H17G12101   2.441   4.537   9.074 -0.4986 -0.5790 -0.1326
  115OSM   C18F12102   2.597   4.430   8.970  0.2115 -0.2687  0.3066
  115OSM   H18F12103   2.674   4.449   8.892 -1.2180  2.2187 -0.5963
  115OSM   H18G12104   2.524   4.371   8.911  1.8596 -1.4612 -0.6436
  115OSM   H18H12105   2.625   4.377   9.064 -1.9842  1.1230  1.8050
  116OSM      N12106   4.486   6.602  11.057  0.3759 -0.2789  0.1984
  116OSM    C1512107   4.487   6.745  11.022 -0.5222  0.4998  0.0366
  116OSM   H15A12108   4.587   6.783  11.038 -0.5909  1.0738 -0.8495
  116OSM   H15B12109   4.420   6.804  11.082  0.2951  0.1262  1.3639
  116OSM   H15C12110   4.453   6.757  10.920  0.7659 -0.8154 -0.6035
  116OSM    C1412111   4.490   6.596  11.205 -0.2814 -0.0002  0.1801
  116OSM   H14A12112   4.510   6.495  11.238 -1.7685  0.0560  1.3801
  116OSM   H14B12113   4.391   6.618  11.243  0.1873 -0.3962  1.6856
  116OSM   H14C12114   4.571   6.657  11.241 -1.0932  1.1187  0.1736
  116OSM    C1312115   4.353   6.553  11.012  1.0090  1.1284 -0.1027
  116OSM   H13A12116   4.275   6.625  11.032 -0.9593 -1.0018  0.3550
  116OSM   H13B12117   4.322   6.457  11.052 -0.0920  1.3158 -0.4712
  116OSM   H13C12118   4.346   6.525  10.908  1.0449  1.8840 -0.3110
  116OSM    C1212119   4.603   6.534  10.985 -0.5308 -0.5472 -0.3462
  116OSM   H12A12120   4.690   6.567  11.040 -0.5470  1.6013 -1.4763
  116OSM   H12B12121   4.597   6.580  10.887 -1.2505  1.5026  0.6054
  116OSM    C1112122   4.596   6.377  10.977  0.0694 -0.1853 -0.2820
  116OSM   H11A12123   4.677   6.333  10.914  1.0711 -1.3287  1.7157
  116OSM   H11B12124   4.507   6.361  10.912  2.4515  1.3049 -4.2374
  116OSM      P12125   4.721   6.278  11.179 -0.3095  0.1991 -0.2147
  116OSM    O1312126   4.833   6.369  11.172  0.1136 -0.1966  0.0181
  116OSM    O1412127   4.694   6.222  11.308  0.9401 -0.2831 -0.6112
  116OSM    O1112128   4.744   6.160  11.081 -0.0307  0.3493 -0.2175
  116OSM    O1212129   4.586   6.331  11.111 -0.0290 -0.1728 -0.2780
  116OSM    C1S12130   4.650   6.054  11.040 -0.3208 -0.8389  0.6060
  116OSM    H1S12131   4.548   6.082  11.071  0.8490  2.7672  1.6601
  116OSM    H1T12132   4.674   5.957  11.089 -0.4368 -2.2338 -1.9343
  116OSM     NF12133   4.539   5.921  10.852 -0.5976  0.7363 -0.1150
  116OSM    HNF12134   4.560   5.827  10.825 -0.7988  1.1835 -1.9085
  116OSM    C2S12135   4.636   6.027  10.886  0.1253  0.5779 -0.0637
  116OSM    H2S12136   4.594   6.116  10.835  1.8416  1.8573  0.6721
  116OSM    C3S12137   4.779   6.008  10.836 -0.4415 -0.6098 -0.3894
  116OSM    H3S12138   4.826   5.940  10.910 -0.8947 -2.2561 -1.5504
  116OSM     O312139   4.861   6.124  10.849 -0.2403  0.0471 -0.3926
  116OSM    HO312140   4.813   6.181  10.909 -0.4665 -2.2084  1.6934
  116OSM    C4S12141   4.781   5.950  10.699  0.4039 -0.0653  0.5602
  116OSM    H4S12142   4.781   5.841  10.709 -1.8877  0.0042  2.1120
  116OSM    C5S12143   4.796   6.000  10.574  0.3233 -0.0540  0.4423
  116OSM    H5S12144   4.817   6.108  10.575 -0.8081  0.2041  2.4210
  116OSM    C6S12145   4.793   5.926  10.450  0.5475 -0.4730  0.2944
  116OSM    H6S12146   4.694   5.928  10.399  1.0265  2.5457 -0.7134
  116OSM    H6T12147   4.807   5.817  10.469 -1.0015 -0.5902  0.9104
  116OSM    C7S12148   4.891   5.960  10.331 -0.3011 -0.1035 -0.0169
  116OSM    H7S12149   4.995   5.977  10.367 -0.1965  0.2125 -0.4553
  116OSM    H7T12150   4.864   6.058  10.287 -2.4185 -0.3832  0.5279
  116OSM    C8S12151   4.888   5.864  10.204  0.4449  0.3003  0.0247
  116OSM    H8S12152   4.795   5.875  10.145  0.3788 -1.5696 -0.2777
  116OSM    H8T12153   4.886   5.757  10.233 -0.1669  0.1176 -0.6690
  116OSM    C9S12154   5.003   5.888  10.111  0.1179 -0.5599 -0.2576
  116OSM    H9S12155   5.093   5.831  10.143  0.6650  0.5708  0.2551
  116OSM    H9T12156   5.033   5.995  10.107  0.6721 -0.5732  2.1390
  116OSM   C10S12157   4.977   5.842   9.970 -0.3730 -0.4907 -0.2529
  116OSM   H10S12158   4.883   5.893   9.940 -0.2077 -0.6588 -1.0698
  116OSM   H10T12159   4.966   5.732   9.969 -1.4264 -0.4114  0.6785
  116OSM   C11S12160   5.084   5.903   9.876  0.1234  1.1048 -0.1271
  116OSM   H11S12161   5.188   5.906   9.914  0.6884 -0.1963 -1.5274
  116OSM   H11T12162   5.045   6.004   9.851 -0.6507  0.8225 -0.0889
  116OSM   C12S12163   5.085   5.821   9.740  0.4456  0.2012  0.3776
  116OSM   H12S12164   4.981   5.792   9.714 -0.2032  1.6636  1.2099
  116OSM   H12T12165   5.145   5.732   9.768  0.7218 -0.0907 -1.0352
  116OSM   C13S12166   5.138   5.902   9.625 -0.3745  0.5441  0.1327
  116OSM   H13S12167   5.212   5.972   9.671 -1.0525  2.0132 -0.9238
  116OSM   H13T12168   5.051   5.962   9.589  0.4985  1.5765 -0.3291
  116OSM   C14S12169   5.199   5.819   9.509 -0.2318 -0.3429 -0.1146
  116OSM   H14S12170   5.117   5.752   9.475 -0.7785  1.1706 -1.9633
  116OSM   H14T12171   5.277   5.751   9.549 -1.2374 -1.2120  0.4077
  116OSM   C15S12172   5.266   5.912   9.404  0.0168  0.3712  0.3923
  116OSM   H15S12173   5.340   5.982   9.447  1.2479 -0.5561 -0.1765
  116OSM   H15T12174   5.191   5.977   9.356 -0.1748 -0.1583 -0.0387
  116OSM   C16S12175   5.338   5.835   9.293 -0.4780  0.4013 -0.0677
  116OSM   H16S12176   5.284   5.746   9.254  1.8379 -2.4142  2.7046
  116OSM   H16T12177   5.429   5.795   9.342 -0.5641  1.3558  0.9154
  116OSM   C17S12178   5.392   5.931   9.185  0.3253  0.3324  0.3629
  116OSM   H17S12179   5.442   6.006   9.250  0.8491  0.5595 -0.2964
  116OSM   H17T12180   5.304   5.980   9.139  0.4879 -0.3546 -0.7028
  116OSM   C18S12181   5.493   5.879   9.085  0.2919 -0.4164  0.2034
  116OSM   H18S12182   5.538   5.959   9.023 -2.3279  1.1648  0.2234
  116OSM   H18T12183   5.443   5.804   9.021 -0.9970  0.1721  0.4933
  116OSM   H18U12184   5.570   5.825   9.144 -0.9886 -1.3333  1.0938
  116OSM    C1F12185   4.410   5.925  10.877  0.0805 -0.3336 -0.4807
  116OSM     OF12186   4.370   6.027  10.932  0.3093 -0.3379  0.9542
  116OSM    C2F12187   4.319   5.812  10.849  0.3610  0.8138 -0.1186
  116OSM    H2F12188   4.215   5.844  10.872 -0.5609 -0.2977 -2.3789
  116OSM    H2G12189   4.336   5.723  10.913 -1.7375  0.8652  0.5874
  116OSM    C3F12190   4.324   5.765  10.703  0.1206 -0.1533 -0.6480
  116OSM    H3F12191   4.269   5.669  10.717 -0.1757 -0.0476 -1.0789
  116OSM    H3G12192   4.427   5.756  10.663  0.9470  2.7879  0.5526
  116OSM    C4F12193   4.236   5.859  10.615 -0.2700 -0.4316 -0.0687
  116OSM    H4F12194   4.269   5.965  10.625 -3.6199  0.9385 -1.8289
  116OSM    H4G12195   4.128   5.877  10.636 -0.1947  2.6263 -1.7643
  116OSM    C5F12196   4.235   5.819  10.463  0.1989 -0.2828  0.7081
  116OSM    H5F12197   4.177   5.726  10.444 -2.6079  1.6326 -0.8323
  116OSM    H5G12198   4.343   5.808  10.441  0.1431 -1.0750  0.7800
  116OSM    C6F12199   4.170   5.938  10.386  0.2088 -0.1909  0.2321
  116OSM    H6F12200   4.087   5.981  10.445 -1.4774 -2.0151 -0.6919
  116OSM    H6G12201   4.132   5.904  10.287  1.1591  0.3604 -0.3348
  116OSM    C7F12202   4.281   6.034  10.349  0.1507  0.4798  0.0809
  116OSM    H7F12203   4.334   6.068  10.440  0.2281 -0.1299  0.2630
  116OSM    H7G12204   4.237   6.126  10.304 -1.8182 -1.0222 -1.2732
  116OSM    C8F12205   4.384   5.983  10.253 -0.2442 -0.6364  0.1819
  116OSM    H8F12206   4.440   5.893  10.288  2.3866  0.4078 -1.0433
  116OSM    H8G12207   4.470   6.054  10.248  0.0984 -1.1124 -0.9072
  116OSM    C9F12208   4.338   5.965  10.106 -0.0493  0.5704  0.0564
  116OSM    H9F12209   4.245   5.907  10.098 -0.8459  1.8490 -0.1615
  116OSM   C10F12210   4.385   6.022   9.986 -0.3654  0.7034  0.3804
  116OSM   H10F12211   4.328   5.988   9.899 -3.5258  0.8121  2.2640
  116OSM   C11F12212   4.505   6.108   9.974  0.5945  0.7439  0.0463
  116OSM   H11F12213   4.589   6.079  10.039  0.3476 -0.4072 -0.1299
  116OSM   H11G12214   4.478   6.212  10.005 -0.6719  0.7651 -0.9965
  116OSM   C12F12215   4.558   6.129   9.833 -0.2132  0.2078  0.3793
  116OSM   H12F12216   4.637   6.206   9.846 -0.1165 -0.0999  1.6947
  116OSM   H12G12217   4.479   6.166   9.763 -0.5414 -2.0503 -0.5234
  116OSM   C13F12218   4.623   5.996   9.781  0.1013  0.6192  0.5815
  116OSM   H13F12219   4.538   5.929   9.755  1.8376 -0.5337 -2.6140
  116OSM   H13G12220   4.689   5.960   9.864 -0.8151 -1.9576  0.3029
  116OSM   C14F12221   4.719   6.025   9.662 -0.2378 -0.1986 -0.1676
  116OSM   H14F12222   4.775   5.932   9.638  2.3455  1.4089 -0.8439
  116OSM   H14G12223   4.799   6.099   9.687 -0.2157 -0.3737  0.2902
  116OSM   C15F12224   4.658   6.079   9.531  0.5537 -0.3243 -0.1438
  116OSM   H15F12225   4.746   6.076   9.462  0.4914 -5.1902 -0.4139
  116OSM   H15G12226   4.629   6.185   9.542  2.2347  0.3584 -1.7114
  116OSM   C16F12227   4.542   5.993   9.477  0.5363  0.2443 -0.4633
  116OSM   H16F12228   4.471   5.947   9.549  0.2139  0.6909 -0.4861
  116OSM   H16G12229   4.585   5.907   9.422  0.0151 -0.1514 -0.2551
  116OSM   C17F12230   4.458   6.069   9.379 -0.1398  0.3749  0.0254
  116OSM   H17F12231   4.389   6.144   9.424 -0.6638  0.1857 -0.4663
  116OSM   H17G12232   4.395   5.996   9.325  0.7548 -0.8659  0.5853
  116OSM   C18F12233   4.543   6.133   9.269  0.6546 -0.6817 -0.2647
  116OSM   H18F12234   4.476   6.166   9.187  1.8286  0.5414 -0.7754
  116OSM   H18G12235   4.617   6.057   9.233  2.7223  1.9443 -1.9631
  116OSM   H18H12236   4.599   6.221   9.307 -1.7329  1.4937 -1.4656
  117OSM      N12237   0.469   2.821  11.320 -0.4239 -0.0734 -0.4649
  117OSM    C1512238   0.330   2.776  11.287  0.6061  0.1429 -0.2870
  117OSM   H15A12239   0.279   2.747  11.377  0.8553 -0.0043 -0.1930
  117OSM   H15B12240   0.336   2.693  11.218  2.2005 -0.7379  0.8447
  117OSM   H15C12241   0.274   2.856  11.240  0.8324  0.4296 -0.0724
  117OSM    C1412242   0.459   2.910  11.439 -0.3628 -0.0066  0.3464
  117OSM   H14A12243   0.556   2.924  11.485 -0.4091 -0.8649  0.7263
  117OSM   H14B12244   0.399   2.875  11.522 -0.1510  0.1237  0.5556
  117OSM   H14C12245   0.413   3.002  11.406 -0.4051 -0.0319  0.3348
  117OSM    C1312246   0.554   2.704  11.356  0.1280  0.5671 -0.1389
  117OSM   H13A12247   0.570   2.648  11.264  0.9493 -0.8575  0.8284
  117OSM   H13B12248   0.511   2.644  11.435  2.4529  0.7085  1.3323
  117OSM   H13C12249   0.648   2.737  11.398  1.4803 -1.2571 -1.5632
  117OSM    C1212250   0.532   2.875  11.199  0.4591 -0.1551  0.0529
  117OSM   H12A12251   0.552   2.802  11.122  1.0023  0.8306 -0.7651
  117OSM   H12B12252   0.624   2.922  11.233  0.4662  0.1789 -0.4217
  117OSM    C1112253   0.463   2.995  11.122 -0.2324  0.0990 -0.6475
  117OSM   H11A12254   0.386   2.951  11.056 -1.9669  2.0525 -0.0429
  117OSM   H11B12255   0.538   3.042  11.055  0.2223  1.0676  0.4929
  117OSM      P12256   0.272   3.160  11.190  0.1945 -0.0321  0.8635
  117OSM    O1312257   0.178   3.044  11.186 -0.3075 -0.1073 -0.6187
  117OSM    O1412258   0.254   3.253  11.304 -0.2725  0.7443 -0.1703
  117OSM    O1112259   0.270   3.230  11.048  0.3613 -0.0779  0.4751
  117OSM    O1212260   0.412   3.095  11.208  0.6617  0.6665 -0.3423
  117OSM    C1S12261   0.308   3.370  11.044  0.1528  0.2204  0.2876
  117OSM    H1S12262   0.385   3.391  11.121  1.5696  0.2290 -1.0753
  117OSM    H1T12263   0.229   3.448  11.052 -0.1532 -0.0588 -0.0150
  117OSM     NF12264   0.413   3.535  10.890 -0.2235 -0.7002 -0.0236
  117OSM    HNF12265   0.361   3.610  10.850 -0.0080  0.4597  1.7613
  117OSM    C2S12266   0.365   3.398  10.896  0.3304  0.1165  0.2479
  117OSM    H2S12267   0.447   3.326  10.878 -1.4374 -1.9589  0.1069
  117OSM    C3S12268   0.253   3.372  10.792  0.1275  0.6782  0.4610
  117OSM    H3S12269   0.179   3.454  10.810 -2.6614 -1.4246 -0.6218
  117OSM     O312270   0.179   3.250  10.803 -0.2959  0.4121 -0.2750
  117OSM    HO312271   0.209   3.216  10.887  0.1694 -0.4156 -0.7573
  117OSM    C4S12272   0.315   3.383  10.647  0.4580 -0.6478 -0.4339
  117OSM    H4S12273   0.340   3.487  10.624  0.8866 -0.7522 -0.4484
  117OSM    C5S12274   0.354   3.285  10.568 -0.4701  0.3824 -0.1984
  117OSM    H5S12275   0.349   3.179  10.597  1.5297  0.2980  0.0123
  117OSM    C6S12276   0.407   3.314  10.427  0.0653 -0.3636  0.7724
  117OSM    H6S12277   0.511   3.276  10.417 -0.2195 -0.8145 -0.8966
  117OSM    H6T12278   0.418   3.424  10.421  2.0731 -0.6018 -2.4250
  117OSM    C7S12279   0.328   3.257  10.307 -0.1023  0.5146 -0.1607
  117OSM    H7S12280   0.226   3.300  10.308 -0.6631 -0.6678 -1.6479
  117OSM    H7T12281   0.333   3.146  10.305  2.1357  0.5300 -2.7010
  117OSM    C8S12282   0.382   3.297  10.171 -0.0661 -0.5505  0.0114
  117OSM    H8S12283   0.493   3.288  10.172 -0.1082 -1.6796 -1.7924
  117OSM    H8T12284   0.361   3.406  10.160  3.4299  0.3218  0.7261
  117OSM    C9S12285   0.314   3.214  10.055 -0.1433 -0.2459  0.8736
  117OSM    H9S12286   0.204   3.222  10.041 -0.0434 -0.4216 -0.0692
  117OSM    H9T12287   0.341   3.106  10.067  1.3448  0.0894  0.7489
  117OSM   C10S12288   0.369   3.260   9.919  0.0310 -0.3593  0.2444
  117OSM   H10S12289   0.476   3.230   9.931  0.2088  0.7512  1.7368
  117OSM   H10T12290   0.358   3.370   9.918  0.7868 -0.2716 -1.1363
  117OSM   C11S12291   0.304   3.201   9.788 -0.0483 -0.5711 -0.2431
  117OSM   H11S12292   0.197   3.224   9.807  0.7016  2.0218  1.3124
  117OSM   H11T12293   0.312   3.090   9.795  1.1181 -0.4727  0.0344
  117OSM   C12S12294   0.361   3.258   9.657  0.7788 -0.7807 -0.1769
  117OSM   H12S12295   0.471   3.244   9.653  0.8972 -0.4503  1.1599
  117OSM   H12T12296   0.351   3.368   9.649  0.4290 -0.8690 -1.0697
  117OSM   C13S12297   0.293   3.199   9.532 -0.5919 -0.0247 -0.0967
  117OSM   H13S12298   0.183   3.218   9.535 -0.9318 -1.7916  0.0833
  117OSM   H13T12299   0.306   3.089   9.541  0.0540  0.1372  1.1830
  117OSM   C14S12300   0.346   3.267   9.408  0.3862  1.2126  0.4500
  117OSM   H14S12301   0.456   3.281   9.415  0.3152  2.0839 -0.0821
  117OSM   H14T12302   0.304   3.368   9.393 -0.5975  0.6665 -0.7025
  117OSM   C15S12303   0.322   3.180   9.285 -0.1058  0.0906  0.4267
  117OSM   H15S12304   0.214   3.187   9.259  0.5367  0.2880 -2.6530
  117OSM   H15T12305   0.340   3.075   9.316  0.5256  0.2962  0.7582
  117OSM   C16S12306   0.396   3.216   9.157 -0.1940 -0.1859 -0.3344
  117OSM   H16S12307   0.487   3.271   9.188 -0.2968  0.2395 -0.7816
  117OSM   H16T12308   0.333   3.273   9.086  0.7313  1.8309  0.3961
  117OSM   C17S12309   0.441   3.095   9.080  0.5969  0.1632  0.6350
  117OSM   H17S12310   0.348   3.038   9.062  0.8125  0.1593 -0.5376
  117OSM   H17T12311   0.509   3.028   9.137  0.5512  0.9694  1.6807
  117OSM   C18S12312   0.506   3.123   8.936  0.0115  0.7526 -1.0304
  117OSM   H18S12313   0.523   3.029   8.879  0.8575 -0.3228  0.9175
  117OSM   H18T12314   0.606   3.170   8.944 -0.8188  2.3298  0.5725
  117OSM   H18U12315   0.437   3.178   8.867 -0.1897  0.8819 -0.7270
  117OSM    C1F12316   0.536   3.564  10.937  0.4281  0.2538 -0.6854
  117OSM     OF12317   0.610   3.474  10.994 -0.4938 -0.3783  0.6141
  117OSM    C2F12318   0.586   3.704  10.921 -0.5757 -0.0222  0.3621
  117OSM    H2F12319   0.674   3.715  10.986 -0.5769  1.4981  0.1452
  117OSM    H2G12320   0.512   3.780  10.956 -1.7033 -0.7110 -0.4566
  117OSM    C3F12321   0.611   3.731  10.774  0.7088 -0.5346  0.8798
  117OSM    H3F12322   0.666   3.827  10.763  0.0658 -0.2847 -0.2898
  117OSM    H3G12323   0.518   3.735  10.714  1.6672 -0.4502 -0.6597
  117OSM    C4F12324   0.688   3.615  10.707  0.5310 -0.2040 -0.3473
  117OSM    H4F12325   0.622   3.526  10.703  0.5239 -0.2905  1.2645
  117OSM    H4G12326   0.783   3.593  10.759  0.8327  1.1843 -0.2676
  117OSM    C5F12327   0.711   3.646  10.555 -0.6406  0.1689  1.1294
  117OSM    H5F12328   0.777   3.736  10.547 -0.9839  0.4847  1.7815
  117OSM    H5G12329   0.610   3.671  10.516  0.0004  2.2115  0.6476
  117OSM    C6F12330   0.762   3.538  10.463  0.4964  0.8456 -0.2493
  117OSM    H6F12331   0.709   3.446  10.495  0.7711  1.0672  0.8919
  117OSM    H6G12332   0.871   3.520  10.474  0.3414 -3.0392 -3.0878
  117OSM    C7F12333   0.742   3.554  10.314 -0.0579  0.3531  0.3374
  117OSM    H7F12334   0.779   3.654  10.284  2.0902 -0.9799 -1.8684
  117OSM    H7G12335   0.635   3.546  10.287 -0.5782 -1.5858  2.6494
  117OSM    C8F12336   0.818   3.451  10.225  0.2708 -0.0007  0.1970
  117OSM    H8F12337   0.798   3.344  10.246 -2.2976  0.4863  0.5133
  117OSM    H8G12338   0.926   3.449  10.250  0.8704  0.3336 -2.2005
  117OSM    C9F12339   0.822   3.499  10.083 -0.0916 -0.5908  0.0878
  117OSM    H9F12340   0.830   3.608  10.079 -1.6260 -0.1165  4.3431
  117OSM   C10F12341   0.830   3.425   9.967  0.3057 -0.4552 -0.1471
  117OSM   H10F12342   0.839   3.480   9.872  3.1274  2.3755  1.5381
  117OSM   C11F12343   0.808   3.280   9.952 -0.9092  0.0679  0.0289
  117OSM   H11F12344   0.709   3.255   9.907 -1.2484 -0.0865  0.8550
  117OSM   H11G12345   0.805   3.241  10.055  1.0651  2.0763  0.9471
  117OSM   C12F12346   0.915   3.202   9.870 -0.5046 -0.0157 -0.1428
  117OSM   H12F12347   0.904   3.095   9.898  1.2169 -0.6994 -1.8118
  117OSM   H12G12348   1.015   3.230   9.909 -1.7360  1.3318  2.2594
  117OSM   C13F12349   0.913   3.206   9.713  0.3363  0.0849 -0.8660
  117OSM   H13F12350   1.012   3.168   9.680  0.4372 -1.1128  0.7129
  117OSM   H13G12351   0.912   3.314   9.686 -3.6630  0.0260 -1.4715
  117OSM   C14F12352   0.785   3.141   9.654  0.1441 -0.1265 -0.7033
  117OSM   H14F12353   0.697   3.177   9.712 -0.4306 -1.4796 -0.6933
  117OSM   H14G12354   0.785   3.030   9.666 -2.5415 -0.4434 -2.6645
  117OSM   C15F12355   0.760   3.186   9.508  0.2349 -0.0476 -0.3903
  117OSM   H15F12356   0.730   3.292   9.501  0.1101 -0.0700 -0.2212
  117OSM   H15G12357   0.666   3.134   9.483  0.5776 -1.1428  0.4938
  117OSM   C16F12358   0.875   3.150   9.410  0.1212  0.0657  0.4033
  117OSM   H16F12359   0.921   3.050   9.423 -0.5093 -0.5344 -1.5835
  117OSM   H16G12360   0.959   3.216   9.437  1.4603 -0.8275 -1.3471
  117OSM   C17F12361   0.831   3.143   9.261 -0.2612 -0.3223 -0.6130
  117OSM   H17F12362   0.794   3.242   9.226  1.4685  0.1983 -1.0902
  117OSM   H17G12363   0.755   3.065   9.242 -1.0881 -0.1092  1.5664
  117OSM   C18F12364   0.957   3.112   9.173 -0.3195 -0.7462 -0.2452
  117OSM   H18F12365   0.924   3.065   9.078 -1.1902  1.1138 -0.9224
  117OSM   H18G12366   1.038   3.053   9.219 -0.6838 -2.1531 -1.3319
  117OSM   H18H12367   1.002   3.206   9.134  1.1165 -1.7171 -0.9975
  118OSM      N12368   1.420   1.703  11.481  0.4006 -0.4025 -0.2088
  118OSM    C1512369   1.494   1.806  11.567 -0.3651 -0.5847 -0.0285
  118OSM   H15A12370   1.585   1.835  11.518 -0.1023 -0.9880  0.2116
  118OSM   H15B12371   1.519   1.754  11.659 -0.6927  0.5051  0.6951
  118OSM   H15C12372   1.438   1.897  11.582 -2.7907 -1.8481 -0.8696
  118OSM    C1412373   1.486   1.574  11.498 -0.3204 -0.5389  0.0954
  118OSM   H14A12374   1.437   1.506  11.430  0.5610 -0.1652 -0.9483
  118OSM   H14B12375   1.481   1.537  11.600 -0.0587  0.1092  0.3458
  118OSM   H14C12376   1.591   1.581  11.472 -0.3200 -1.8908 -0.3822
  118OSM    C1312377   1.271   1.691  11.523 -0.5861  0.3045  0.4655
  118OSM   H13A12378   1.228   1.790  11.523 -2.3724 -0.3693 -2.3538
  118OSM   H13B12379   1.270   1.645  11.621  1.6921  1.9999  1.3613
  118OSM   H13C12380   1.230   1.627  11.446  0.6786  0.8624 -0.6971
  118OSM    C1212381   1.423   1.754  11.339 -0.4646 -0.3288  0.6676
  118OSM   H12A12382   1.526   1.782  11.326 -0.7989  0.0396 -1.6459
  118OSM   H12B12383   1.374   1.849  11.330  0.0822 -0.0020  1.1150
  118OSM    C1112384   1.370   1.671  11.218 -0.1381  0.5715 -0.8328
  118OSM   H11A12385   1.376   1.722  11.119 -0.7573  1.6393 -0.3402
  118OSM   H11B12386   1.260   1.668  11.231  0.0628 -0.4201  0.8022
  118OSM      P12387   1.553   1.499  11.137  0.7155 -0.5679  0.1752
  118OSM    O1312388   1.661   1.598  11.166 -0.5894  0.3390 -0.6943
  118OSM    O1412389   1.582   1.356  11.163 -0.0876  0.3083  0.0367
  118OSM    O1112390   1.501   1.512  10.986 -0.6964  0.2773  0.5125
  118OSM    O1212391   1.418   1.537  11.217  0.3139  0.0287 -0.3223
  118OSM    C1S12392   1.541   1.434  10.877 -0.0295  0.2403 -0.1966
  118OSM    H1S12393   1.529   1.327  10.902  2.5735 -0.4348 -1.4846
  118OSM    H1T12394   1.642   1.463  10.839 -0.4018  1.6219 -0.2036
  118OSM     NF12395   1.514   1.370  10.646  0.8171 -0.1005  0.4105
  118OSM    HNF12396   1.564   1.424  10.579  1.2035 -1.1043 -0.1232
  118OSM    C2S12397   1.449   1.447  10.752  0.2642 -0.3796 -0.5252
  118OSM    H2S12398   1.353   1.394  10.775  0.3767  0.2547  1.6504
  118OSM    C3S12399   1.426   1.598  10.719  0.0129  0.1501 -0.5174
  118OSM    H3S12400   1.523   1.650  10.706  0.7626 -1.1853 -0.4040
  118OSM     O312401   1.370   1.672  10.826 -0.2197  0.1729 -0.2692
  118OSM    HO312402   1.404   1.619  10.898 -1.8296 -1.5686 -0.7346
  118OSM    C4S12403   1.342   1.606  10.593 -0.3201 -0.4511 -0.7094
  118OSM    H4S12404   1.265   1.529  10.579 -1.2329  0.3223 -0.1097
  118OSM    C5S12405   1.356   1.706  10.499  0.4639 -0.1948 -0.2726
  118OSM    H5S12406   1.421   1.794  10.505 -2.0230  1.9523 -2.4781
  118OSM    C6S12407   1.265   1.720  10.380  0.0770  0.1402  0.4876
  118OSM    H6S12408   1.261   1.829  10.362 -0.5947  0.2276  1.1360
  118OSM    H6T12409   1.167   1.672  10.399  1.0437 -1.6969  1.1247
  118OSM    C7S12410   1.300   1.649  10.255 -0.0898 -0.0886  0.6023
  118OSM    H7S12411   1.304   1.540  10.273 -1.0023  0.0055  1.4944
  118OSM    H7T12412   1.399   1.678  10.215  0.0091 -1.0402  0.1466
  118OSM    C8S12413   1.204   1.686  10.138  0.0123  0.0301 -0.1289
  118OSM    H8S12414   1.216   1.796  10.126  0.9533 -0.1658 -1.1114
  118OSM    H8T12415   1.097   1.661  10.156 -0.0900 -0.0600 -0.8055
  118OSM    C9S12416   1.252   1.624  10.010  0.0052 -0.9050  0.1214
  118OSM    H9S12417   1.270   1.515  10.017  2.9279 -0.4794  0.5530
  118OSM    H9T12418   1.353   1.671  10.006 -0.8047  0.9207  0.0184
  118OSM   C10S12419   1.195   1.679   9.880 -0.2053  0.1033  0.5927
  118OSM   H10S12420   1.195   1.790   9.880  0.7291  0.1579 -1.5140
  118OSM   H10T12421   1.090   1.643   9.870  0.1606 -0.6143 -1.0732
  118OSM   C11S12422   1.265   1.622   9.754 -0.3637 -0.2061 -0.5447
  118OSM   H11S12423   1.238   1.514   9.754  0.2560 -0.3634 -0.2222
  118OSM   H11T12424   1.375   1.635   9.763 -0.7811  2.5020  2.3029
  118OSM   C12S12425   1.219   1.682   9.621 -0.5107 -0.1819 -0.0436
  118OSM   H12S12426   1.111   1.708   9.612 -0.3925  0.1787 -0.4520
  118OSM   H12T12427   1.255   1.610   9.545 -0.6972  0.0836 -0.3884
  118OSM   C13S12428   1.296   1.815   9.604 -0.1598  0.4967 -0.5947
  118OSM   H13S12429   1.402   1.785   9.587 -0.0679  0.4038  0.1126
  118OSM   H13T12430   1.294   1.871   9.700  0.2127 -2.3106  1.1697
  118OSM   C14S12431   1.238   1.895   9.486 -0.0381  1.0025 -0.4989
  118OSM   H14S12432   1.293   1.992   9.484 -0.1764  1.0739 -1.2702
  118OSM   H14T12433   1.134   1.921   9.517  0.4896  0.6038  1.7316
  118OSM   C15S12434   1.251   1.812   9.356  0.1633 -0.0118  0.6606
  118OSM   H15S12435   1.193   1.717   9.361 -1.4823  0.9023 -0.0955
  118OSM   H15T12436   1.353   1.780   9.326  0.2801  0.5145  0.4769
  118OSM   C16S12437   1.203   1.905   9.253 -0.3038 -0.7706  0.9548
  118OSM   H16S12438   1.265   1.997   9.245 -0.3836 -0.7751  0.1495
  118OSM   H16T12439   1.105   1.940   9.289  0.6645  0.1441  2.8533
  118OSM   C17S12440   1.204   1.850   9.108 -0.3557 -0.2854  0.4122
  118OSM   H17S12441   1.170   1.744   9.108 -1.4557  0.0111 -1.5527
  118OSM   H17T12442   1.313   1.859   9.090 -0.1335 -0.0082  1.7351
  118OSM   C18S12443   1.116   1.932   9.008  1.2358 -0.1623 -0.4242
  118OSM   H18S12444   1.023   1.962   9.061  2.0654 -1.1571  1.7261
  118OSM   H18T12445   1.090   1.870   8.920  0.9746 -0.0913 -0.3954
  118OSM   H18U12446   1.172   2.014   8.958 -2.1492  1.8088 -1.2366
  118OSM    C1F12447   1.529   1.234  10.638  0.0395  0.7170 -0.2658
  118OSM     OF12448   1.466   1.172  10.723  0.7806  0.2648 -0.4120
  118OSM    C2F12449   1.619   1.165  10.537  0.5677  0.0873 -0.2907
  118OSM    H2F12450   1.562   1.086  10.483 -1.1158  1.0718 -0.0233
  118OSM    H2G12451   1.707   1.119  10.587 -1.0472  0.0083  2.6858
  118OSM    C3F12452   1.658   1.262  10.418 -0.5089 -0.2109 -0.7601
  118OSM    H3F12453   1.735   1.324  10.468 -0.4765 -1.0261  0.2271
  118OSM    H3G12454   1.565   1.319  10.395 -1.3188 -0.5871  1.3438
  118OSM    C4F12455   1.717   1.192  10.296 -0.1881 -0.1351  0.1673
  118OSM    H4F12456   1.630   1.144  10.246 -1.7142  0.9207  1.7002
  118OSM    H4G12457   1.791   1.119  10.333  1.2880  0.4144 -1.5424
  118OSM    C5F12458   1.789   1.286  10.195  0.1943 -0.0650  0.2112
  118OSM    H5F12459   1.868   1.349  10.242 -0.3547  1.1772 -0.5047
  118OSM    H5G12460   1.708   1.355  10.163  0.6887  1.0725  1.3093
  118OSM    C6F12461   1.845   1.217  10.075 -0.0840 -0.1586  0.0989
  118OSM    H6F12462   1.769   1.148  10.032  0.2246 -0.7189  0.4376
  118OSM    H6G12463   1.930   1.157  10.113 -1.1881 -1.0243  1.2785
  118OSM    C7F12464   1.899   1.312   9.968  0.3434 -0.5725  0.1027
  118OSM    H7F12465   1.972   1.380  10.016 -0.4008  1.0394 -0.9706
  118OSM    H7G12466   1.804   1.366   9.946 -0.7222 -1.7973  1.4018
  118OSM    C8F12467   1.964   1.242   9.858 -0.8079 -0.0126  0.2461
  118OSM    H8F12468   2.010   1.308   9.781 -0.9117  0.1980  0.3640
  118OSM    H8G12469   1.886   1.187   9.801 -0.4297 -0.2813 -0.0144
  118OSM    C9F12470   2.082   1.156   9.900 -0.7668  1.0228  0.0282
  118OSM    H9F12471   2.145   1.181   9.987  1.2185 -0.6112 -0.8595
  118OSM   C10F12472   2.108   1.042   9.830  0.8373 -0.1343  0.4393
  118OSM   H10F12473   2.191   0.981   9.868 -0.6772 -1.8658  1.1403
  118OSM   C11F12474   2.027   0.985   9.709 -0.8357 -0.4194 -0.1489
  118OSM   H11F12475   1.931   1.036   9.685  0.4002  2.2809  0.2759
  118OSM   H11G12476   2.010   0.881   9.745  2.5497 -0.6306  1.2491
  118OSM   C12F12477   2.118   0.997   9.585  0.5359  0.2771  0.1319
  118OSM   H12F12478   2.227   1.016   9.595 -0.1010  4.4669  1.0733
  118OSM   H12G12479   2.083   1.089   9.534  0.8645  0.5218  0.3400
  118OSM   C13F12480   2.103   0.878   9.495 -0.1149  0.0376 -0.0080
  118OSM   H13F12481   1.995   0.862   9.476  0.1778 -3.0217  0.4498
  118OSM   H13G12482   2.135   0.789   9.552  1.3816  0.7486  0.3192
  118OSM   C14F12483   2.184   0.887   9.365  0.4125 -0.5201 -0.2515
  118OSM   H14F12484   2.280   0.831   9.373  1.0625 -0.1190 -3.6415
  118OSM   H14G12485   2.207   0.994   9.342  0.2524 -0.5595 -0.5982
  118OSM   C15F12486   2.112   0.836   9.235 -0.5106 -0.4936  0.2641
  118OSM   H15F12487   2.047   0.918   9.197  0.7948  0.3709 -0.1939
  118OSM   H15G12488   2.054   0.747   9.268 -1.5562 -0.2442 -0.8223
  118OSM   C16F12489   2.206   0.783   9.121 -0.6431 -0.0974  0.4267
  118OSM   H16F12490   2.253   0.685   9.144  1.0106 -0.1727 -2.7315
  118OSM   H16G12491   2.284   0.861   9.110 -0.4282 -0.5549 -1.7897
  118OSM   C17F12492   2.151   0.770   8.985  0.8859 -0.0782 -0.0027
  118OSM   H17F12493   2.112   0.872   8.966 -1.4778 -0.6011  1.5677
  118OSM   H17G12494   2.066   0.699   8.989 -0.8483  1.9005  0.4543
  118OSM   C18F12495   2.247   0.758   8.861  0.3084 -0.2985  0.2563
  118OSM   H18F12496   2.320   0.675   8.871  0.1161 -0.5876 -0.6450
  118OSM   H18G12497   2.299   0.856   8.857 -1.9700  1.1424  2.5033
  118OSM   H18H12498   2.188   0.750   8.767  0.6870  2.3313 -0.2819
  119OSM      N12499   1.805   3.098  11.507  0.4579 -0.2842  0.1339
  119OSM    C1512500   1.837   3.233  11.573 -0.3677 -0.4825 -0.1997
  119OSM   H15A12501   1.933   3.279  11.554 -0.2566 -0.5485  0.1863
  119OSM   H15B12502   1.828   3.220  11.680 -0.9413  0.1168 -0.1713
  119OSM   H15C12503   1.774   3.305  11.525  1.1772 -0.1361 -1.7972
  119OSM    C1412504   1.868   2.984  11.570 -0.2888 -0.0938 -0.2469
  119OSM   H14A12505   1.862   2.976  11.678  0.5427 -1.0575 -0.2568
  119OSM   H14B12506   1.971   2.967  11.543 -0.2689  0.1990 -0.3507
  119OSM   H14C12507   1.818   2.898  11.528 -0.3213 -1.1594  1.8368
  119OSM    C1312508   1.655   3.078  11.534  0.1132  0.1900  0.5000
  119OSM   H13A12509   1.591   3.155  11.494 -1.5190 -2.2379 -1.9288
  119OSM   H13B12510   1.644   3.058  11.639 -1.8580  2.3451  0.7868
  119OSM   H13C12511   1.622   2.999  11.469 -1.6739  0.8357  0.5751
  119OSM    C1212512   1.821   3.105  11.356 -0.3799  0.0948 -0.2212
  119OSM   H12A12513   1.916   3.138  11.315 -1.2263  1.3902 -1.2263
  119OSM   H12B12514   1.738   3.165  11.321  0.2482  0.8844 -0.3739
  119OSM    C1112515   1.808   2.978  11.273  0.3314  0.0738 -0.2790
  119OSM   H11A12516   1.872   2.892  11.302  1.2646  1.0998  0.8486
  119OSM   H11B12517   1.851   3.010  11.175 -0.3233  2.6258  0.1882
  119OSM      P12518   1.569   2.998  11.175  0.1308 -0.1135  0.0788
  119OSM    O1312519   1.432   2.953  11.207  0.5541  1.0825 -0.2883
  119OSM    O1412520   1.604   3.144  11.176 -0.7390 -0.4529 -0.0064
  119OSM    O1112521   1.612   2.938  11.037 -0.9079 -0.1402 -0.1720
  119OSM    O1212522   1.679   2.929  11.274  0.4292 -0.3662  0.4147
  119OSM    C1S12523   1.591   3.013  10.917  0.1149 -0.2237 -0.0843
  119OSM    H1S12524   1.540   3.109  10.943 -0.2679 -0.5226  0.2791
  119OSM    H1T12525   1.526   2.960  10.845  1.8122 -0.0436 -1.8360
  119OSM     NF12526   1.672   3.099  10.689  0.2612 -0.2631  0.0380
  119OSM    HNF12527   1.663   3.038  10.610 -0.3308  2.2843 -1.9984
  119OSM    C2S12528   1.714   3.040  10.816  0.2705  0.1360  0.6624
  119OSM    H2S12529   1.784   3.110  10.867  0.4019  0.6292 -0.1784
  119OSM    C3S12530   1.798   2.906  10.808 -0.8550  0.0236 -0.0123
  119OSM    H3S12531   1.746   2.828  10.749  0.9720 -0.0070 -1.6447
  119OSM     O312532   1.842   2.850  10.933 -0.4442 -0.4708  0.5566
  119OSM    HO312533   1.784   2.890  10.998 -0.2261 -2.3970  2.0311
  119OSM    C4S12534   1.921   2.926  10.725  0.0778 -1.0710 -0.5474
  119OSM    H4S12535   1.907   2.887  10.623  0.7047 -0.9962 -0.6701
  119OSM    C5S12536   2.030   2.994  10.760 -0.6295 -0.4092 -0.3273
  119OSM    H5S12537   2.035   3.045  10.858 -1.3302 -0.5326 -0.2212
  119OSM    C6S12538   2.152   3.014  10.666  0.0886 -0.1263 -0.0233
  119OSM    H6S12539   2.236   2.958  10.713  0.4410  0.0089 -0.4807
  119OSM    H6T12540   2.184   3.121  10.671  0.4584 -0.2386  0.0815
  119OSM    C7S12541   2.151   2.974  10.520  0.1645  0.6036  0.6060
  119OSM    H7S12542   2.103   2.874  10.505 -1.7114  1.7586 -1.7090
  119OSM    H7T12543   2.254   2.973  10.480 -0.4170 -2.7757 -1.1761
  119OSM    C8S12544   2.075   3.070  10.432  0.0304 -0.7241  0.3611
  119OSM    H8S12545   2.126   3.169  10.440  1.1528 -1.2915  0.4079
  119OSM    H8T12546   1.969   3.087  10.459  0.3235  0.0622  1.0529
  119OSM    C9S12547   2.080   3.011  10.291 -0.0570  0.0268  0.1506
  119OSM    H9S12548   2.009   2.926  10.300  1.6908 -1.5412 -0.3980
  119OSM    H9T12549   2.184   2.979  10.268  1.7321  4.0238  1.6936
  119OSM   C10S12550   2.017   3.102  10.183 -0.2109 -0.6234 -0.1386
  119OSM   H10S12551   2.068   3.197  10.160 -4.0363  1.5697 -0.3994
  119OSM   H10T12552   1.914   3.125  10.218  0.3813  0.2813  1.1121
  119OSM   C11S12553   2.010   3.036  10.046  0.1657  1.1662  0.8790
  119OSM   H11S12554   1.954   3.097   9.971  1.1720  1.6731  0.5150
  119OSM   H11T12555   1.937   2.953  10.057 -0.4852  1.3572 -1.3817
  119OSM   C12S12556   2.142   2.990   9.990  0.3107 -0.7856 -0.3680
  119OSM   H12S12557   2.195   2.930  10.067  0.5499 -0.5850 -0.3746
  119OSM   H12T12558   2.207   3.077   9.969  0.4477 -1.6782 -4.5700
  119OSM   C13S12559   2.133   2.902   9.864  0.2063  0.1647 -0.1060
  119OSM   H13S12560   2.041   2.840   9.874 -0.6631  1.5067  0.6668
  119OSM   H13T12561   2.223   2.838   9.856 -0.7628 -1.1495 -0.9129
  119OSM   C14S12562   2.118   2.993   9.741  0.7973  0.4692  0.6480
  119OSM   H14S12563   2.205   3.061   9.754 -0.6161  2.2104  1.4199
  119OSM   H14T12564   2.020   3.046   9.734  0.5594 -0.1842 -2.0105
  119OSM   C15S12565   2.113   2.912   9.610 -0.3980 -0.3539 -0.0122
  119OSM   H15S12566   2.041   2.833   9.639  0.2644 -0.5964  1.0101
  119OSM   H15T12567   2.211   2.863   9.591 -2.0627 -2.8585 -3.2454
  119OSM   C16S12568   2.071   2.985   9.475 -0.1766  0.1528 -0.3735
  119OSM   H16S12569   2.119   3.085   9.469 -1.5332  0.7382 -2.5791
  119OSM   H16T12570   1.961   2.993   9.479 -0.0511  1.4612  1.3150
  119OSM   C17S12571   2.109   2.902   9.352 -0.5598  0.4064 -0.2125
  119OSM   H17S12572   2.059   2.805   9.373  0.4474  0.0757  0.7716
  119OSM   H17T12573   2.218   2.882   9.346 -0.8174 -1.4712  0.7408
  119OSM   C18S12574   2.065   2.971   9.224 -0.4970 -0.3690  0.0965
  119OSM   H18S12575   2.100   2.911   9.138 -0.6145  1.6194 -1.3980
  119OSM   H18T12576   2.109   3.073   9.213 -2.1797  0.4989  0.9828
  119OSM   H18U12577   1.955   2.981   9.210 -0.4386 -2.1052 -1.9127
  119OSM    C1F12578   1.614   3.221  10.670  0.2163  0.2333  0.3471
  119OSM     OF12579   1.582   3.292  10.766 -0.8495  0.0999  0.3125
  119OSM    C2F12580   1.576   3.262  10.532  0.0980  0.2771 -0.5489
  119OSM    H2F12581   1.508   3.183  10.494 -0.1249  0.9983 -1.7042
  119OSM    H2G12582   1.668   3.257  10.471 -0.2022 -0.7327 -0.9332
  119OSM    C3F12583   1.504   3.404  10.516 -0.6403  0.1385  0.2633
  119OSM    H3F12584   1.576   3.487  10.533  0.4930 -1.3384  3.5629
  119OSM    H3G12585   1.427   3.412  10.596  1.3701 -1.5482  2.5116
  119OSM    C4F12586   1.440   3.422  10.381  0.7083 -0.1793  0.0172
  119OSM    H4F12587   1.401   3.526  10.372 -1.2931 -1.0186 -1.9005
  119OSM    H4G12588   1.352   3.357  10.365 -1.4152  2.3665  0.5588
  119OSM    C5F12589   1.536   3.399  10.266  0.0138 -0.1013 -0.5620
  119OSM    H5F12590   1.564   3.292  10.254 -2.2433 -0.7467 -0.5915
  119OSM    H5G12591   1.617   3.472  10.282 -1.3250  1.3078  0.0348
  119OSM    C6F12592   1.470   3.433  10.133 -0.3141  0.1754 -0.2813
  119OSM    H6F12593   1.541   3.398  10.056  1.2897  1.1284  0.7083
  119OSM    H6G12594   1.460   3.543  10.125 -1.3825  0.1319  0.2530
  119OSM    C7F12595   1.336   3.366  10.087  0.5266  0.6093 -0.0605
  119OSM    H7F12596   1.256   3.414  10.146 -0.5558  0.8725 -1.6768
  119OSM    H7G12597   1.340   3.259  10.119  1.4041  0.3195 -1.0356
  119OSM    C8F12598   1.294   3.394   9.939  0.6172 -0.2967  0.0472
  119OSM    H8F12599   1.291   3.503   9.919 -1.3462 -0.2343  0.4900
  119OSM    H8G12600   1.191   3.354   9.933  1.3240 -2.3058  0.3558
  119OSM    C9F12601   1.381   3.305   9.849  0.6152 -0.2039  1.2874
  119OSM    H9F12602   1.379   3.198   9.873  0.6950 -0.9153 -1.5876
  119OSM   C10F12603   1.446   3.346   9.738 -0.1203 -0.0395  0.8352
  119OSM   H10F12604   1.500   3.265   9.687  0.9129  0.3829  1.2260
  119OSM   C11F12605   1.461   3.487   9.681 -0.0934  0.1627  0.1370
  119OSM   H11F12606   1.564   3.507   9.645 -0.2464  1.8168  0.5700
  119OSM   H11G12607   1.444   3.568   9.754  2.1672  3.1954 -2.4197
  119OSM   C12F12608   1.358   3.515   9.568 -0.8076  0.2734 -1.2322
  119OSM   H12F12609   1.380   3.616   9.529 -0.5453  1.7472  2.3197
  119OSM   H12G12610   1.265   3.524   9.629  0.4832 -3.3561  1.7157
  119OSM   C13F12611   1.351   3.402   9.465  0.1176  0.3357 -0.2759
  119OSM   H13F12612   1.247   3.389   9.428  0.7377 -1.5232 -1.5196
  119OSM   H13G12613   1.369   3.303   9.511  0.1761  0.7558  0.6335
  119OSM   C14F12614   1.446   3.419   9.347  0.1836 -0.3416 -0.0985
  119OSM   H14F12615   1.550   3.439   9.381  0.1988  0.6951 -0.6975
  119OSM   H14G12616   1.415   3.512   9.294  0.7067  0.5806  1.1681
  119OSM   C15F12617   1.440   3.290   9.262  0.1703  0.3188 -0.1045
  119OSM   H15F12618   1.341   3.284   9.212  0.4523  0.8528 -0.7504
  119OSM   H15G12619   1.450   3.200   9.326 -2.6130 -0.4725 -0.6403
  119OSM   C16F12620   1.537   3.267   9.143 -0.3149  0.1994  0.4676
  119OSM   H16F12621   1.640   3.278   9.184  0.3033 -2.7524 -0.1070
  119OSM   H16G12622   1.518   3.341   9.062  2.8267  0.6949  0.0368
  119OSM   C17F12623   1.510   3.127   9.075  0.1394 -0.6468  0.3463
  119OSM   H17F12624   1.420   3.140   9.011  0.2416  0.8291  0.4614
  119OSM   H17G12625   1.467   3.068   9.158  0.8271 -0.5768  0.7581
  119OSM   C18F12626   1.629   3.077   8.996 -0.4418  0.7286 -0.1808
  119OSM   H18F12627   1.713   3.056   9.066 -0.1989 -2.0566 -1.1994
  119OSM   H18G12628   1.665   3.145   8.916 -2.7130  1.2252 -0.8426
  119OSM   H18H12629   1.590   2.992   8.937 -0.9615 -0.0761  1.2635
  120OSM      N12630   3.310   5.313  11.073 -0.3765 -0.6689 -0.2099
  120OSM    C1512631   3.249   5.246  11.193 -0.0378 -0.1924  0.7071
  120OSM   H15A12632   3.285   5.144  11.202 -2.6625 -1.4284 -1.1907
  120OSM   H15B12633   3.141   5.247  11.194 -0.0417 -0.4575  1.8336
  120OSM   H15C12634   3.276   5.299  11.283 -2.9055 -1.1807  2.2836
  120OSM    C1412635   3.410   5.413  11.125  0.1481 -0.3864  0.6646
  120OSM   H14A12636   3.351   5.490  11.173 -1.3884 -0.7830 -0.4960
  120OSM   H14B12637   3.464   5.459  11.043 -0.1536 -3.6025 -1.5657
  120OSM   H14C12638   3.490   5.377  11.187  1.0693  0.4297 -0.0095
  120OSM    C1312639   3.384   5.207  11.000  0.5400 -0.2134 -1.1473
  120OSM   H13A12640   3.323   5.118  10.988  0.0192  0.1015 -0.9014
  120OSM   H13B12641   3.473   5.186  11.058 -0.5244 -0.5327  0.4594
  120OSM   H13C12642   3.418   5.249  10.907  1.1710  0.6308 -0.5491
  120OSM    C1212643   3.193   5.372  10.996  0.1314 -0.4404 -1.2470
  120OSM   H12A12644   3.139   5.438  11.063  2.2917 -1.6575  1.9944
  120OSM   H12B12645   3.123   5.292  10.976  0.2696 -0.8437 -0.1928
  120OSM    C1112646   3.226   5.439  10.864  0.1864 -0.0808 -0.2299
  120OSM   H11A12647   3.131   5.448  10.808  0.6742 -1.4295 -1.3250
  120OSM   H11B12648   3.295   5.382  10.799  0.3082 -0.8475  0.5508
  120OSM      P12649   3.202   5.698  10.929  0.1213  0.2482  0.4517
  120OSM    O1312650   3.119   5.660  11.049  0.3904  0.3447  0.4601
  120OSM    O1412651   3.304   5.807  10.945  0.1377 -0.1898 -0.2748
  120OSM    O1112652   3.114   5.723  10.798 -0.3149 -0.1142 -0.4303
  120OSM    O1212653   3.287   5.567  10.891  1.0964  0.3329 -0.5101
  120OSM    C1S12654   3.170   5.736  10.667 -0.0030  0.0061  0.0112
  120OSM    H1S12655   3.167   5.640  10.611  0.6425 -0.6329  1.0465
  120OSM    H1T12656   3.274   5.776  10.665 -0.1761  0.4620 -0.0218
  120OSM     NF12657   3.158   5.842  10.446  0.3115  0.0860  0.3323
  120OSM    HNF12658   3.219   5.921  10.446 -1.8532  1.8726 -0.3906
  120OSM    C2S12659   3.080   5.815  10.571  0.4947 -0.1322  0.2291
  120OSM    H2S12660   2.993   5.751  10.546  2.3893 -2.5283 -0.6415
  120OSM    C3S12661   3.029   5.948  10.645  0.0767 -0.7238  0.6852
  120OSM    H3S12662   3.115   6.018  10.653 -0.4064 -0.2373  1.7899
  120OSM     O312663   2.969   5.929  10.771 -0.5770 -0.3279  0.1436
  120OSM    HO312664   2.970   5.833  10.775  1.8412 -0.3438  0.0913
  120OSM    C4S12665   2.934   6.022  10.548  0.5664 -0.8312 -0.8894
  120OSM    H4S12666   2.970   6.122  10.523  1.9112 -0.8365  0.8739
  120OSM    C5S12667   2.831   5.977  10.489 -0.2073  0.1865 -0.0158
  120OSM    H5S12668   2.783   5.885  10.526  0.2640  0.7241  2.0617
  120OSM    C6S12669   2.743   6.051  10.385  0.5202  0.6816 -0.4077
  120OSM    H6S12670   2.640   6.079  10.416 -0.1882 -1.0902 -1.0378
  120OSM    H6T12671   2.727   5.978  10.302  1.8213  1.1990 -1.1457
  120OSM    C7S12672   2.806   6.184  10.327  0.0320 -0.1132  0.2251
  120OSM    H7S12673   2.826   6.262  10.404 -3.0101  0.1279  0.9183
  120OSM    H7T12674   2.722   6.226  10.268  0.3275 -0.6895 -0.6126
  120OSM    C8S12675   2.928   6.177  10.239 -0.3904 -0.4727  0.1629
  120OSM    H8S12676   3.006   6.124  10.297 -0.9684  0.1596  1.5672
  120OSM    H8T12677   2.957   6.283  10.222 -1.0785 -0.0511  1.4422
  120OSM    C9S12678   2.901   6.101  10.107 -0.0599 -0.3021  0.2446
  120OSM    H9S12679   2.814   6.162  10.075  0.3641  0.7881  1.0805
  120OSM    H9T12680   2.861   6.002  10.138 -0.5681 -0.1164  0.1748
  120OSM   C10S12681   3.027   6.102  10.009  0.7437  0.0714 -0.5362
  120OSM   H10S12682   3.001   6.018   9.941 -0.5379  0.6110 -0.7458
  120OSM   H10T12683   3.119   6.062  10.056 -0.2997 -2.7777 -0.7194
  120OSM   C11S12684   3.052   6.239   9.936  0.1630  0.2944  0.3475
  120OSM   H11S12685   3.094   6.323   9.994 -1.2357  2.7512 -1.9387
  120OSM   H11T12686   2.956   6.258   9.884  0.4280 -0.0329 -0.2708
  120OSM   C12S12687   3.159   6.231   9.823 -0.0844  0.3508 -0.1981
  120OSM   H12S12688   3.260   6.201   9.861  0.3685  0.3040 -1.3907
  120OSM   H12T12689   3.168   6.336   9.788  1.9321  0.7022  1.1588
  120OSM   C13S12690   3.139   6.125   9.723 -0.0962 -0.2333  0.0250
  120OSM   H13S12691   3.069   6.162   9.646  3.0384  0.5406 -2.7236
  120OSM   H13T12692   3.110   6.025   9.762 -1.7174  0.3481  0.3641
  120OSM   C14S12693   3.260   6.092   9.637  0.2174  0.3509 -0.6240
  120OSM   H14S12694   3.340   6.041   9.694 -1.3692 -1.6379 -0.0755
  120OSM   H14T12695   3.298   6.185   9.588  2.7221 -0.4250 -0.2854
  120OSM   C15S12696   3.234   5.984   9.533  0.1006 -0.2909  0.0924
  120OSM   H15S12697   3.140   5.932   9.561  0.4457 -0.4396  0.9995
  120OSM   H15T12698   3.311   5.904   9.529 -1.1594 -1.5106 -0.2795
  120OSM   C16S12699   3.245   6.033   9.392 -0.2132 -0.1954 -0.5379
  120OSM   H16S12700   3.250   5.949   9.320 -1.3836  0.8848 -1.9515
  120OSM   H16T12701   3.340   6.090   9.383 -0.0316 -0.3011  0.5847
  120OSM   C17S12702   3.124   6.121   9.344  0.3704 -0.8279 -0.7944
  120OSM   H17S12703   3.145   6.130   9.236  4.0949  2.1255 -0.0655
  120OSM   H17T12704   3.144   6.227   9.373  2.6722 -1.2811 -0.6106
  120OSM   C18S12705   2.992   6.068   9.376  0.1394  0.0610 -0.1969
  120OSM   H18S12706   2.975   5.964   9.339 -0.1776  0.7227 -2.0118
  120OSM   H18T12707   2.910   6.131   9.335 -1.8342 -2.2211 -0.0427
  120OSM   H18U12708   2.970   6.071   9.485 -0.5905 -0.9166 -0.2982
  120OSM    C1F12709   3.167   5.757  10.339  0.5644  0.0672  0.3358
  120OSM     OF12710   3.117   5.645  10.362  0.7637 -0.6414  0.8727
  120OSM    C2F12711   3.237   5.798  10.211 -0.0599  0.0610  0.1139
  120OSM    H2F12712   3.304   5.883  10.235 -1.7298  1.4382  0.0569
  120OSM    H2G12713   3.158   5.835  10.142  1.0525  0.5463 -0.9349
  120OSM    C3F12714   3.318   5.685  10.138 -0.6385  0.0993 -0.0499
  120OSM    H3F12715   3.248   5.621  10.081  0.6750 -0.3200 -1.2460
  120OSM    H3G12716   3.372   5.624  10.214  0.5369 -1.1985 -1.8481
  120OSM    C4F12717   3.409   5.748  10.030  0.1422 -0.3472 -0.4137
  120OSM    H4F12718   3.494   5.801  10.078  0.0337 -0.0935 -0.5000
  120OSM    H4G12719   3.340   5.828   9.997 -3.1247 -2.4127  0.8815
  120OSM    C5F12720   3.457   5.661   9.922  0.5772  0.3629 -0.0598
  120OSM    H5F12721   3.377   5.589   9.893  2.0340 -1.3432 -0.0483
  120OSM    H5G12722   3.543   5.596   9.947 -0.0631 -0.2620  0.5712
  120OSM    C6F12723   3.505   5.733   9.795 -0.3750 -0.0124  0.5870
  120OSM    H6F12724   3.589   5.795   9.830 -1.6498  0.7982  2.3803
  120OSM    H6G12725   3.425   5.797   9.751 -1.2195 -0.1008  1.9318
  120OSM    C7F12726   3.559   5.633   9.692 -0.0232  0.0085  1.2591
  120OSM    H7F12727   3.483   5.551   9.691 -2.3289  2.0346  1.0344
  120OSM    H7G12728   3.653   5.579   9.717 -0.0662  0.0890  1.6060
  120OSM    C8F12729   3.568   5.687   9.543  0.0876 -0.8673 -0.8096
  120OSM    H8F12730   3.625   5.780   9.565 -0.1333 -1.1205  1.0317
  120OSM    H8G12731   3.465   5.702   9.503  0.3730 -0.0289 -1.2461
  120OSM    C9F12732   3.653   5.611   9.447  0.7793  0.5354  0.2544
  120OSM    H9F12733   3.750   5.594   9.496  0.8029  1.2471  0.4761
  120OSM   C10F12734   3.630   5.559   9.327  0.6925 -0.6658 -0.3551
  120OSM   H10F12735   3.707   5.491   9.290  0.7604  0.0391 -1.5842
  120OSM   C11F12736   3.502   5.564   9.237 -0.1825  0.5361 -0.0085
  120OSM   H11F12737   3.432   5.643   9.271  0.1173  0.4869  0.7523
  120OSM   H11G12738   3.446   5.468   9.243  0.1449  0.3472  0.0767
  120OSM   C12F12739   3.533   5.591   9.092 -0.7073  0.0058  0.4195
  120OSM   H12F12740   3.607   5.673   9.080 -0.5902  0.1833  2.0748
  120OSM   H12G12741   3.440   5.623   9.041 -0.9099 -1.6789 -0.3536
  120OSM   C13F12742   3.591   5.459   9.019 -0.1794 -0.6333 -0.4166
  120OSM   H13F12743   3.670   5.407   9.077  1.4417  0.5571 -1.4392
  120OSM   H13G12744   3.644   5.508   8.934  0.9929 -2.1305 -0.5893
  120OSM   C14F12745   3.479   5.368   8.975  0.6011  0.0233 -0.4684
  120OSM   H14F12746   3.406   5.347   9.056 -0.2646  2.8906 -0.3742
  120OSM   H14G12747   3.538   5.290   8.922  0.3305  0.9435 -2.1820
  120OSM   C15F12748   3.404   5.433   8.855 -0.8027  0.1521  1.2460
  120OSM   H15F12749   3.478   5.490   8.795  0.3214 -2.2819  0.1696
  120OSM   H15G12750   3.339   5.512   8.900 -0.2356  0.0660  2.2645
  120OSM   C16F12751   3.323   5.331   8.776 -0.0732 -0.3301  0.5387
  120OSM   H16F12752   3.277   5.269   8.856  2.0968  0.9518  2.9437
  120OSM   H16G12753   3.397   5.262   8.730 -1.0751 -1.8151  1.0754
  120OSM   C17F12754   3.225   5.406   8.694 -0.2043  0.3350 -0.0946
  120OSM   H17F12755   3.153   5.466   8.754  0.8122  0.9380  0.5499
  120OSM   H17G12756   3.162   5.330   8.642 -0.3227  0.2173  0.2145
  120OSM   C18F12757   3.286   5.497   8.585 -0.4114  0.0552 -0.3090
  120OSM   H18F12758   3.327   5.587   8.636  1.5496 -0.7064 -0.4368
  120OSM   H18G12759   3.205   5.536   8.521 -1.3933 -0.5308  0.5319
  120OSM   H18H12760   3.348   5.433   8.519  0.4561  1.9934 -1.4477
  121OSM      N12761   1.130   2.413  10.947  0.8116  0.2835  0.1589
  121OSM    C1512762   1.226   2.293  10.926 -0.5797 -0.0284  0.3098
  121OSM   H15A12763   1.161   2.209  10.943 -2.7032  1.7170  1.4501
  121OSM   H15B12764   1.308   2.289  10.996  0.7093 -0.9067 -1.2003
  121OSM   H15C12765   1.271   2.300  10.828 -1.2308 -0.7163 -0.0466
  121OSM    C1412766   1.192   2.541  10.915 -1.4112 -0.3371 -0.1303
  121OSM   H14A12767   1.129   2.627  10.929 -0.7494  0.2249 -0.5716
  121OSM   H14B12768   1.233   2.534  10.816  1.6152 -0.3274  1.0261
  121OSM   H14C12769   1.278   2.567  10.975 -1.3854 -0.1191 -0.2625
  121OSM    C1312770   1.027   2.391  10.836 -0.3064 -0.4574 -0.1154
  121OSM   H13A12771   0.941   2.454  10.852 -0.1277 -0.8576  2.9978
  121OSM   H13B12772   0.986   2.291  10.834  1.5653 -1.2530 -1.1817
  121OSM   H13C12773   1.075   2.404  10.741 -0.7078  1.6901 -0.0573
  121OSM    C1212774   1.056   2.388  11.082 -0.5635 -0.1763 -0.1008
  121OSM   H12A12775   1.132   2.380  11.159 -0.2697 -3.9257 -0.6077
  121OSM   H12B12776   1.019   2.287  11.077 -0.9712  0.0218 -1.3355
  121OSM    C1112777   0.939   2.482  11.118 -0.2058 -0.1926  0.1442
  121OSM   H11A12778   0.959   2.590  11.107 -1.5963  0.4163  2.7689
  121OSM   H11B12779   0.921   2.470  11.227  0.8391  1.8739  0.6004
  121OSM      P12780   0.678   2.462  11.065 -0.1742 -0.0676 -0.0452
  121OSM    O1312781   0.597   2.376  10.976  0.0417 -0.3870  0.2972
  121OSM    O1412782   0.657   2.438  11.213 -0.6453 -0.6139  0.1911
  121OSM    O1112783   0.655   2.614  11.035 -0.1469  0.2473 -0.7314
  121OSM    O1212784   0.828   2.432  11.036 -0.5185  0.2185 -0.0275
  121OSM    C1S12785   0.717   2.676  10.913 -0.6653 -0.3616 -0.3165
  121OSM    H1S12786   0.808   2.619  10.884  0.0374  0.8341 -0.5485
  121OSM    H1T12787   0.750   2.778  10.940  0.0133 -0.2969 -1.3435
  121OSM     NF12788   0.696   2.695  10.662 -0.4633  0.1016 -0.2773
  121OSM    HNF12789   0.692   2.787  10.623 -0.1320 -0.5413 -1.9138
  121OSM    C2S12790   0.624   2.677  10.788 -0.1197 -1.0267 -0.1548
  121OSM    H2S12791   0.583   2.574  10.777  0.6671 -1.3625  0.0412
  121OSM    C3S12792   0.509   2.780  10.818  0.5861  0.5597 -0.1780
  121OSM    H3S12793   0.548   2.883  10.833 -1.0450  1.0117  1.3864
  121OSM     O312794   0.438   2.751  10.935  0.0982  0.0110 -0.5044
  121OSM    HO312795   0.493   2.694  10.990 -0.2035  0.8367  0.6845
  121OSM    C4S12796   0.396   2.783  10.716  0.0132  0.1131  0.7441
  121OSM    H4S12797   0.369   2.680  10.687  3.8846 -1.0249  0.6631
  121OSM    C5S12798   0.332   2.888  10.668 -0.0668 -0.3580  0.1579
  121OSM    H5S12799   0.335   2.985  10.720 -3.6732 -0.0501  0.0343
  121OSM    C6S12800   0.224   2.880  10.557 -0.0321 -0.5166 -0.2444
  121OSM    H6S12801   0.159   2.969  10.551  3.5382  2.3046 -0.9086
  121OSM    H6T12802   0.167   2.787  10.578 -1.1110 -0.2505 -1.8459
  121OSM    C7S12803   0.285   2.860  10.422 -0.3907 -0.2154  0.0893
  121OSM    H7S12804   0.359   2.777  10.424 -0.1943 -0.0345  1.5074
  121OSM    H7T12805   0.345   2.949  10.396 -1.7589  0.6039 -0.3882
  121OSM    C8S12806   0.176   2.847  10.311  0.1253  0.0530 -0.1061
  121OSM    H8S12807   0.108   2.934  10.327  0.5151  0.4341 -0.5143
  121OSM    H8T12808   0.104   2.763  10.323  2.4878 -2.7611 -3.4958
  121OSM    C9S12809   0.253   2.823  10.176 -0.0487  0.3224  0.0189
  121OSM    H9S12810   0.283   2.716  10.167 -0.1415  0.3535 -0.7083
  121OSM    H9T12811   0.336   2.896  10.177  0.2924 -0.0380  1.4862
  121OSM   C10S12812   0.160   2.836  10.057 -0.0127  0.1455 -0.8081
  121OSM   H10S12813   0.135   2.945  10.055  4.4043  1.4147  0.9352
  121OSM   H10T12814   0.066   2.779  10.066  0.7598 -0.7778  3.4202
  121OSM   C11S12815   0.232   2.801   9.930 -0.0579  0.7295 -0.0123
  121OSM   H11S12816   0.269   2.696   9.932 -0.5524  0.4079 -3.1830
  121OSM   H11T12817   0.323   2.865   9.933  0.2436  0.2733  0.8918
  121OSM   C12S12818   0.155   2.820   9.799  0.3191  0.7510 -0.2463
  121OSM   H12S12819   0.146   2.928   9.774 -1.5841  0.7795  0.4130
  121OSM   H12T12820   0.055   2.776   9.818  1.4124 -1.5293  0.5912
  121OSM   C13S12821   0.228   2.750   9.685 -0.4450 -0.3618  0.4817
  121OSM   H13S12822   0.263   2.651   9.719 -3.2563 -0.9264  1.9947
  121OSM   H13T12823   0.311   2.814   9.646  0.7722 -1.0810  1.7898
  121OSM   C14S12824   0.149   2.720   9.559 -0.5705 -0.5136  0.1898
  121OSM   H14S12825   0.097   2.816   9.539  0.8902  0.3602  0.4967
  121OSM   H14T12826   0.080   2.638   9.591 -0.5562 -0.6606 -0.1439
  121OSM   C15S12827   0.222   2.678   9.435  0.5030 -0.3547  0.1282
  121OSM   H15S12828   0.289   2.590   9.450 -0.0617 -0.9625 -0.7814
  121OSM   H15T12829   0.280   2.771   9.421  1.6518 -1.2252 -1.2438
  121OSM   C16S12830   0.146   2.662   9.298  0.3841 -0.1916 -0.4892
  121OSM   H16S12831   0.084   2.755   9.290  0.6965  0.0760  0.1355
  121OSM   H16T12832   0.080   2.573   9.303 -0.1922  0.1267 -1.9331
  121OSM   C17S12833   0.247   2.650   9.187 -0.2368  0.1479 -0.4715
  121OSM   H17S12834   0.198   2.604   9.098 -1.1112 -2.4560  1.2480
  121OSM   H17T12835   0.320   2.572   9.215 -2.0488 -1.0254  1.2976
  121OSM   C18S12836   0.330   2.775   9.166 -0.5150 -0.5662 -0.1592
  121OSM   H18S12837   0.386   2.808   9.257 -0.8031  0.3124 -0.2844
  121OSM   H18T12838   0.271   2.863   9.133  1.5919  1.6828  1.6190
  121OSM   H18U12839   0.418   2.752   9.101 -0.7440  0.0312 -0.6933
  121OSM    C1F12840   0.786   2.599  10.610  0.1799  0.4377  0.5943
  121OSM     OF12841   0.764   2.474  10.626 -0.0135 -0.1402 -0.6379
  121OSM    C2F12842   0.906   2.654  10.540  0.5436  0.4041 -0.6158
  121OSM    H2F12843   0.983   2.647  10.620 -0.3239 -0.7916  0.1374
  121OSM    H2G12844   0.888   2.759  10.508 -0.7189  1.1620  2.2436
  121OSM    C3F12845   0.957   2.561  10.427  0.3791 -0.1844 -0.5112
  121OSM    H3F12846   0.991   2.469  10.480 -2.2509 -0.5036  0.8087
  121OSM    H3G12847   1.050   2.608  10.389  1.7340 -2.8426 -0.7186
  121OSM    C4F12848   0.856   2.527  10.319  0.2605  0.1991  0.2587
  121OSM    H4F12849   0.799   2.617  10.288  0.8185  0.1617 -0.9606
  121OSM    H4G12850   0.782   2.466  10.375 -1.0847  2.9605  1.6815
  121OSM    C5F12851   0.923   2.447  10.210  0.3229  0.1134  0.4211
  121OSM    H5F12852   0.973   2.360  10.258 -0.0311 -1.1563 -1.4285
  121OSM    H5G12853   1.002   2.502  10.155 -0.1256 -0.9577 -1.3620
  121OSM    C6F12854   0.832   2.401  10.098  0.7753 -0.1531 -0.2726
  121OSM    H6F12855   0.813   2.493  10.039 -5.2513 -0.1664  0.9655
  121OSM    H6G12856   0.733   2.373  10.140  1.0403  1.3793  1.4830
  121OSM    C7F12857   0.885   2.293  10.007  0.2645  0.6053  0.8912
  121OSM    H7F12858   0.853   2.195  10.049 -1.1391  1.2841  1.4667
  121OSM    H7G12859   0.996   2.292  10.010  0.3328 -3.1408  2.9947
  121OSM    C8F12860   0.822   2.281   9.868  0.7077 -0.4636 -0.1028
  121OSM    H8F12861   0.714   2.302   9.882  0.3258 -1.3428 -1.5038
  121OSM    H8G12862   0.818   2.174   9.838 -0.8687 -0.5178  0.2360
  121OSM    C9F12863   0.881   2.383   9.767 -0.0465 -0.4383  0.1302
  121OSM    H9F12864   0.856   2.488   9.787 -1.5940 -0.9388  1.0007
  121OSM   C10F12865   0.960   2.342   9.664 -0.6779 -0.5483 -0.2601
  121OSM   H10F12866   1.008   2.421   9.604  1.0372  0.7908  2.6486
  121OSM   C11F12867   0.995   2.204   9.626  0.5030  0.2788  0.5707
  121OSM   H11F12868   0.933   2.136   9.687 -0.7885  2.4589  1.8206
  121OSM   H11G12869   1.102   2.174   9.636  0.1597 -0.5583  2.0394
  121OSM   C12F12870   0.947   2.193   9.478  0.5764  0.0407 -0.3408
  121OSM   H12F12871   0.836   2.186   9.479  0.5107  1.0213 -0.0608
  121OSM   H12G12872   0.975   2.090   9.447 -0.1392 -0.1103 -0.4881
  121OSM   C13F12873   1.002   2.292   9.377  0.1798 -0.3670  0.7976
  121OSM   H13F12874   1.113   2.291   9.387  0.6027  0.3908 -2.5666
  121OSM   H13G12875   0.962   2.391   9.406 -0.4335 -0.5023  0.4492
  121OSM   C14F12876   0.969   2.257   9.235 -0.4449  0.3137  0.1263
  121OSM   H14F12877   1.022   2.165   9.202 -3.6003 -1.5820 -0.1558
  121OSM   H14G12878   0.995   2.341   9.168  0.6887 -2.0277 -2.6210
  121OSM   C15F12879   0.819   2.237   9.209  0.3524  0.3199 -0.1856
  121OSM   H15F12880   0.776   2.331   9.250  1.1385  0.9352 -0.7401
  121OSM   H15G12881   0.777   2.157   9.274 -1.8250  1.1633 -0.4772
  121OSM   C16F12882   0.785   2.233   9.059 -0.0401  0.0940 -0.9346
  121OSM   H16F12883   0.838   2.150   9.007  0.0103  0.8099 -2.0581
  121OSM   H16G12884   0.823   2.333   9.029 -0.1554  1.7260  3.5951
  121OSM   C17F12885   0.630   2.225   9.036  0.4534 -0.4939  0.1715
  121OSM   H17F12886   0.572   2.292   9.103  0.0765  0.4314 -1.0377
  121OSM   H17G12887   0.596   2.125   9.070 -1.2374 -0.2291 -0.6059
  121OSM   C18F12888   0.588   2.243   8.891 -0.0586 -0.0610 -0.6007
  121OSM   H18F12889   0.478   2.223   8.886  0.0390 -0.4964 -1.0672
  121OSM   H18G12890   0.638   2.178   8.817  0.6169  0.6322 -0.7672
  121OSM   H18H12891   0.605   2.348   8.862 -0.0784  0.1216  0.0263
  122OSM      N12892   2.789   1.727  11.365 -0.5656 -0.0538 -0.2035
  122OSM    C1512893   2.800   1.599  11.284 -0.0325  0.0758 -0.2777
  122OSM   H15A12894   2.840   1.616  11.185 -0.0020 -0.9470 -0.4597
  122OSM   H15B12895   2.698   1.563  11.275  0.8013 -2.2843 -0.9562
  122OSM   H15C12896   2.867   1.526  11.327  2.1295  0.8724 -2.1503
  122OSM    C1412897   2.708   1.692  11.485 -0.6194  0.0739 -0.8894
  122OSM   H14A12898   2.679   1.779  11.543 -0.1467  0.3354 -1.0477
  122OSM   H14B12899   2.752   1.618  11.550  1.0496  2.9281  1.4628
  122OSM   H14C12900   2.616   1.649  11.448 -0.6767 -1.2154  0.6686
  122OSM    C1312901   2.934   1.763  11.404 -0.4100  0.0297  0.0324
  122OSM   H13A12902   2.990   1.678  11.439  1.4088  1.3774  0.5795
  122OSM   H13B12903   2.947   1.825  11.492 -2.2362 -0.8584  0.9814
  122OSM   H13C12904   2.980   1.800  11.314 -0.3869  0.2775  0.1440
  122OSM    C1212905   2.718   1.831  11.288 -0.1658 -0.0739 -0.5430
  122OSM   H12A12906   2.703   1.921  11.345  1.6211  1.0250 -1.7050
  122OSM   H12B12907   2.619   1.792  11.268 -1.9073  1.4285  3.9360
  122OSM    C1112908   2.784   1.868  11.156  0.0650  0.1574 -0.7453
  122OSM   H11A12909   2.715   1.931  11.096 -0.2557  0.6920  0.1642
  122OSM   H11B12910   2.791   1.774  11.098 -2.4623  0.8328 -2.2439
  122OSM      P12911   3.025   1.924  11.074 -0.2209 -0.4247 -0.2033
  122OSM    O1312912   3.121   2.037  11.085  0.0971  0.1442  0.1356
  122OSM    O1412913   3.084   1.792  11.099  0.1003  0.3822  0.2666
  122OSM    O1112914   2.954   1.936  10.931  1.0812  0.4125 -0.4660
  122OSM    O1212915   2.908   1.936  11.182 -0.2268  0.0351  0.4493
  122OSM    C1S12916   3.035   1.888  10.825  0.0504  0.8367  0.4077
  122OSM    H1S12917   3.038   1.777  10.835  0.3704  0.9635  1.8693
  122OSM    H1T12918   3.137   1.930  10.816 -0.1201  0.8241 -2.7264
  122OSM     NF12919   3.061   1.868  10.581 -0.3495 -0.3193  0.0923
  122OSM    HNF12920   3.101   1.931  10.515 -1.2770  0.2032  0.0074
  122OSM    C2S12921   2.978   1.915  10.689  0.4311 -0.1750  0.6111
  122OSM    H2S12922   2.887   1.851  10.688 -0.0382  0.4692 -1.3186
  122OSM    C3S12923   2.941   2.071  10.667  0.1321 -0.2870 -0.8351
  122OSM    H3S12924   3.042   2.115  10.647  0.3490  0.5146  1.7056
  122OSM     O312925   2.888   2.135  10.786  0.6050  0.4544 -0.0114
  122OSM    HO312926   2.931   2.089  10.859 -2.0503  1.1187  2.1298
  122OSM    C4S12927   2.850   2.099  10.549  0.6848  0.2817  0.0142
  122OSM    H4S12928   2.885   2.164  10.467 -0.9363 -0.5384 -1.3989
  122OSM    C5S12929   2.722   2.063  10.543  0.0040 -0.1019 -1.1628
  122OSM    H5S12930   2.674   2.001  10.621  0.9513 -1.8422 -1.8974
  122OSM    C6S12931   2.629   2.091  10.437  0.6937  0.3933 -0.2007
  122OSM    H6S12932   2.562   2.177  10.460 -0.7739 -0.5423 -0.8012
  122OSM    H6T12933   2.561   2.005  10.422 -0.9524  1.2693  1.8230
  122OSM    C7S12934   2.692   2.113  10.297 -0.0483 -0.2165  0.8931
  122OSM    H7S12935   2.780   2.047  10.284  1.7857  2.4301 -1.1942
  122OSM    H7T12936   2.744   2.211  10.295 -1.1109  0.3800  1.5330
  122OSM    C8S12937   2.585   2.088  10.184  1.0439  0.5328  0.2752
  122OSM    H8S12938   2.584   2.168  10.107 -2.0034 -0.8079 -1.2454
  122OSM    H8T12939   2.486   2.102  10.232 -0.0841 -2.9091 -0.7667
  122OSM    C9S12940   2.591   1.956  10.115 -0.3368 -0.6388 -0.0752
  122OSM    H9S12941   2.586   1.865  10.178  2.8611 -0.4676  0.5753
  122OSM    H9T12942   2.695   1.952  10.075  0.2355 -0.7052  1.3612
  122OSM   C10S12943   2.489   1.941  10.000 -0.2414  0.6566 -0.0728
  122OSM   H10S12944   2.507   2.021   9.925 -3.0210  0.5628 -0.9560
  122OSM   H10T12945   2.391   1.969  10.045 -1.2707 -2.4254 -0.1864
  122OSM   C11S12946   2.481   1.798   9.942  0.5037  0.6219 -0.4703
  122OSM   H11S12947   2.423   1.729  10.007  0.4111 -0.9293 -2.1349
  122OSM   H11T12948   2.585   1.761   9.949 -1.0151 -4.4463 -0.5142
  122OSM   C12S12949   2.418   1.800   9.805  0.7293  0.0576  0.2094
  122OSM   H12S12950   2.412   1.699   9.759  3.9138  1.0389 -2.7966
  122OSM   H12T12951   2.489   1.853   9.737  0.4201  0.5935  0.2982
  122OSM   C13S12952   2.275   1.866   9.798 -0.7929 -0.6379 -0.1056
  122OSM   H13S12953   2.282   1.976   9.806 -2.8732 -0.5460  1.2118
  122OSM   H13T12954   2.218   1.823   9.883  0.1328  0.9883  1.3853
  122OSM   C14S12955   2.207   1.826   9.667  0.6256 -0.0430  0.8441
  122OSM   H14S12956   2.120   1.892   9.653 -2.0640 -3.2225  1.2580
  122OSM   H14T12957   2.163   1.724   9.680  0.1476  0.2889  1.9810
  122OSM   C15S12958   2.289   1.826   9.534  0.8131 -0.6647  0.0963
  122OSM   H15S12959   2.222   1.788   9.453  2.9158 -0.2622 -1.9127
  122OSM   H15T12960   2.371   1.752   9.538 -0.3135 -2.0004 -0.4672
  122OSM   C16S12961   2.340   1.962   9.476 -0.0048  0.3822  1.0859
  122OSM   H16S12962   2.413   2.012   9.542 -0.9307  1.6494  1.1923
  122OSM   H16T12963   2.263   2.042   9.471  2.0437  2.3801 -1.4225
  122OSM   C17S12964   2.399   1.942   9.333  0.3731  0.3556 -0.0224
  122OSM   H17S12965   2.316   1.899   9.272  2.1135  0.3629 -2.5183
  122OSM   H17T12966   2.480   1.867   9.331 -0.1500 -0.2012 -1.7705
  122OSM   C18S12967   2.450   2.072   9.278 -0.7848 -0.7450  0.1901
  122OSM   H18S12968   2.535   2.115   9.335 -0.1755 -0.7612 -0.6980
  122OSM   H18T12969   2.365   2.141   9.297 -2.0656 -2.2241  0.0197
  122OSM   H18U12970   2.472   2.075   9.169 -0.8288  1.1345  0.1939
  122OSM    C1F12971   3.096   1.746  10.564  0.2576  0.8301 -0.2133
  122OSM     OF12972   3.044   1.654  10.630 -0.3399 -0.2351 -0.0981
  122OSM    C2F12973   3.199   1.725  10.454  0.5949 -0.2535  0.2615
  122OSM    H2F12974   3.300   1.749  10.494 -0.0945  0.4636  1.6542
  122OSM    H2G12975   3.178   1.791  10.368  0.2461 -0.4664  0.1816
  122OSM    C3F12976   3.202   1.571  10.410 -0.0109 -0.0513  0.8209
  122OSM    H3F12977   3.109   1.541  10.358 -0.4088  0.3317  1.2999
  122OSM    H3G12978   3.216   1.507  10.499  0.1677 -1.6200 -0.2993
  122OSM    C4F12979   3.320   1.552  10.313  1.1476 -0.2161  0.0836
  122OSM    H4F12980   3.420   1.560  10.359  0.7085 -0.6113  1.1290
  122OSM    H4G12981   3.321   1.616  10.222  1.3574 -0.9673 -0.4575
  122OSM    C5F12982   3.298   1.415  10.253  0.2116 -0.9707  0.3155
  122OSM    H5F12983   3.196   1.412  10.207  0.0790 -0.7277  0.5884
  122OSM    H5G12984   3.303   1.337  10.331 -0.6687 -1.1156  0.2384
  122OSM    C6F12985   3.390   1.391  10.132 -0.0652 -0.2708 -0.1676
  122OSM    H6F12986   3.497   1.373  10.157  0.4084 -1.3396 -2.6164
  122OSM    H6G12987   3.391   1.485  10.073  1.5987 -1.2289 -1.8115
  122OSM    C7F12988   3.344   1.261  10.041 -0.1533 -0.3653  0.3523
  122OSM    H7F12989   3.268   1.195  10.088  0.6020 -0.4242  1.5292
  122OSM    H7G12990   3.438   1.203  10.027  0.0285  0.1927 -0.8682
  122OSM    C8F12991   3.313   1.316   9.901 -0.3406  0.4796 -0.7285
  122OSM    H8F12992   3.228   1.386   9.916 -2.0801 -1.3809 -1.4876
  122OSM    H8G12993   3.263   1.233   9.846 -0.8972  0.0121  0.4639
  122OSM    C9F12994   3.432   1.370   9.830 -0.9809  0.6000 -0.2755
  122OSM    H9F12995   3.506   1.417   9.896 -1.7270  0.1684  0.9102
  122OSM   C10F12996   3.472   1.331   9.708 -0.0455 -0.6120 -0.9822
  122OSM   H10F12997   3.563   1.374   9.664 -1.7634  0.2844 -3.9899
  122OSM   C11F12998   3.398   1.248   9.615 -0.3280  0.3669  0.0229
  122OSM   H11F12999   3.441   1.270   9.514  0.3287 -0.5842  0.0824
  122OSM   H11G13000   3.291   1.276   9.611  0.0980  2.5434  2.0241
  122OSM   C12F13001   3.399   1.095   9.629  0.0946 -0.1290 -0.0247
  122OSM   H12F13002   3.332   1.055   9.708 -1.4527  1.3634 -0.5129
  122OSM   H12G13003   3.502   1.053   9.635 -0.7692 -2.1744  2.2544
  122OSM   C13F13004   3.344   1.037   9.493 -0.3819 -0.6973  0.0616
  122OSM   H13F13005   3.406   1.082   9.413  0.4465 -3.2104 -0.8133
  122OSM   H13G13006   3.237   1.068   9.490 -0.3723 -0.4098  1.8439
  122OSM   C14F13007   3.355   0.886   9.482 -0.3129 -0.3674  0.3168
  122OSM   H14F13008   3.283   0.870   9.400 -1.2651  3.1744  0.3149
  122OSM   H14G13009   3.333   0.838   9.580 -1.2791 -1.3149 -0.3539
  122OSM   C15F13010   3.493   0.831   9.447 -0.2185  0.3617  0.2856
  122OSM   H15F13011   3.562   0.850   9.533  1.1290 -2.1087 -0.1609
  122OSM   H15G13012   3.536   0.870   9.352  0.6960  0.6003  0.7783
  122OSM   C16F13013   3.488   0.681   9.418 -0.7365 -0.4582 -0.4571
  122OSM   H16F13014   3.456   0.630   9.511 -0.0693 -0.2213 -0.0864
  122OSM   H16G13015   3.592   0.645   9.402 -0.9397 -1.6357  0.7264
  122OSM   C17F13016   3.404   0.632   9.307  0.2271 -0.1838 -0.0051
  122OSM   H17F13017   3.295   0.645   9.326  0.6729 -0.4028  3.3292
  122OSM   H17G13018   3.410   0.522   9.295 -2.2714 -0.4703  0.9188
  122OSM   C18F13019   3.437   0.707   9.172 -0.3611  0.2108 -0.3073
  122OSM   H18F13020   3.545   0.685   9.164 -0.7528 -2.4761  0.7470
  122OSM   H18G13021   3.411   0.815   9.179 -1.0526  0.0472 -0.2177
  122OSM   H18H13022   3.379   0.670   9.085  1.3940 -1.9400 -0.6490
  123OSM      N13023   6.591   5.477   6.087  0.1491  0.1526  0.3702
  123OSM    C1513024   6.451   5.518   6.061  0.2130 -0.1189 -0.0437
  123OSM   H15A13025   6.417   5.481   5.965  0.5196  0.6140 -0.4481
  123OSM   H15B13026   6.446   5.626   6.061 -1.9757 -0.1745  0.3593
  123OSM   H15C13027   6.391   5.492   6.147  1.7491  1.0497  1.4478
  123OSM    C1413028   6.581   5.338   6.133 -0.3426 -0.3965  0.1724
  123OSM   H14A13029   6.672   5.293   6.170  0.3369 -1.4057 -2.4909
  123OSM   H14B13030   6.551   5.276   6.050 -0.1524 -0.5033  0.1823
  123OSM   H14C13031   6.505   5.311   6.205 -0.1379 -3.4204 -0.6117
  123OSM    C1313032   6.669   5.477   5.954  0.0470 -0.0886 -0.7515
  123OSM   H13A13033   6.760   5.422   5.971  0.2327  0.3402 -0.3416
  123OSM   H13B13034   6.694   5.576   5.918 -0.4159 -0.7642 -3.0668
  123OSM   H13C13035   6.609   5.425   5.881 -2.5779 -1.5705  2.2204
  123OSM    C1213036   6.654   5.568   6.190 -0.3313  0.4350  0.0135
  123OSM   H12A13037   6.655   5.669   6.151  0.0843  0.0998 -0.8844
  123OSM   H12B13038   6.761   5.553   6.197  0.5785  2.5841 -4.7171
  123OSM    C1113039   6.587   5.573   6.326 -0.1971 -0.0644 -0.4065
  123OSM   H11A13040   6.656   5.626   6.395 -0.5050  0.2792 -0.3588
  123OSM   H11B13041   6.588   5.469   6.365  0.1906  0.0433 -0.1268
  123OSM      P13042   6.399   5.769   6.335 -0.0255  0.4929  0.2806
  123OSM    O1313043   6.417   5.840   6.208  0.1955  0.1106  0.0428
  123OSM    O1413044   6.260   5.762   6.391 -0.2188 -0.1462  0.1664
  123OSM    O1113045   6.499   5.826   6.450  0.0321 -0.1622  0.9154
  123OSM    O1213046   6.455   5.623   6.320  0.6626  0.7497 -0.3874
  123OSM    C1S13047   6.513   5.965   6.455  0.1520  0.3257  0.0036
  123OSM    H1S13048   6.415   6.017   6.448 -1.3053 -2.3071 -0.8213
  123OSM    H1T13049   6.575   5.997   6.369 -0.3234 -0.3848 -0.6170
  123OSM     NF13050   6.567   6.149   6.597  0.3082  0.0133 -0.2374
  123OSM    HNF13051   6.633   6.208   6.552 -1.0343  2.3128  0.6419
  123OSM    C2S13052   6.580   6.005   6.586 -0.3445 -0.4445  0.5305
  123OSM    H2S13053   6.529   5.959   6.673  0.4789 -0.4025  1.0501
  123OSM    C3S13054   6.730   5.954   6.573 -0.2674 -0.0292 -0.5391
  123OSM    H3S13055   6.773   5.998   6.480  0.6618  1.1370  0.4185
  123OSM     O313056   6.737   5.808   6.573  0.8665  0.2329 -0.1901
  123OSM    HO313057   6.652   5.780   6.540 -0.3194  0.7944  2.1810
  123OSM    C4S13058   6.812   6.005   6.694 -0.3942 -0.4184 -0.6251
  123OSM    H4S13059   6.889   6.081   6.677 -0.1483 -0.3563  0.6592
  123OSM    C5S13060   6.798   5.965   6.818  0.4399  0.1749 -0.2930
  123OSM    H5S13061   6.738   5.876   6.843  0.3407  0.1527 -0.6059
  123OSM    C6S13062   6.872   6.011   6.936 -0.8273 -0.1141 -0.4091
  123OSM    H6S13063   6.921   6.107   6.914 -2.8273  1.4751  1.5844
  123OSM    H6T13064   6.943   5.938   6.980 -3.5727 -1.1766  2.7453
  123OSM    C7S13065   6.795   6.046   7.067  0.1688  0.5399  0.8766
  123OSM    H7S13066   6.721   5.966   7.092  1.0278 -1.3259 -2.0739
  123OSM    H7T13067   6.734   6.135   7.040  1.6317  2.3484  3.1831
  123OSM    C8S13068   6.875   6.081   7.188  0.4229 -0.2521  0.4967
  123OSM    H8S13069   6.942   6.168   7.169  1.0999 -1.2077 -1.7966
  123OSM    H8T13070   6.929   5.992   7.227  1.2690  0.6780  1.5382
  123OSM    C9S13071   6.773   6.119   7.296  0.0244 -0.0425 -0.0689
  123OSM    H9S13072   6.715   6.024   7.297  2.2153 -1.4811 -0.0859
  123OSM    H9T13073   6.723   6.206   7.250 -1.8822 -1.9492 -1.7838
  123OSM   C10S13074   6.836   6.153   7.438  0.0695 -0.1227 -0.6763
  123OSM   H10S13075   6.897   6.244   7.421  0.5290 -0.5975 -1.6579
  123OSM   H10T13076   6.901   6.068   7.469 -0.0323  0.0025 -0.1087
  123OSM   C11S13077   6.734   6.173   7.556 -0.0687  0.1179  0.3614
  123OSM   H11S13078   6.699   6.069   7.576 -0.2005  0.6613  3.4024
  123OSM   H11T13079   6.662   6.253   7.528  1.8573  1.5741 -0.6704
  123OSM   C12S13080   6.797   6.209   7.687  0.3757 -1.3216 -0.0011
  123OSM   H12S13081   6.828   6.313   7.708 -1.2913 -1.0241  1.2725
  123OSM   H12T13082   6.889   6.147   7.697  2.8797  2.3696  2.2137
  123OSM   C13S13083   6.710   6.167   7.808  0.2039 -0.4017  0.4270
  123OSM   H13S13084   6.689   6.058   7.806 -1.5438 -0.1042  0.7833
  123OSM   H13T13085   6.617   6.229   7.803  0.1012 -0.6281 -0.6282
  123OSM   C14S13086   6.769   6.192   7.948 -0.3202  0.4128 -0.4612
  123OSM   H14S13087   6.766   6.301   7.967  1.1447  0.3318  0.4215
  123OSM   H14T13088   6.879   6.177   7.944  0.1243  3.1689 -0.6551
  123OSM   C15S13089   6.702   6.113   8.065 -0.6032  0.0670 -0.0886
  123OSM   H15S13090   6.712   6.008   8.030  0.6623 -0.0920  0.6815
  123OSM   H15T13091   6.593   6.136   8.063 -0.4700  0.7323 -2.0030
  123OSM   C16S13092   6.780   6.142   8.191  0.3338 -0.0981 -0.9452
  123OSM   H16S13093   6.772   6.245   8.233  0.5226 -1.0535  1.6077
  123OSM   H16T13094   6.887   6.117   8.172  0.5853  0.3804 -0.2334
  123OSM   C17S13095   6.737   6.052   8.312  0.0810 -0.1692 -0.3574
  123OSM   H17S13096   6.759   5.947   8.282  0.5951 -0.0351 -0.4623
  123OSM   H17T13097   6.628   6.060   8.333 -0.6751 -1.5032 -3.1640
  123OSM   C18S13098   6.811   6.083   8.441 -0.2287  0.0555 -0.3980
  123OSM   H18S13099   6.795   6.191   8.465 -0.8196 -0.2112  0.4526
  123OSM   H18T13100   6.919   6.060   8.428 -0.3260 -0.4562 -0.3223
  123OSM   H18U13101   6.774   6.031   8.532  0.3103  4.2607  2.5185
  123OSM    C1F13102   6.449   6.202   6.641  0.3750 -0.2173  0.4800
  123OSM     OF13103   6.357   6.128   6.671 -0.1055 -0.2342  0.5397
  123OSM    C2F13104   6.434   6.352   6.627  0.0183  0.1706 -0.1298
  123OSM    H2F13105   6.342   6.379   6.572  0.3821  2.4492  0.2920
  123OSM    H2G13106   6.518   6.391   6.565  1.6406 -2.8682 -0.0401
  123OSM    C3F13107   6.419   6.424   6.759 -0.1637  0.7359  0.0408
  123OSM    H3F13108   6.319   6.393   6.797  0.4519  0.4874  1.5222
  123OSM    H3G13109   6.403   6.532   6.738 -1.9949  0.6933  1.0265
  123OSM    C4F13110   6.511   6.389   6.873 -0.4425 -0.4588  0.5322
  123OSM    H4F13111   6.620   6.390   6.853 -0.5479  2.0831 -0.2418
  123OSM    H4G13112   6.479   6.289   6.908 -0.9791 -0.9118 -1.1173
  123OSM    C5F13113   6.484   6.489   6.978 -0.2891 -0.0830 -0.2267
  123OSM    H5F13114   6.383   6.531   6.960 -0.6876 -1.5554 -1.6012
  123OSM    H5G13115   6.560   6.570   6.971 -0.2498 -0.1672 -0.8008
  123OSM    C6F13116   6.494   6.432   7.115  0.2663  0.7158 -0.8192
  123OSM    H6F13117   6.572   6.354   7.106  0.5356  1.0355 -1.3324
  123OSM    H6G13118   6.396   6.384   7.135  1.4285 -1.0606  0.8925
  123OSM    C7F13119   6.512   6.539   7.222 -0.7526 -0.1603  0.1189
  123OSM    H7F13120   6.439   6.618   7.193  0.1297  0.2184 -1.1095
  123OSM    H7G13121   6.612   6.586   7.231 -1.1244  0.8282 -0.6801
  123OSM    C8F13122   6.459   6.497   7.363 -0.0075 -0.3772  0.3136
  123OSM    H8F13123   6.535   6.433   7.411 -1.1045 -1.7553  0.2791
  123OSM    H8G13124   6.367   6.437   7.343  0.2056  0.0311 -2.2075
  123OSM    C9F13125   6.444   6.614   7.456  0.1471  0.3483 -0.4904
  123OSM    H9F13126   6.356   6.674   7.428 -1.4258 -0.5626  2.1561
  123OSM   C10F13127   6.515   6.638   7.573 -0.2542  0.6364  0.6144
  123OSM   H10F13128   6.486   6.725   7.633 -0.8396 -0.0724  1.3769
  123OSM   C11F13129   6.631   6.562   7.630 -0.6888  0.3168  0.3241
  123OSM   H11F13130   6.721   6.624   7.651  0.9257 -2.1523  1.2173
  123OSM   H11G13131   6.675   6.477   7.573 -2.2948 -1.0193  0.9955
  123OSM   C12F13132   6.595   6.502   7.771 -0.5141 -0.8145 -0.3061
  123OSM   H12F13133   6.675   6.436   7.809 -0.3286 -0.7907 -0.6549
  123OSM   H12G13134   6.503   6.439   7.777 -0.1332 -1.2723  1.3269
  123OSM   C13F13135   6.572   6.624   7.862 -0.7289  0.5562  0.0021
  123OSM   H13F13136   6.475   6.676   7.850 -0.6464  0.6625 -0.2231
  123OSM   H13G13137   6.653   6.700   7.849  0.1843 -0.3623  0.1600
  123OSM   C14F13138   6.591   6.579   8.003  0.7727 -0.5282 -0.4844
  123OSM   H14F13139   6.684   6.521   8.020 -0.4618 -2.0531  1.5531
  123OSM   H14G13140   6.499   6.520   8.026  0.4013 -1.0646 -3.0379
  123OSM   C15F13141   6.601   6.703   8.095  0.5310 -0.3049  0.2881
  123OSM   H15F13142   6.500   6.749   8.100  0.7978  0.3315 -0.0152
  123OSM   H15G13143   6.664   6.785   8.055  0.1887  1.1213  2.5143
  123OSM   C16F13144   6.649   6.676   8.232 -0.0485  0.0938 -0.4826
  123OSM   H16F13145   6.752   6.634   8.229 -0.0768  0.0596 -1.9429
  123OSM   H16G13146   6.580   6.608   8.286  1.5536  1.1963  3.2776
  123OSM   C17F13147   6.661   6.801   8.324 -0.0692  0.6439  0.1425
  123OSM   H17F13148   6.696   6.888   8.265 -0.8042  0.0428 -1.2226
  123OSM   H17G13149   6.740   6.784   8.400 -1.2819  1.4745  1.6611
  123OSM   C18F13150   6.533   6.844   8.395  0.5877  0.0738 -0.2091
  123OSM   H18F13151   6.461   6.762   8.412 -1.1005  1.8282  1.6649
  123OSM   H18G13152   6.478   6.917   8.332  0.0905 -1.8184 -2.0475
  123OSM   H18H13153   6.556   6.907   8.484  0.6305  0.2662 -0.3547
  124OSM      N13154   2.015   3.478   6.284 -0.7162  0.1623  0.6767
  124OSM    C1513155   1.888   3.424   6.223  0.0986  0.2900  0.5142
  124OSM   H15A13156   1.807   3.438   6.293  2.4255  1.3184  3.1864
  124OSM   H15B13157   1.900   3.319   6.198 -1.2516  0.4567 -0.9634
  124OSM   H15C13158   1.854   3.475   6.135 -1.4056 -0.7819  0.4371
  124OSM    C1413159   2.045   3.387   6.397 -0.2257 -0.2641  0.6686
  124OSM   H14A13160   2.141   3.411   6.439  0.4660 -0.9099 -0.4816
  124OSM   H14B13161   2.057   3.285   6.365 -1.7040 -0.6672  1.3007
  124OSM   H14C13162   1.966   3.396   6.470 -0.0991 -0.5935  0.8428
  124OSM    C1313163   2.122   3.466   6.177  0.3417  0.5180  0.3247
  124OSM   H13A13164   2.221   3.490   6.213 -0.0889  3.3513 -0.1763
  124OSM   H13B13165   2.093   3.535   6.099  0.4932 -0.7194 -0.8567
  124OSM   H13C13166   2.118   3.369   6.129  1.2909  1.6268 -2.1721
  124OSM    C1213167   1.987   3.616   6.337  0.3782 -0.1177 -0.2613
  124OSM   H12A13168   1.985   3.693   6.262  1.4291  2.3160  2.0600
  124OSM   H12B13169   2.069   3.645   6.401 -1.3751 -0.9169  2.5651
  124OSM    C1113170   1.858   3.636   6.419  0.0344  0.1919  0.2876
  124OSM   H11A13171   1.865   3.739   6.462 -2.3385  0.8729 -0.7978
  124OSM   H11B13172   1.854   3.585   6.518  0.3971 -0.3680  0.0137
  124OSM      P13173   1.596   3.574   6.413  0.0313  0.4622 -0.2445
  124OSM    O1313174   1.482   3.666   6.396  0.7173  0.3581 -0.0052
  124OSM    O1413175   1.579   3.445   6.345 -0.2623  0.0730  0.0690
  124OSM    O1113176   1.615   3.537   6.570 -0.7674  0.6891 -0.3368
  124OSM    O1213177   1.731   3.631   6.360 -0.0376 -0.2639 -0.3698
  124OSM    C1S13178   1.504   3.501   6.651  0.4228 -0.7895 -0.0347
  124OSM    H1S13179   1.444   3.426   6.596 -2.6810  1.7027 -0.3491
  124OSM    H1T13180   1.434   3.586   6.666  1.2262 -0.1766  0.3624
  124OSM     NF13181   1.444   3.411   6.875 -0.6151 -0.1290  0.3661
  124OSM    HNF13182   1.445   3.456   6.964 -1.7971 -0.2416  0.4544
  124OSM    C2S13183   1.556   3.439   6.784 -0.1396 -0.0037 -0.2295
  124OSM    H2S13184   1.601   3.345   6.747 -1.2054  0.8264 -4.0691
  124OSM    C3S13185   1.661   3.526   6.863  0.1929  0.2019  0.6093
  124OSM    H3S13186   1.602   3.604   6.917  0.9922  0.8310  0.5894
  124OSM     O313187   1.756   3.598   6.786 -0.1303 -0.3356  0.0222
  124OSM    HO313188   1.715   3.595   6.699 -0.1178  0.1032 -0.0007
  124OSM    C4S13189   1.717   3.441   6.978  0.6754 -0.2567  0.4019
  124OSM    H4S13190   1.672   3.447   7.078  1.8035 -1.9715  1.0620
  124OSM    C5S13191   1.828   3.360   6.975  0.5225  0.0556  0.1589
  124OSM    H5S13192   1.869   3.348   6.874 -0.5344 -1.9508 -0.0802
  124OSM    C6S13193   1.886   3.282   7.087  0.0842  0.6012 -0.4203
  124OSM    H6S13194   1.996   3.271   7.090  0.1783  0.5461 -2.4284
  124OSM    H6T13195   1.843   3.179   7.086 -3.6310  1.9900 -1.4504
  124OSM    C7S13196   1.847   3.337   7.232 -0.6108 -0.3902  0.3507
  124OSM    H7S13197   1.739   3.327   7.257 -0.4864  0.2205  1.1793
  124OSM    H7T13198   1.874   3.445   7.239  0.6280 -0.7100  0.6580
  124OSM    C8S13199   1.917   3.251   7.342 -0.6006  0.1128  0.3782
  124OSM    H8S13200   2.026   3.264   7.324 -0.7752  2.1583  0.4965
  124OSM    H8T13201   1.905   3.142   7.327  1.9752 -0.5304  2.3546
  124OSM    C9S13202   1.872   3.309   7.473  0.1005 -0.4794 -0.2491
  124OSM    H9S13203   1.770   3.279   7.502  1.1368 -3.0673  1.0529
  124OSM    H9T13204   1.898   3.417   7.478  2.1108 -0.9812  1.5570
  124OSM   C10S13205   1.959   3.242   7.579  0.3917  0.0366 -0.6713
  124OSM   H10S13206   2.065   3.275   7.578  1.4446 -3.0062 -1.0569
  124OSM   H10T13207   1.953   3.132   7.563  2.8182 -0.3347  0.5366
  124OSM   C11S13208   1.920   3.258   7.730 -1.2347 -0.1382  0.3640
  124OSM   H11S13209   1.891   3.158   7.769  1.3650 -1.3617 -0.5142
  124OSM   H11T13210   1.828   3.319   7.735 -1.0074  0.2996 -0.5462
  124OSM   C12S13211   2.029   3.317   7.822 -0.5610 -0.1518 -0.3509
  124OSM   H12S13212   2.090   3.399   7.778  0.5242 -0.5243  0.4068
  124OSM   H12T13213   2.108   3.242   7.843 -0.3957 -0.6128 -2.3910
  124OSM   C13S13214   1.971   3.368   7.953 -0.1191  0.2079 -0.4968
  124OSM   H13S13215   1.927   3.281   8.005 -1.0121  0.1185 -1.3658
  124OSM   H13T13216   1.891   3.446   7.948  1.0475  1.5983  1.2452
  124OSM   C14S13217   2.074   3.439   8.028 -0.6053  1.1412 -0.5986
  124OSM   H14S13218   2.129   3.509   7.961 -1.1746  0.5743 -1.7002
  124OSM   H14T13219   2.143   3.357   8.058 -1.0378  1.9129  2.8500
  124OSM   C15S13220   2.032   3.508   8.153  0.3828 -0.6890 -0.2873
  124OSM   H15S13221   1.940   3.466   8.200  1.3098 -1.8877  0.5140
  124OSM   H15T13222   2.001   3.612   8.131  0.3522 -1.0179 -1.9243
  124OSM   C16S13223   2.146   3.518   8.259  0.1332  0.4260  0.4641
  124OSM   H16S13224   2.231   3.583   8.227 -0.2561 -1.0278 -4.1727
  124OSM   H16T13225   2.195   3.418   8.264 -1.0297 -0.1601  0.5987
  124OSM   C17S13226   2.089   3.545   8.400 -0.1332 -0.9867 -0.5043
  124OSM   H17S13227   2.012   3.466   8.413 -0.7504 -0.1517  1.2101
  124OSM   H17T13228   2.033   3.640   8.396  1.2017 -0.1946 -0.8925
  124OSM   C18S13229   2.197   3.552   8.514 -0.0540 -0.3270 -0.3632
  124OSM   H18S13230   2.150   3.591   8.607 -0.7823 -0.8346 -0.5115
  124OSM   H18T13231   2.275   3.620   8.474  1.8481 -3.2083 -1.9236
  124OSM   H18U13232   2.247   3.455   8.537 -0.4598 -0.0951  1.7583
  124OSM    C1F13233   1.355   3.323   6.850 -0.1726  0.1203 -0.2746
  124OSM     OF13234   1.358   3.248   6.747  0.6340  0.4057 -0.1039
  124OSM    C2F13235   1.244   3.324   6.949  0.0755  0.2780 -0.8196
  124OSM    H2F13236   1.162   3.282   6.888 -0.9239  1.5441 -0.3841
  124OSM    H2G13237   1.221   3.425   6.989 -3.4999 -0.8123  0.2029
  124OSM    C3F13238   1.272   3.225   7.073  0.7059  0.1196 -0.2875
  124OSM    H3F13239   1.364   3.254   7.130  0.2696 -0.7775  0.9179
  124OSM    H3G13240   1.286   3.123   7.032 -0.1906  0.4283 -1.3976
  124OSM    C4F13241   1.154   3.214   7.172 -0.2693 -0.2361 -0.0121
  124OSM    H4F13242   1.063   3.167   7.129 -3.5131  3.1231  2.5111
  124OSM    H4G13243   1.118   3.314   7.204  1.3068  0.4836 -0.4312
  124OSM    C5F13244   1.170   3.126   7.297  0.2485 -0.4435 -0.6598
  124OSM    H5F13245   1.264   3.154   7.349  1.5186 -1.7986 -2.1269
  124OSM    H5G13246   1.185   3.024   7.254  2.0763 -0.9248  0.9770
  124OSM    C6F13247   1.048   3.126   7.394 -0.4957 -0.9890  0.1357
  124OSM    H6F13248   0.962   3.108   7.326 -0.0253  2.5069 -1.6165
  124OSM    H6G13249   1.048   3.230   7.433  2.1614 -0.7748 -0.2542
  124OSM    C7F13250   1.049   3.025   7.512  0.2002 -0.0731 -0.2857
  124OSM    H7F13251   1.156   3.026   7.544 -0.1851  0.6135  1.0421
  124OSM    H7G13252   1.017   2.927   7.469  1.9156 -0.9781  0.3942
  124OSM    C8F13253   0.970   3.070   7.637 -0.2363 -0.2627 -0.2815
  124OSM    H8F13254   0.882   3.125   7.599  0.3306  1.9818  1.4000
  124OSM    H8G13255   1.026   3.147   7.695 -0.5019 -0.0927 -0.2507
  124OSM    C9F13256   0.935   2.949   7.715 -0.3627  0.3423 -0.0351
  124OSM    H9F13257   0.881   2.877   7.652  1.2945 -1.0790  0.0549
  124OSM   C10F13258   0.982   2.916   7.837  0.5692  0.3945  0.0784
  124OSM   H10F13259   0.951   2.827   7.894 -1.2123  1.7954  1.4363
  124OSM   C11F13260   1.061   3.003   7.932  0.2358 -0.0232  0.4852
  124OSM   H11F13261   1.043   3.112   7.941  3.5144  0.5704  0.9840
  124OSM   H11G13262   1.170   2.999   7.912 -0.2475 -0.8352 -2.4786
  124OSM   C12F13263   1.034   2.950   8.076 -0.9178  0.3787 -0.2186
  124OSM   H12F13264   1.114   2.994   8.140 -0.4932 -0.8725  0.1533
  124OSM   H12G13265   1.056   2.841   8.085 -0.8076  0.3299 -1.0504
  124OSM   C13F13266   0.899   2.979   8.141 -0.2757  0.5422  0.3954
  124OSM   H13F13267   0.822   2.914   8.093  0.3107 -0.5377  0.8586
  124OSM   H13G13268   0.874   3.085   8.122 -2.0759  0.3445  1.3797
  124OSM   C14F13269   0.903   2.935   8.294 -0.5754  0.3816  0.3382
  124OSM   H14F13270   0.995   2.970   8.345 -1.0062  2.7975 -0.4182
  124OSM   H14G13271   0.896   2.824   8.291  1.1025  0.2426  0.6568
  124OSM   C15F13272   0.781   2.987   8.368  0.7439  0.1022  0.0911
  124OSM   H15F13273   0.700   2.930   8.318 -1.5978  3.4580 -0.3228
  124OSM   H15G13274   0.760   3.094   8.345 -4.7378 -0.5803  0.4363
  124OSM   C16F13275   0.786   2.962   8.524 -0.1274  0.5453 -0.0152
  124OSM   H16F13276   0.804   2.853   8.538 -1.9834  0.1718 -0.3393
  124OSM   H16G13277   0.686   2.977   8.570 -0.6197  0.0099 -0.8848
  124OSM   C17F13278   0.901   3.034   8.603 -0.4576 -0.8240  0.6093
  124OSM   H17F13279   0.932   3.116   8.536 -2.9253 -1.3801 -1.4005
  124OSM   H17G13280   0.988   2.966   8.615  0.3914  0.2798  0.8897
  124OSM   C18F13281   0.858   3.101   8.727  0.3709 -0.0464 -0.1358
  124OSM   H18F13282   0.814   3.043   8.811  0.3049 -1.5595 -1.1774
  124OSM   H18G13283   0.781   3.178   8.705 -1.0820  0.2684  4.7966
  124OSM   H18H13284   0.946   3.158   8.763  0.5760 -0.2312 -0.3382
  125OSM      N13285   3.471   5.224   6.263  0.1514  0.2019 -0.2286
  125OSM    C1513286   3.587   5.128   6.262  0.0522 -0.0105 -0.2406
  125OSM   H15A13287   3.625   5.121   6.162  1.2148  1.8377  0.0193
  125OSM   H15B13288   3.555   5.030   6.293 -0.4233  0.6818  1.6598
  125OSM   H15C13289   3.659   5.160   6.336  2.7895 -1.5193 -2.1216
  125OSM    C1413290   3.432   5.237   6.404  0.4580  0.1826 -0.3130
  125OSM   H14A13291   3.351   5.308   6.408 -2.6660 -2.8989 -2.6972
  125OSM   H14B13292   3.515   5.266   6.466  1.2566 -0.0158 -1.2619
  125OSM   H14C13293   3.391   5.146   6.444 -1.9306  0.1918 -2.4658
  125OSM    C1313294   3.513   5.358   6.209  0.0544  0.1633  0.7656
  125OSM   H13A13295   3.437   5.432   6.230 -0.5391 -0.4075  0.6805
  125OSM   H13B13296   3.523   5.367   6.102 -2.1691  2.8600  0.6851
  125OSM   H13C13297   3.606   5.383   6.258  0.1267 -1.4212  1.5213
  125OSM    C1213298   3.359   5.184   6.177  0.7609 -1.0405  0.3692
  125OSM   H12A13299   3.338   5.079   6.191  0.1949 -0.7202  2.2231
  125OSM   H12B13300   3.377   5.196   6.071 -0.2701 -0.5982  0.2346
  125OSM    C1113301   3.226   5.264   6.196 -0.0281  0.3428 -0.7415
  125OSM   H11A13302   3.165   5.263   6.103 -0.0109  0.2725 -0.7527
  125OSM   H11B13303   3.239   5.375   6.194 -2.3485  0.6766 -3.2401
  125OSM      P13304   3.089   5.081   6.302  0.6372  0.1481 -0.2326
  125OSM    O1313305   2.967   5.086   6.224 -0.0171 -0.5751 -0.1225
  125OSM    O1413306   3.189   4.980   6.275 -0.1517  0.0637  0.4759
  125OSM    O1113307   3.047   5.057   6.454 -0.0641 -0.4388 -0.0414
  125OSM    O1213308   3.149   5.220   6.310 -0.7821  0.4501 -0.2506
  125OSM    C1S13309   3.135   5.059   6.562 -0.4245 -0.4546 -0.2692
  125OSM    H1S13310   3.228   5.115   6.539 -0.3794  0.1503  1.2613
  125OSM    H1T13311   3.162   4.955   6.593 -1.4999 -1.0494 -1.2514
  125OSM     NF13312   3.155   5.154   6.805  0.1322 -0.1876  0.1114
  125OSM    HNF13313   3.173   5.100   6.887 -2.2031  0.3138  1.0135
  125OSM    C2S13314   3.064   5.110   6.697 -0.1642  0.4241  0.3222
  125OSM    H2S13315   3.001   5.199   6.673 -0.7589  0.3882  1.6387
  125OSM    C3S13316   2.962   4.998   6.741 -0.2857 -0.2504  0.0710
  125OSM    H3S13317   3.035   4.924   6.778  0.1510  0.0997 -0.0833
  125OSM     O313318   2.882   4.939   6.632 -0.2148  0.1081  0.5299
  125OSM    HO313319   2.891   4.996   6.556 -0.6909 -1.3793 -0.7043
  125OSM    C4S13320   2.876   5.037   6.858  0.8104 -0.5201 -0.2338
  125OSM    H4S13321   2.909   4.990   6.952 -1.6782  0.3298  1.1518
  125OSM    C5S13322   2.761   5.105   6.857  0.0263 -0.0116 -0.4651
  125OSM    H5S13323   2.703   5.129   6.767 -2.1531  2.7390  1.4901
  125OSM    C6S13324   2.685   5.133   6.989  0.3762  0.2591  0.3676
  125OSM    H6S13325   2.583   5.101   6.958  1.3835 -0.9512 -2.0174
  125OSM    H6T13326   2.662   5.242   6.992 -0.1622  0.3882 -3.4111
  125OSM    C7S13327   2.734   5.067   7.117 -0.0864  0.4860 -0.3086
  125OSM    H7S13328   2.843   5.087   7.121 -0.1411  0.9745 -1.0168
  125OSM    H7T13329   2.734   4.956   7.119  0.1355  0.4751  1.8364
  125OSM    C8S13330   2.656   5.119   7.237  0.0730  0.0982 -0.8103
  125OSM    H8S13331   2.549   5.128   7.209  0.2952  1.6572 -1.2761
  125OSM    H8T13332   2.692   5.221   7.263 -0.4943  0.3231 -0.8953
  125OSM    C9S13333   2.668   5.027   7.355  0.2502  0.1259  0.1688
  125OSM    H9S13334   2.771   5.004   7.387  0.7097 -0.1444 -1.4114
  125OSM    H9T13335   2.618   4.932   7.326  0.5658  0.1560 -0.4791
  125OSM   C10S13336   2.594   5.089   7.473  0.4853 -0.2742 -0.0740
  125OSM   H10S13337   2.493   5.114   7.434  0.8980 -0.8176 -1.5620
  125OSM   H10T13338   2.642   5.188   7.493  2.3888 -1.3245  0.8023
  125OSM   C11S13339   2.584   5.002   7.595 -0.0906 -0.1242  0.4015
  125OSM   H11S13340   2.686   4.961   7.613  0.2342  0.3495 -0.2908
  125OSM   H11T13341   2.525   4.915   7.561  0.6777 -0.3173 -0.4725
  125OSM   C12S13342   2.525   5.065   7.720  0.5422  0.4151 -0.5295
  125OSM   H12S13343   2.428   5.107   7.689 -0.1243 -0.9097 -0.3268
  125OSM   H12T13344   2.598   5.133   7.769  2.0653 -0.3979 -1.5677
  125OSM   C13S13345   2.485   4.961   7.827  0.1804  0.4864  1.0749
  125OSM   H13S13346   2.571   4.905   7.871 -1.7984 -1.7011  2.3998
  125OSM   H13T13347   2.435   4.879   7.771 -0.2786  1.0745  0.6229
  125OSM   C14S13348   2.378   5.008   7.924 -0.4454  0.0901 -0.5478
  125OSM   H14S13349   2.317   4.928   7.970  0.3800  0.3807  1.1383
  125OSM   H14T13350   2.296   5.061   7.870 -1.3252 -0.4914  0.1966
  125OSM   C15S13351   2.435   5.109   8.028 -0.4228 -0.5396 -0.2192
  125OSM   H15S13352   2.354   5.170   8.073 -1.1435 -0.5155 -1.4909
  125OSM   H15T13353   2.490   5.188   7.973 -1.5912  0.4330 -0.0395
  125OSM   C16S13354   2.536   5.044   8.135  0.4600 -0.2262  0.1685
  125OSM   H16S13355   2.633   5.059   8.083  0.9040  1.3040  1.3882
  125OSM   H16T13356   2.498   4.941   8.154  0.4964 -0.2457  0.1314
  125OSM   C17S13357   2.524   5.121   8.272 -0.5312 -0.0129 -0.0376
  125OSM   H17S13358   2.429   5.091   8.321 -1.1461 -0.1137 -1.2621
  125OSM   H17T13359   2.512   5.230   8.251 -3.5071 -0.4659 -1.1663
  125OSM   C18S13360   2.643   5.102   8.363 -0.1156  0.4414 -0.0975
  125OSM   H18S13361   2.610   5.148   8.459 -2.5593 -1.0785 -0.1301
  125OSM   H18T13362   2.736   5.140   8.314 -0.5252 -0.4181 -1.5864
  125OSM   H18U13363   2.652   4.994   8.386 -1.1697  0.7194  1.8797
  125OSM    C1F13364   3.244   5.254   6.785 -0.2346  0.1790 -0.0215
  125OSM     OF13365   3.229   5.341   6.700  0.3176  0.8060 -0.1265
  125OSM    C2F13366   3.371   5.239   6.872 -0.3936  0.5535 -0.3453
  125OSM    H2F13367   3.418   5.144   6.841  0.6787  0.4786  1.3617
  125OSM    H2G13368   3.333   5.233   6.976  1.7569  2.1637  0.6205
  125OSM    C3F13369   3.476   5.349   6.859 -0.4639 -0.3572  0.6355
  125OSM    H3F13370   3.427   5.436   6.908 -0.9695 -0.1904 -0.1481
  125OSM    H3G13371   3.495   5.369   6.751 -2.5951 -2.1847 -0.1458
  125OSM    C4F13372   3.608   5.318   6.928 -0.0958 -0.3037 -0.1592
  125OSM    H4F13373   3.684   5.390   6.891  0.1840  0.6000  2.0316
  125OSM    H4G13374   3.632   5.214   6.897  1.5566  0.2744 -0.9501
  125OSM    C5F13375   3.600   5.324   7.075  0.5455 -0.3021 -0.6729
  125OSM    H5F13376   3.522   5.257   7.118  1.6311 -1.5704 -0.6059
  125OSM    H5G13377   3.569   5.426   7.104  1.7894 -0.6781  2.4740
  125OSM    C6F13378   3.735   5.277   7.133  1.0411 -0.8408  0.3490
  125OSM    H6F13379   3.814   5.322   7.070 -0.1516 -0.4636 -0.9430
  125OSM    H6G13380   3.746   5.168   7.114  0.3868 -0.9084  0.3172
  125OSM    C7F13381   3.759   5.304   7.287  0.1644  0.3690 -0.8964
  125OSM    H7F13382   3.752   5.412   7.312 -3.3916 -0.3539  2.0324
  125OSM    H7G13383   3.862   5.276   7.318 -0.3525  0.0946  0.6627
  125OSM    C8F13384   3.653   5.234   7.380  0.7754  0.3752  0.1747
  125OSM    H8F13385   3.613   5.153   7.315  0.0867 -0.3962  1.5256
  125OSM    H8G13386   3.567   5.304   7.373  0.3430 -0.1841 -0.1666
  125OSM    C9F13387   3.688   5.186   7.515 -0.1552  0.1099  0.4792
  125OSM    H9F13388   3.707   5.078   7.520 -0.0934  0.1777  2.0127
  125OSM   C10F13389   3.680   5.257   7.631 -0.0565 -0.0640  0.0349
  125OSM   H10F13390   3.713   5.204   7.722  0.3703  0.2556  0.0686
  125OSM   C11F13391   3.640   5.399   7.642 -0.4595 -0.0478  0.4869
  125OSM   H11F13392   3.649   5.446   7.542  0.4784 -3.1832 -1.0337
  125OSM   H11G13393   3.711   5.462   7.700  0.9042 -0.9010 -0.2061
  125OSM   C12F13394   3.504   5.398   7.712 -0.3771 -0.2841 -0.2112
  125OSM   H12F13395   3.430   5.330   7.664  1.0309 -1.9630 -0.1216
  125OSM   H12G13396   3.450   5.495   7.706 -2.9759 -1.5797  0.5411
  125OSM   C13F13397   3.520   5.362   7.864 -0.0281 -0.0428  0.3328
  125OSM   H13F13398   3.603   5.416   7.916 -0.1007  0.8631 -0.4613
  125OSM   H13G13399   3.537   5.253   7.868 -0.4359 -0.4083 -3.9092
  125OSM   C14F13400   3.387   5.388   7.946 -0.3295  0.2633  0.0032
  125OSM   H14F13401   3.384   5.327   8.039 -0.4565  1.2222  0.6465
  125OSM   H14G13402   3.303   5.356   7.881 -0.3767 -2.2808  1.1861
  125OSM   C15F13403   3.358   5.526   7.995  0.4697  0.0688 -0.0937
  125OSM   H15F13404   3.369   5.603   7.915 -2.0763 -0.0817 -0.6653
  125OSM   H15G13405   3.439   5.542   8.069  0.1220 -0.4009  0.3926
  125OSM   C16F13406   3.221   5.535   8.064 -0.5175  0.5007  0.2669
  125OSM   H16F13407   3.199   5.451   8.133 -3.0827 -0.0463 -1.0953
  125OSM   H16G13408   3.140   5.522   7.989  0.4095 -0.6698 -0.5593
  125OSM   C17F13409   3.204   5.670   8.138  0.2450  0.2467 -0.3107
  125OSM   H17F13410   3.105   5.671   8.188 -0.1721 -0.9886 -1.0716
  125OSM   H17G13411   3.218   5.756   8.069  0.0600 -0.4646 -1.2560
  125OSM   C18F13412   3.302   5.699   8.257 -0.1484 -0.1986 -0.4932
  125OSM   H18F13413   3.308   5.607   8.320  0.4136 -0.4754 -0.9417
  125OSM   H18G13414   3.295   5.789   8.322  0.5713  0.2232 -0.9857
  125OSM   H18H13415   3.404   5.710   8.215  0.2654  0.5760  0.6532
  126OSM      N13416   5.553   5.501   6.612 -0.8915 -0.4639  0.3971
  126OSM    C1513417   5.543   5.353   6.584  0.5700  0.0247  0.1491
  126OSM   H15A13418   5.442   5.329   6.553 -0.1618  0.2350  2.1736
  126OSM   H15B13419   5.555   5.292   6.673 -0.4062 -0.5947 -0.1304
  126OSM   H15C13420   5.609   5.327   6.503 -1.1522 -0.6827 -1.0719
  126OSM    C1413421   5.497   5.590   6.509  0.5809  0.9549  0.1445
  126OSM   H14A13422   5.511   5.694   6.535  3.7784  0.5362  0.4267
  126OSM   H14B13423   5.390   5.579   6.516  0.3323  3.0373  0.3904
  126OSM   H14C13424   5.528   5.574   6.407 -3.0598 -0.2342 -0.9491
  126OSM    C1313425   5.468   5.533   6.731 -0.6303 -0.1528  0.2816
  126OSM   H13A13426   5.471   5.639   6.751  1.6617 -0.2904  0.8912
  126OSM   H13B13427   5.503   5.472   6.813 -0.9953  0.9158  1.2615
  126OSM   H13C13428   5.367   5.505   6.702 -0.9268  2.0202 -0.9683
  126OSM    C1213429   5.697   5.548   6.630 -0.0630 -0.2840 -0.1045
  126OSM   H12A13430   5.707   5.655   6.642 -0.4265 -0.1614 -0.8416
  126OSM   H12B13431   5.755   5.534   6.540  0.9388 -0.2871  0.5245
  126OSM    C1113432   5.777   5.486   6.751 -0.5253  0.0186  0.8005
  126OSM   H11A13433   5.711   5.492   6.841 -1.0199 -1.4844  0.5615
  126OSM   H11B13434   5.869   5.546   6.766  0.1922 -0.4983 -1.2148
  126OSM      P13435   5.960   5.314   6.678 -0.0933 -0.0674 -0.2111
  126OSM    O1313436   5.955   5.173   6.626 -0.1104 -0.1893  0.1472
  126OSM    O1413437   6.024   5.422   6.597 -0.2479 -0.0258  0.5152
  126OSM    O1113438   6.045   5.313   6.809  0.6961 -0.0433 -0.3561
  126OSM    O1213439   5.816   5.353   6.728  0.2998 -0.2423 -0.3356
  126OSM    C1S13440   6.021   5.238   6.930 -0.6160 -0.2316 -0.4748
  126OSM    H1S13441   6.073   5.141   6.911 -1.5565 -0.7367 -0.4879
  126OSM    H1T13442   5.915   5.213   6.950 -0.1039 -2.3445 -0.0997
  126OSM     NF13443   6.063   5.192   7.166 -0.6037 -0.0004 -0.4052
  126OSM    HNF13444   6.001   5.222   7.238  1.5433  1.8090  0.8390
  126OSM    C2S13445   6.087   5.286   7.061  0.3124 -0.6441  0.1945
  126OSM    H2S13446   6.195   5.290   7.037  0.5822  2.9749  1.3937
  126OSM    C3S13447   6.037   5.428   7.099 -0.1691  0.3107  0.6114
  126OSM    H3S13448   5.928   5.428   7.119 -0.3033  3.5653  0.3061
  126OSM     O313449   6.052   5.515   6.993  0.3069 -0.0738  0.0871
  126OSM    HO313450   6.041   5.459   6.916 -0.9447  0.8032 -0.4006
  126OSM    C4S13451   6.095   5.474   7.228 -0.3841  0.3026  0.2068
  126OSM    H4S13452   6.044   5.430   7.315  2.3902 -1.2916  1.1719
  126OSM    C5S13453   6.206   5.547   7.247  0.1251  0.4016 -0.4922
  126OSM    H5S13454   6.274   5.563   7.163  2.3185 -2.2824  0.5903
  126OSM    C6S13455   6.269   5.591   7.383 -0.2467 -0.1352 -0.0172
  126OSM    H6S13456   6.283   5.701   7.391  1.6362 -0.4904  2.6101
  126OSM    H6T13457   6.368   5.542   7.386  0.2995  0.8683 -0.7429
  126OSM    C7S13458   6.187   5.548   7.510  0.0127  0.5081 -0.4797
  126OSM    H7S13459   6.172   5.438   7.511  0.0123  0.4696  2.2686
  126OSM    H7T13460   6.087   5.596   7.510  1.1626  3.3113 -3.0826
  126OSM    C8S13461   6.270   5.587   7.626  0.4503  0.3320  0.1267
  126OSM    H8S13462   6.294   5.695   7.630 -2.6393  1.1305 -0.2470
  126OSM    H8T13463   6.369   5.536   7.626 -0.1814 -0.9605  1.2897
  126OSM    C9S13464   6.203   5.532   7.754 -0.3586  0.3150  0.5194
  126OSM    H9S13465   6.167   5.429   7.738 -0.7516  0.4075  0.7883
  126OSM    H9T13466   6.109   5.592   7.754 -2.1345 -2.3059 -0.6073
  126OSM   C10S13467   6.272   5.544   7.885 -0.4889  0.0379 -0.2654
  126OSM   H10S13468   6.299   5.646   7.918  0.2760 -0.4510  0.6522
  126OSM   H10T13469   6.369   5.489   7.880 -0.0587  0.8080 -0.5455
  126OSM   C11S13470   6.183   5.480   7.998 -0.5558 -0.2227 -0.1690
  126OSM   H11S13471   6.157   5.373   7.979  0.6821 -0.7817  1.1171
  126OSM   H11T13472   6.096   5.549   8.005 -0.9587 -0.8628  1.6485
  126OSM   C12S13473   6.252   5.487   8.134  0.3186 -0.2524  0.3168
  126OSM   H12S13474   6.270   5.596   8.149  1.8399 -0.7236  2.2945
  126OSM   H12T13475   6.349   5.434   8.148  0.9602  0.8196  0.0546
  126OSM   C13S13476   6.171   5.439   8.255 -0.9270 -0.4153 -0.8345
  126OSM   H13S13477   6.151   5.331   8.241  0.4276 -0.7385 -0.4905
  126OSM   H13T13478   6.076   5.496   8.259 -0.5658  0.3391 -2.4432
  126OSM   C14S13479   6.252   5.469   8.383 -0.0374 -0.4825 -0.2698
  126OSM   H14S13480   6.266   5.580   8.381 -2.1571 -0.1604 -2.6200
  126OSM   H14T13481   6.352   5.427   8.405  0.9197  0.8236 -1.8720
  126OSM   C15S13482   6.166   5.442   8.505 -0.2117  0.1887 -0.1146
  126OSM   H15S13483   6.129   5.337   8.513 -1.5788  0.6330 -0.4498
  126OSM   H15T13484   6.080   5.507   8.480  0.2862  1.1153  0.5278
  126OSM   C16S13485   6.213   5.498   8.640 -0.6118  0.4082 -0.1031
  126OSM   H16S13486   6.122   5.496   8.704 -0.3884  1.4034  0.2573
  126OSM   H16T13487   6.256   5.598   8.618  1.4758 -0.1682  1.0902
  126OSM   C17S13488   6.315   5.410   8.713 -0.5855 -0.6046  0.6070
  126OSM   H17S13489   6.408   5.405   8.653 -1.4076 -1.4761 -0.6635
  126OSM   H17T13490   6.284   5.303   8.721  0.9169 -1.0111  1.2902
  126OSM   C18S13491   6.367   5.472   8.841  0.3466 -0.4744  0.1881
  126OSM   H18S13492   6.401   5.577   8.827 -0.7198 -0.4283 -2.6962
  126OSM   H18T13493   6.458   5.410   8.861  0.8402 -0.1925 -1.1054
  126OSM   H18U13494   6.294   5.462   8.924 -0.4336 -0.5938 -0.5060
  126OSM    C1F13495   6.109   5.072   7.166 -0.3293  0.6875  0.1239
  126OSM     OF13496   6.205   5.039   7.091  0.5452  0.1061  0.0554
  126OSM    C2F13497   6.032   4.967   7.249 -0.0694  0.1366 -0.1505
  126OSM    H2F13498   5.926   4.999   7.247  0.2032  1.0303 -1.3214
  126OSM    H2G13499   6.066   4.990   7.352  2.2149  0.6997 -0.9623
  126OSM    C3F13500   6.060   4.821   7.226 -0.2786 -0.3912  0.2071
  126OSM    H3F13501   6.168   4.798   7.238 -0.3267 -0.1098  1.3549
  126OSM    H3G13502   6.043   4.786   7.123  2.5245 -0.9152 -0.1694
  126OSM    C4F13503   6.006   4.739   7.337 -0.3574 -0.4114 -0.8512
  126OSM    H4F13504   6.027   4.635   7.303  1.8688 -0.5127  0.6475
  126OSM    H4G13505   5.896   4.751   7.344 -0.5905 -2.1090 -1.2513
  126OSM    C5F13506   6.072   4.739   7.475 -0.6586 -0.3833 -0.4701
  126OSM    H5F13507   6.115   4.839   7.497  1.3391 -0.8911 -1.7123
  126OSM    H5G13508   6.154   4.664   7.470 -0.5234 -0.2494 -0.2509
  126OSM    C6F13509   5.988   4.694   7.592  0.0593  0.0713  0.1493
  126OSM    H6F13510   5.904   4.764   7.606  0.4162  0.7686 -1.0003
  126OSM    H6G13511   6.056   4.697   7.680  0.9822  1.7536 -0.5687
  126OSM    C7F13512   5.923   4.556   7.566  0.2013  1.0364  0.2815
  126OSM    H7F13513   6.006   4.485   7.548 -0.9382  0.5219 -4.4831
  126OSM    H7G13514   5.852   4.561   7.480 -0.5311  2.5489  0.9388
  126OSM    C8F13515   5.836   4.511   7.692 -0.6561 -0.5564 -0.1517
  126OSM    H8F13516   5.760   4.587   7.721 -0.5756 -0.9451  1.1235
  126OSM    H8G13517   5.907   4.504   7.777  0.2805 -1.3335 -0.9672
  126OSM    C9F13518   5.773   4.372   7.678  0.4389 -0.9666 -0.0590
  126OSM    H9F13519   5.761   4.340   7.573  0.5815 -0.3888 -0.2547
  126OSM   C10F13520   5.740   4.288   7.776 -0.2995 -0.0732 -0.5503
  126OSM   H10F13521   5.691   4.194   7.748 -2.2513  1.4744 -2.7877
  126OSM   C11F13522   5.767   4.301   7.928 -0.3938 -0.5704 -0.2849
  126OSM   H11F13523   5.737   4.397   7.975 -1.8655 -1.5805  0.9279
  126OSM   H11G13524   5.876   4.292   7.949 -0.0049  0.0680 -1.9028
  126OSM   C12F13525   5.688   4.198   8.000 -0.0266  0.1115  0.7775
  126OSM   H12F13526   5.732   4.098   7.979 -0.6128 -0.6794  3.0543
  126OSM   H12G13527   5.583   4.187   7.966  0.8097  0.6929 -2.2497
  126OSM   C13F13528   5.696   4.216   8.152 -0.7139 -0.8115 -0.5636
  126OSM   H13F13529   5.662   4.316   8.187  0.3574 -0.0193 -1.6376
  126OSM   H13G13530   5.803   4.211   8.183 -0.7069 -1.2238 -0.6465
  126OSM   C14F13531   5.632   4.096   8.215 -0.4243 -0.0195  0.2262
  126OSM   H14F13532   5.673   4.004   8.170  1.6582  0.2915  1.3746
  126OSM   H14G13533   5.526   4.103   8.183 -0.6512 -0.1205  0.9414
  126OSM   C15F13534   5.649   4.095   8.370 -0.5989  0.1222  0.4029
  126OSM   H15F13535   5.753   4.131   8.386 -0.6458  0.7097 -0.5003
  126OSM   H15G13536   5.647   3.991   8.409 -1.2704 -0.9209 -2.1707
  126OSM   C16F13537   5.546   4.180   8.444  0.2991 -0.8789 -0.2570
  126OSM   H16F13538   5.441   4.144   8.449  0.4841 -1.3328  2.9656
  126OSM   H16G13539   5.534   4.277   8.392 -0.1558 -1.7976 -1.9570
  126OSM   C17F13540   5.584   4.218   8.588 -0.6681 -0.9947 -0.2072
  126OSM   H17F13541   5.514   4.293   8.630 -1.5875 -1.9625  0.0357
  126OSM   H17G13542   5.684   4.262   8.607  0.5081 -2.1906 -3.0212
  126OSM   C18F13543   5.573   4.102   8.680 -0.2087 -0.4932 -0.3759
  126OSM   H18F13544   5.642   4.022   8.645  2.1650  2.0452 -1.8788
  126OSM   H18G13545   5.472   4.060   8.661 -0.4835 -0.6103  1.2001
  126OSM   H18H13546   5.601   4.127   8.785 -1.2173 -0.3357 -0.1357
  127OSM      N13547   0.482   1.187   6.051 -0.2981 -0.0736 -0.1933
  127OSM    C1513548   0.365   1.208   5.961 -0.0746 -0.5202  0.6973
  127OSM   H15A13549   0.289   1.133   5.978 -0.3328 -0.7074 -1.1126
  127OSM   H15B13550   0.405   1.194   5.862 -2.5521  0.5047 -0.5448
  127OSM   H15C13551   0.326   1.309   5.956  1.4605  0.1144  1.0886
  127OSM    C1413552   0.524   1.049   6.037  0.2143 -0.3213 -0.1414
  127OSM   H14A13553   0.611   1.033   6.099  0.1923  1.8271  0.5356
  127OSM   H14B13554   0.554   1.031   5.935 -0.7499 -0.8941 -0.3326
  127OSM   H14C13555   0.441   0.983   6.058  0.5213 -0.1818  1.6714
  127OSM    C1313556   0.592   1.284   6.016  0.4635  0.4215 -0.8575
  127OSM   H13A13557   0.556   1.385   6.031 -0.3186  0.0505 -0.1452
  127OSM   H13B13558   0.618   1.275   5.912  2.0160  0.2034 -0.4696
  127OSM   H13C13559   0.684   1.267   6.069 -1.0730 -2.1271  1.2162
  127OSM    C1213560   0.442   1.198   6.200  0.6665  0.2404 -0.3071
  127OSM   H12A13561   0.445   1.303   6.225  1.5407 -0.0743  1.0304
  127OSM   H12B13562   0.526   1.153   6.250  1.0340 -1.4748 -2.3334
  127OSM    C1113563   0.315   1.133   6.258 -0.0477  0.0265 -0.3758
  127OSM   H11A13564   0.238   1.202   6.217 -1.9106 -2.6533 -1.6413
  127OSM   H11B13565   0.326   1.125   6.368  1.9952  1.5130 -0.4062
  127OSM      P13566   0.158   0.935   6.174 -0.1570  0.5645  0.2070
  127OSM    O1313567   0.096   1.005   6.061  0.3438  0.2238  0.4663
  127OSM    O1413568   0.175   0.788   6.168 -0.3496 -0.8614  0.3218
  127OSM    O1113569   0.083   0.961   6.313  0.3424 -0.7929 -0.3688
  127OSM    O1213570   0.300   1.002   6.198 -0.8444 -0.2693  0.6423
  127OSM    C1S13571   0.114   0.884   6.429 -0.3741  0.1558 -0.5086
  127OSM    H1S13572   0.216   0.903   6.470 -0.5330 -2.3401  1.3034
  127OSM    H1T13573   0.118   0.774   6.414  2.9150 -0.0011  0.6968
  127OSM     NF13574   0.042   0.883   6.665  0.3749 -0.1804  0.2512
  127OSM    HNF13575  -0.013   0.809   6.703  0.3578 -0.7423 -0.8125
  127OSM    C2S13576   0.011   0.939   6.537  0.4133 -0.0349 -0.2600
  127OSM    H2S13577   0.022   1.050   6.536 -0.2095  0.0566 -2.6778
  127OSM    C3S13578  -0.136   0.907   6.489 -0.3576 -0.4686  0.1514
  127OSM    H3S13579  -0.143   0.796   6.501 -3.3521 -0.8791 -3.3196
  127OSM     O313580  -0.170   0.927   6.350  0.2005 -0.2682 -0.6094
  127OSM    HO313581  -0.085   0.948   6.311 -0.5222  1.7314 -1.2308
  127OSM    C4S13582  -0.244   0.976   6.571 -0.8457  0.6164 -0.1604
  127OSM    H4S13583  -0.233   1.083   6.596  0.3803  0.6465 -0.7360
  127OSM    C5S13584  -0.334   0.903   6.638  0.6579 -0.3387  0.4527
  127OSM    H5S13585  -0.325   0.794   6.634  1.2604 -0.2573 -0.8542
  127OSM    C6S13586  -0.434   0.961   6.729 -0.1212  0.2301 -0.1781
  127OSM    H6S13587  -0.530   0.939   6.677  1.0345 -1.9143 -1.5440
  127OSM    H6T13588  -0.418   1.071   6.741 -0.0667  0.4458 -1.9300
  127OSM    C7S13589  -0.449   0.884   6.862  0.0913  0.2017  0.3304
  127OSM    H7S13590  -0.359   0.906   6.924  0.6991 -0.4761 -0.2931
  127OSM    H7T13591  -0.431   0.778   6.835  1.2074  1.1068 -2.9378
  127OSM    C8S13592  -0.585   0.904   6.928  0.2463 -0.0653 -0.7638
  127OSM    H8S13593  -0.667   0.877   6.857 -0.7014  0.7344 -0.0074
  127OSM    H8T13594  -0.608   1.011   6.950  0.2065 -0.0319 -0.9633
  127OSM    C9S13595  -0.608   0.810   7.047  0.1711 -0.0119 -0.2489
  127OSM    H9S13596  -0.590   0.714   6.994 -2.1821  0.4502 -2.0742
  127OSM    H9T13597  -0.711   0.812   7.088  0.1867 -0.7711 -0.1688
  127OSM   C10S13598  -0.513   0.846   7.165  0.1563  0.1300  0.7297
  127OSM   H10S13599  -0.484   0.953   7.166 -0.7602  0.3928  1.6927
  127OSM   H10T13600  -0.424   0.790   7.127 -2.0116 -2.3653 -1.0331
  127OSM   C11S13601  -0.568   0.778   7.295  1.0968  0.0455  0.4884
  127OSM   H11S13602  -0.575   0.669   7.278  1.3195  0.3263 -1.5976
  127OSM   H11T13603  -0.674   0.808   7.311  0.4839 -2.3411  1.3121
  127OSM   C12S13604  -0.484   0.805   7.416  0.3183 -0.0003  0.2776
  127OSM   H12S13605  -0.482   0.916   7.430  1.2005 -0.2602  2.7961
  127OSM   H12T13606  -0.379   0.771   7.404  0.4080 -0.0853  1.1912
  127OSM   C13S13607  -0.537   0.741   7.546  0.2756 -0.6499  0.1019
  127OSM   H13S13608  -0.514   0.633   7.540  0.7689 -0.4496 -2.8690
  127OSM   H13T13609  -0.647   0.738   7.530  0.1587 -3.0197  1.0032
  127OSM   C14S13610  -0.503   0.803   7.675 -0.5893 -0.3945  0.0612
  127OSM   H14S13611  -0.574   0.885   7.698  0.1997  0.7174 -1.2986
  127OSM   H14T13612  -0.400   0.844   7.671 -0.6689 -0.0460  1.2275
  127OSM   C15S13613  -0.515   0.698   7.789 -0.1953 -0.4750 -0.8227
  127OSM   H15S13614  -0.449   0.610   7.774  0.8581  0.2103 -0.3560
  127OSM   H15T13615  -0.617   0.656   7.781 -0.0680 -1.1947  0.9206
  127OSM   C16S13616  -0.504   0.761   7.933  0.0812  0.0888  0.2032
  127OSM   H16S13617  -0.551   0.858   7.959  1.4177  1.0289 -0.7725
  127OSM   H16T13618  -0.396   0.784   7.944 -0.3721  3.0197 -0.6127
  127OSM   C17S13619  -0.541   0.664   8.045  0.7188 -0.5675 -0.4734
  127OSM   H17S13620  -0.481   0.572   8.058  2.1065  0.6539  2.7613
  127OSM   H17T13621  -0.648   0.633   8.041  0.4581 -0.0392  1.4688
  127OSM   C18S13622  -0.535   0.727   8.188  0.1848  0.3639  0.1411
  127OSM   H18S13623  -0.443   0.789   8.197  1.4769 -1.3490 -0.7039
  127OSM   H18T13624  -0.544   0.641   8.258  0.4758  0.3036  0.1063
  127OSM   H18U13625  -0.624   0.793   8.200 -1.9154 -2.4382  1.1427
  127OSM    C1F13626   0.147   0.917   6.725  0.6499  0.0065  0.0798
  127OSM     OF13627   0.206   1.017   6.682 -0.2098  0.0661  0.2618
  127OSM    C2F13628   0.184   0.835   6.848  0.6050  0.0654  0.1180
  127OSM    H2F13629   0.265   0.762   6.824 -0.1062 -0.8566  0.4607
  127OSM    H2G13630   0.099   0.767   6.872  2.2071 -2.1801 -0.2330
  127OSM    C3F13631   0.212   0.909   6.985  0.4197  0.2973  0.3141
  127OSM    H3F13632   0.122   0.956   7.029  0.7961 -0.7676  2.3599
  127OSM    H3G13633   0.289   0.981   6.951 -1.4135  1.7310 -0.9961
  127OSM    C4F13634   0.272   0.804   7.083 -0.5428 -0.0507  0.0431
  127OSM    H4F13635   0.378   0.792   7.053  0.2342  2.6581  1.3998
  127OSM    H4G13636   0.222   0.704   7.084 -2.0463  0.6703  2.0704
  127OSM    C5F13637   0.268   0.859   7.225 -0.1632 -0.0936  0.3746
  127OSM    H5F13638   0.162   0.884   7.248 -0.0965  1.9164 -1.2428
  127OSM    H5G13639   0.317   0.958   7.222 -0.4821  0.0710  0.5443
  127OSM    C6F13640   0.326   0.769   7.335 -0.2600 -0.3601 -0.4071
  127OSM    H6F13641   0.436   0.772   7.324 -0.1253 -1.6853  0.3873
  127OSM    H6G13642   0.290   0.664   7.330  1.3981 -0.9126 -3.1585
  127OSM    C7F13643   0.319   0.837   7.475  0.5998 -0.4047  0.3137
  127OSM    H7F13644   0.219   0.877   7.503  0.8864  0.2310  0.4608
  127OSM    H7G13645   0.372   0.935   7.473 -0.2731  0.1511  1.9963
  127OSM    C8F13646   0.370   0.747   7.590  0.5006 -0.6552 -0.3831
  127OSM    H8F13647   0.370   0.799   7.688 -0.6402  0.5433 -0.9948
  127OSM    H8G13648   0.474   0.721   7.561  0.2563 -0.5640 -1.3862
  127OSM    C9F13649   0.296   0.615   7.613  0.2414  0.4836  0.0861
  127OSM    H9F13650   0.232   0.573   7.534  2.8180 -2.0801 -0.8553
  127OSM   C10F13651   0.320   0.535   7.717  0.0660 -0.2176  0.3517
  127OSM   H10F13652   0.285   0.431   7.705  1.2222 -0.7838  1.6479
  127OSM   C11F13653   0.413   0.558   7.831  0.3303  0.0237 -0.5084
  127OSM   H11F13654   0.479   0.644   7.808  0.5758  0.1512  0.6121
  127OSM   H11G13655   0.474   0.465   7.835 -0.5232 -0.5514 -0.5986
  127OSM   C12F13656   0.350   0.580   7.959  0.7400  0.0213  0.4015
  127OSM   H12F13657   0.303   0.482   7.982  0.6216 -0.3324 -1.2397
  127OSM   H12G13658   0.282   0.667   7.957 -0.8975 -1.1901  1.0399
  127OSM   C13F13659   0.450   0.597   8.068  0.3693 -0.4937 -0.1701
  127OSM   H13F13660   0.524   0.672   8.033  1.9285 -2.2312 -0.7364
  127OSM   H13G13661   0.514   0.507   8.077 -1.7616 -2.4197 -2.7263
  127OSM   C14F13662   0.368   0.640   8.195 -0.4755 -0.3784 -0.3295
  127OSM   H14F13663   0.287   0.567   8.220  0.5765 -0.8819  1.8769
  127OSM   H14G13664   0.318   0.732   8.159  0.9981  0.6785  0.2496
  127OSM   C15F13665   0.447   0.659   8.326  0.0835 -0.2178  1.0831
  127OSM   H15F13666   0.498   0.756   8.310 -0.4416 -0.2516 -1.1880
  127OSM   H15G13667   0.524   0.579   8.330  0.1497 -0.4985 -2.3788
  127OSM   C16F13668   0.358   0.648   8.449 -0.1583  0.3604 -0.0463
  127OSM   H16F13669   0.284   0.566   8.436 -0.2677  0.5533 -0.6672
  127OSM   H16G13670   0.296   0.739   8.459  1.7651  1.8717 -1.0585
  127OSM   C17F13671   0.450   0.631   8.570  0.2143 -0.6668  0.3435
  127OSM   H17F13672   0.536   0.701   8.569 -0.4345  0.1608  1.1149
  127OSM   H17G13673   0.499   0.531   8.566 -1.2112 -1.3545 -1.7410
  127OSM   C18F13674   0.385   0.649   8.698  0.2404 -0.0596 -0.6750
  127OSM   H18F13675   0.306   0.727   8.697  0.5738  0.2804 -0.7872
  127OSM   H18G13676   0.457   0.670   8.780 -0.3036  0.5131 -0.3333
  127OSM   H18H13677   0.328   0.557   8.725  1.4109 -0.5168  0.3334
  128OSM      N13678   4.177   5.460   6.044 -0.4997  0.5233 -0.1619
  128OSM    C1513679   4.106   5.574   5.991  0.6363 -0.7742  0.3941
  128OSM   H15A13680   4.099   5.654   6.064  1.3270 -0.7315  0.4290
  128OSM   H15B13681   4.008   5.536   5.968  0.1165 -0.0804  1.3848
  128OSM   H15C13682   4.157   5.613   5.904 -1.1922 -0.1085 -0.4191
  128OSM    C1413683   4.149   5.348   5.954 -0.1546  0.6843 -0.4378
  128OSM   H14A13684   4.181   5.362   5.851  1.1570 -0.3213 -0.2045
  128OSM   H14B13685   4.044   5.325   5.950 -0.1556  0.2945  1.2634
  128OSM   H14C13686   4.200   5.261   5.994  1.3850  1.3353 -0.9124
  128OSM    C1313687   4.325   5.486   6.049  1.0044 -0.6205 -0.4360
  128OSM   H13A13688   4.373   5.492   5.952  0.8946  2.7191 -0.3821
  128OSM   H13B13689   4.381   5.418   6.112  0.2016  0.6748  1.7919
  128OSM   H13C13690   4.331   5.585   6.093 -0.9038 -0.1934 -1.0483
  128OSM    C1213691   4.126   5.427   6.182  0.4264  0.5935 -0.6754
  128OSM   H12A13692   4.190   5.345   6.214 -1.5788 -1.5877 -1.9159
  128OSM   H12B13693   4.021   5.402   6.174  0.7513 -0.6681 -1.2630
  128OSM    C1113694   4.144   5.533   6.292  0.0000  0.4095 -0.3292
  128OSM   H11A13695   4.250   5.564   6.297  0.8029 -2.2013  0.5131
  128OSM   H11B13696   4.136   5.483   6.391  1.3232  1.9936  0.6422
  128OSM      P13697   3.908   5.594   6.345 -0.1240 -0.1707 -0.1348
  128OSM    O1313698   3.810   5.707   6.342 -0.1609  0.4873  0.1865
  128OSM    O1413699   3.869   5.464   6.296 -0.6532  0.3429  0.6708
  128OSM    O1113700   3.923   5.570   6.501 -0.0756 -0.0508  0.3003
  128OSM    O1213701   4.052   5.640   6.286 -0.4177  0.0460  0.1657
  128OSM    C1S13702   3.953   5.692   6.584  0.1067  0.6047 -0.3777
  128OSM    H1S13703   3.863   5.757   6.573  0.9802  1.7683 -0.8266
  128OSM    H1T13704   4.055   5.731   6.565 -0.1473  0.6899 -1.6475
  128OSM     NF13705   3.954   5.758   6.828  0.2793 -0.4829  0.8281
  128OSM    HNF13706   4.042   5.774   6.872  0.7609  0.0973 -0.3054
  128OSM    C2S13707   3.951   5.644   6.736 -0.2614 -0.5259  0.0094
  128OSM    H2S13708   3.856   5.589   6.747  1.7669 -4.3189  0.4174
  128OSM    C3S13709   4.065   5.539   6.759 -0.1175  0.6472 -0.7895
  128OSM    H3S13710   4.162   5.584   6.731 -1.0453  2.2420 -1.6118
  128OSM     O313711   4.050   5.420   6.682 -0.2709 -0.1306 -0.4841
  128OSM    HO313712   3.970   5.423   6.629 -1.5728  0.1231  1.4032
  128OSM    C4S13713   4.060   5.499   6.901  0.0478 -0.2365 -0.6729
  128OSM    H4S13714   3.979   5.425   6.913 -0.6259  0.7092  0.9482
  128OSM    C5S13715   4.128   5.551   7.008  0.3350 -0.1007 -0.0477
  128OSM    H5S13716   4.205   5.629   6.992 -0.0316  0.1189 -0.7844
  128OSM    C6S13717   4.114   5.499   7.148 -0.6158  0.6351  0.5710
  128OSM    H6S13718   4.197   5.429   7.169  0.5901  0.9562 -2.5362
  128OSM    H6T13719   4.022   5.441   7.172  0.4754 -0.5915  1.9699
  128OSM    C7S13720   4.115   5.622   7.237 -0.1480 -0.9667 -0.7086
  128OSM    H7S13721   4.058   5.711   7.202  0.5895 -0.3365 -0.3450
  128OSM    H7T13722   4.221   5.652   7.250 -0.2964  1.4397 -3.8184
  128OSM    C8S13723   4.057   5.586   7.377  0.6015  0.3678  0.4182
  128OSM    H8S13724   4.084   5.480   7.396 -1.6608 -0.4353 -0.5084
  128OSM    H8T13725   3.947   5.572   7.374  0.4530  1.4325  0.3438
  128OSM    C9S13726   4.095   5.673   7.500  0.4255  0.4257  0.1842
  128OSM    H9S13727   4.067   5.777   7.475 -0.2688 -0.2213 -1.8638
  128OSM    H9T13728   4.205   5.670   7.517  0.2740 -2.3304  1.3126
  128OSM   C10S13729   4.024   5.621   7.621 -0.7667  0.2178  0.4292
  128OSM   H10S13730   4.067   5.520   7.638  1.7327  1.0380 -0.4132
  128OSM   H10T13731   3.916   5.607   7.600 -0.1786 -1.1050 -2.1158
  128OSM   C11S13732   4.036   5.703   7.749 -0.1860  0.3696  0.8864
  128OSM   H11S13733   3.995   5.806   7.744 -2.8611 -0.5520  2.3195
  128OSM   H11T13734   4.146   5.709   7.767 -0.3668  0.6135  1.9799
  128OSM   C12S13735   3.965   5.630   7.861  0.3670 -0.1926  0.0876
  128OSM   H12S13736   4.017   5.532   7.871 -0.1875 -0.6471 -1.2461
  128OSM   H12T13737   3.863   5.599   7.832  0.4618 -2.1902  1.6623
  128OSM   C13S13738   3.949   5.702   7.993  0.4010  0.0623  0.7255
  128OSM   H13S13739   3.927   5.810   7.983 -1.1995 -0.2881  0.1385
  128OSM   H13T13740   4.034   5.692   8.064 -0.1263  2.9515  1.8922
  128OSM   C14S13741   3.820   5.644   8.064  0.2237 -0.5024  0.1642
  128OSM   H14S13742   3.828   5.534   8.071  1.4022 -0.4848 -0.5820
  128OSM   H14T13743   3.736   5.687   8.005 -0.8530 -1.4286  0.9852
  128OSM   C15S13744   3.819   5.689   8.204  0.1801 -0.3455 -0.0589
  128OSM   H15S13745   3.804   5.799   8.207 -2.2919 -0.6073 -0.5006
  128OSM   H15T13746   3.923   5.688   8.243 -0.6364  1.6793  2.4325
  128OSM   C16S13747   3.737   5.614   8.308 -0.1520 -0.4476  0.3038
  128OSM   H16S13748   3.759   5.507   8.291 -1.2120 -0.5122 -0.7319
  128OSM   H16T13749   3.630   5.617   8.279 -0.2816 -0.5837  0.7587
  128OSM   C17S13750   3.759   5.663   8.453 -0.2642  0.6801 -0.9965
  128OSM   H17S13751   3.742   5.773   8.453  0.1305  0.8495  2.7607
  128OSM   H17T13752   3.862   5.638   8.486 -1.0345  1.2803  2.1363
  128OSM   C18S13753   3.665   5.587   8.549 -0.1292  0.0089  0.5003
  128OSM   H18S13754   3.693   5.480   8.563  0.4246  0.1821  0.7823
  128OSM   H18T13755   3.564   5.588   8.504  0.2091 -2.4537 -0.4544
  128OSM   H18U13756   3.661   5.644   8.644  1.6416 -0.3527  0.8369
  128OSM    C1F13757   3.865   5.857   6.850  0.0342  0.5841  1.3526
  128OSM     OF13758   3.770   5.872   6.774 -0.2239  0.1829  0.4306
  128OSM    C2F13759   3.890   5.956   6.960  0.0763 -0.1792  0.5721
  128OSM    H2F13760   3.885   6.060   6.922 -1.8001  0.3979  2.1990
  128OSM    H2G13761   3.990   5.927   7.000 -0.1956  0.0768  1.4695
  128OSM    C3F13762   3.790   5.931   7.072  0.1098  0.2128 -0.6659
  128OSM    H3F13763   3.790   5.823   7.101 -1.2361  0.6150  0.9794
  128OSM    H3G13764   3.690   5.976   7.057  0.9935  2.5653  0.1218
  128OSM    C4F13765   3.849   5.986   7.201 -0.0684 -0.1109  0.2961
  128OSM    H4F13766   3.897   6.085   7.184 -1.8983  0.5865 -1.0908
  128OSM    H4G13767   3.940   5.926   7.222  0.3230 -1.1567 -3.4981
  128OSM    C5F13768   3.759   5.981   7.321 -0.2057  0.0762 -0.4993
  128OSM    H5F13769   3.822   5.989   7.412 -1.4965  0.6109  0.3724
  128OSM    H5G13770   3.718   5.878   7.325  2.0332 -0.8500  0.2258
  128OSM    C6F13771   3.652   6.087   7.325  0.2810  0.3347  0.0175
  128OSM    H6F13772   3.576   6.055   7.252 -0.3831  0.3857  0.6687
  128OSM    H6G13773   3.707   6.174   7.282  0.9649  0.8980  1.9223
  128OSM    C7F13774   3.589   6.104   7.464 -0.5199  0.5262  0.0177
  128OSM    H7F13775   3.540   6.203   7.458 -0.3054  0.7209  1.2114
  128OSM    H7G13776   3.664   6.112   7.546 -0.5510 -1.1559  0.2658
  128OSM    C8F13777   3.480   6.000   7.514  0.1958 -0.1654  0.0041
  128OSM    H8F13778   3.413   5.982   7.427  1.9337 -3.4374 -0.8026
  128OSM    H8G13779   3.419   6.046   7.595  1.9116  2.2231  0.0723
  128OSM    C9F13780   3.540   5.864   7.553 -0.0660 -0.7253  0.4019
  128OSM    H9F13781   3.581   5.802   7.473  0.1521  0.4349 -0.4017
  128OSM   C10F13782   3.554   5.821   7.681  0.4325  0.5510 -0.5754
  128OSM   H10F13783   3.602   5.722   7.693 -0.0230  0.3494 -0.4109
  128OSM   C11F13784   3.520   5.901   7.803  0.1302 -0.2669  0.0300
  128OSM   H11F13785   3.523   5.843   7.898  1.7168 -1.0922 -0.4868
  128OSM   H11G13786   3.416   5.932   7.783  0.6336  0.9006 -0.8919
  128OSM   C12F13787   3.602   6.030   7.829 -0.3737  0.4483 -0.2686
  128OSM   H12F13788   3.586   6.106   7.750  1.0477  1.5272  0.4412
  128OSM   H12G13789   3.708   5.997   7.837 -0.2905  1.0974  2.0884
  128OSM   C13F13790   3.547   6.098   7.959 -0.7213  1.0554 -0.9018
  128OSM   H13F13791   3.439   6.118   7.945 -1.4025 -1.4763  0.0955
  128OSM   H13G13792   3.609   6.189   7.973  1.4404 -0.6322  1.4509
  128OSM   C14F13793   3.565   6.017   8.089 -0.0359  0.2191 -0.4008
  128OSM   H14F13794   3.669   5.986   8.113 -0.0361  0.6975  0.2251
  128OSM   H14G13795   3.503   5.925   8.094  2.7938 -2.0216 -2.7455
  128OSM   C15F13796   3.509   6.101   8.202 -0.5274 -1.5003  0.4452
  128OSM   H15F13797   3.401   6.110   8.178  0.0706  0.9222 -1.9235
  128OSM   H15G13798   3.557   6.201   8.190  0.9225 -2.2006  0.1209
  128OSM   C16F13799   3.534   6.062   8.341 -0.1169  0.3261 -0.8062
  128OSM   H16F13800   3.507   5.955   8.355  0.5550  0.3657  1.0817
  128OSM   H16G13801   3.470   6.121   8.411 -0.2435 -0.9784  0.2268
  128OSM   C17F13802   3.680   6.076   8.388 -0.1708 -0.1389 -0.1593
  128OSM   H17F13803   3.703   6.183   8.374 -0.2740 -0.0889  0.0659
  128OSM   H17G13804   3.749   6.021   8.320  0.7929 -0.6235  1.1697
  128OSM   C18F13805   3.696   6.051   8.535  0.4214  0.1155 -0.1695
  128OSM   H18F13806   3.701   5.940   8.540 -4.2814 -0.2894 -0.1017
  128OSM   H18G13807   3.611   6.076   8.603 -1.3102 -1.1198 -1.7822
  128OSM   H18H13808   3.786   6.106   8.570  1.7662 -0.5149 -2.4593
  129OSM      N13809   5.330   2.650   6.332  0.3875  0.2169  0.5642
  129OSM    C1513810   5.277   2.668   6.190 -0.4694 -0.3151 -0.4376
  129OSM   H15A13811   5.259   2.773   6.173  0.8563  0.1795  1.0147
  129OSM   H15B13812   5.181   2.619   6.180 -1.9606  1.6334  2.6125
  129OSM   H15C13813   5.347   2.624   6.121 -0.3340  0.0062 -0.5090
  129OSM    C1413814   5.463   2.720   6.348  0.5031  0.1110  0.0878
  129OSM   H14A13815   5.495   2.717   6.452  1.6531 -1.7686 -0.2715
  129OSM   H14B13816   5.464   2.826   6.327  0.7035  0.0306 -0.2994
  129OSM   H14C13817   5.539   2.660   6.301 -0.3711 -1.4985  0.6108
  129OSM    C1313818   5.224   2.725   6.424 -0.4738 -0.6759  0.7666
  129OSM   H13A13819   5.227   2.832   6.412  1.2327 -0.6309  1.3534
  129OSM   H13B13820   5.252   2.697   6.525  1.5873 -1.9585 -0.1024
  129OSM   H13C13821   5.122   2.692   6.409 -0.2783 -1.0061  0.1374
  129OSM    C1213822   5.345   2.506   6.378  0.3719 -0.2724  0.5236
  129OSM   H12A13823   5.250   2.459   6.357 -0.8025  2.7040 -1.6709
  129OSM   H12B13824   5.368   2.507   6.483 -0.7977  1.0893  0.7985
  129OSM    C1113825   5.463   2.428   6.303  0.2493 -0.8903 -0.2133
  129OSM   H11A13826   5.456   2.449   6.193  1.0352  0.5791 -0.0147
  129OSM   H11B13827   5.434   2.322   6.318 -1.4306 -0.2497  1.3933
  129OSM      P13828   5.651   2.405   6.490 -0.3196 -0.4750 -0.4514
  129OSM    O1313829   5.657   2.257   6.492  0.2523  0.1415 -0.0932
  129OSM    O1413830   5.765   2.484   6.544 -0.0981 -0.0789 -0.4734
  129OSM    O1113831   5.527   2.455   6.581  0.5008 -0.4356 -0.1822
  129OSM    O1213832   5.599   2.459   6.353 -0.2672  0.0642  0.2534
  129OSM    C1S13833   5.513   2.405   6.721  0.5791  0.7192  1.2887
  129OSM    H1S13834   5.550   2.300   6.728  1.5094  0.8730 -0.5312
  129OSM    H1T13835   5.406   2.417   6.750 -0.4345 -0.1381 -1.6575
  129OSM     NF13836   5.575   2.395   6.948  0.3141 -0.2853 -0.2573
  129OSM    HNF13837   5.489   2.384   6.997  0.1581 -2.4072 -0.8982
  129OSM    C2S13838   5.576   2.486   6.834 -0.2819 -0.4332 -0.0253
  129OSM    H2S13839   5.681   2.501   6.800 -0.5237 -0.1357 -0.6698
  129OSM    C3S13840   5.499   2.620   6.862  0.5158  0.0502  0.7656
  129OSM    H3S13841   5.395   2.593   6.890 -0.2909  1.9131 -0.2681
  129OSM     O313842   5.488   2.692   6.739  0.2213  0.1705  0.3215
  129OSM    HO313843   5.507   2.624   6.675 -1.0980 -0.8545  0.9568
  129OSM    C4S13844   5.565   2.704   6.967 -0.1816 -0.1909  0.5378
  129OSM    H4S13845   5.652   2.765   6.935 -0.1970  1.3650  3.1776
  129OSM    C5S13846   5.508   2.711   7.083  1.0602 -0.3157 -0.7261
  129OSM    H5S13847   5.414   2.660   7.108  0.3817  2.2621  2.6870
  129OSM    C6S13848   5.568   2.793   7.197  0.5514 -0.0976  0.1943
  129OSM    H6S13849   5.503   2.883   7.205  2.2039  1.1333  0.4099
  129OSM    H6T13850   5.663   2.846   7.173 -0.9952  2.0555 -1.6499
  129OSM    C7S13851   5.582   2.723   7.333 -0.0793 -0.7879 -0.2399
  129OSM    H7S13852   5.632   2.629   7.301 -0.9114 -0.7322 -1.7756
  129OSM    H7T13853   5.479   2.710   7.373 -0.6755  0.1348 -1.4410
  129OSM    C8S13854   5.675   2.800   7.433  0.4839 -0.4867 -0.0858
  129OSM    H8S13855   5.620   2.885   7.480  1.8401  0.6493 -0.5066
  129OSM    H8T13856   5.760   2.851   7.384 -0.1141  0.2670 -0.3670
  129OSM    C9S13857   5.728   2.721   7.549 -0.1611  0.3751  0.1170
  129OSM    H9S13858   5.665   2.638   7.588  1.8828 -1.7390 -0.7600
  129OSM    H9T13859   5.740   2.788   7.637  0.7156 -0.8781  0.9886
  129OSM   C10S13860   5.863   2.654   7.528 -0.0652  0.1165 -0.0378
  129OSM   H10S13861   5.923   2.723   7.466  0.4225  1.5568  1.9201
  129OSM   H10T13862   5.840   2.556   7.482  2.1358  0.3872 -1.8812
  129OSM   C11S13863   5.935   2.622   7.658 -0.7140  0.1630 -0.5437
  129OSM   H11S13864   5.968   2.713   7.712 -4.0220  1.8420 -1.0784
  129OSM   H11T13865   6.018   2.552   7.637 -0.8635  0.2318 -1.4023
  129OSM   C12S13866   5.840   2.543   7.753 -0.6441  0.5709 -0.1377
  129OSM   H12S13867   5.788   2.465   7.693  1.3699 -1.4632  0.6136
  129OSM   H12T13868   5.757   2.608   7.788 -2.7368 -0.6937 -2.4695
  129OSM   C13S13869   5.922   2.469   7.862  0.5440 -0.2516 -0.2983
  129OSM   H13S13870   5.973   2.532   7.939  2.3739 -1.4021 -0.5196
  129OSM   H13T13871   5.997   2.397   7.824 -1.4864 -3.8751  1.9726
  129OSM   C14S13872   5.822   2.380   7.945 -0.0696  0.9072 -0.1314
  129OSM   H14S13873   5.769   2.321   7.868  1.4138 -0.4012 -0.2044
  129OSM   H14T13874   5.748   2.444   7.998 -0.5803 -0.3018  0.6517
  129OSM   C15S13875   5.890   2.277   8.043  0.3121  0.1592 -0.3356
  129OSM   H15S13876   5.985   2.254   7.990  1.3344  1.5762  0.8040
  129OSM   H15T13877   5.824   2.192   8.072  0.4704  0.1870  0.1155
  129OSM   C16S13878   5.930   2.340   8.178  0.3548 -0.6646  0.0609
  129OSM   H16S13879   5.847   2.356   8.251 -2.0651  0.8500 -2.8102
  129OSM   H16T13880   5.976   2.440   8.162  0.1085 -0.4538  0.6487
  129OSM   C17S13881   6.032   2.250   8.245 -0.0063  0.3655 -0.0630
  129OSM   H17S13882   6.121   2.234   8.180 -0.4897 -0.2788 -0.5880
  129OSM   H17T13883   5.990   2.147   8.255  3.6168 -1.2985 -0.2786
  129OSM   C18S13884   6.077   2.297   8.384 -0.1483 -0.7759 -0.1854
  129OSM   H18S13885   6.157   2.236   8.430  0.5268  0.8634  0.9274
  129OSM   H18T13886   5.981   2.304   8.441 -0.6518  2.7412 -1.1788
  129OSM   H18U13887   6.105   2.404   8.376 -1.4323 -0.4973 -1.3791
  129OSM    C1F13888   5.670   2.298   6.959  0.2815  0.1793  0.6184
  129OSM     OF13889   5.756   2.278   6.871  0.0714 -0.5970 -0.6152
  129OSM    C2F13890   5.656   2.213   7.085 -0.1945 -0.2224  0.5594
  129OSM    H2F13891   5.561   2.156   7.082 -0.9023  0.8310  1.7111
  129OSM    H2G13892   5.646   2.286   7.169  1.1696  1.0437 -0.3383
  129OSM    C3F13893   5.783   2.132   7.116  0.1465 -0.4929 -0.8960
  129OSM    H3F13894   5.862   2.210   7.122 -0.0990 -0.1137 -2.2456
  129OSM    H3G13895   5.817   2.071   7.029 -1.5389 -3.7057  0.5241
  129OSM    C4F13896   5.768   2.047   7.239  0.6615  0.2488  0.0926
  129OSM    H4F13897   5.856   1.981   7.252 -0.0590 -0.5855  0.9386
  129OSM    H4G13898   5.680   1.983   7.217  0.8323  0.3513 -0.9355
  129OSM    C5F13899   5.752   2.125   7.375  0.4971  0.1925  0.1678
  129OSM    H5F13900   5.660   2.188   7.373 -1.3650 -2.2579  2.4774
  129OSM    H5G13901   5.845   2.184   7.391  0.9023 -0.4007 -0.0015
  129OSM    C6F13902   5.730   2.015   7.493 -0.1253  0.3349  0.2831
  129OSM    H6F13903   5.821   1.953   7.500 -0.7965 -0.5278  1.7642
  129OSM    H6G13904   5.643   1.958   7.456  0.4204 -1.4277  1.6100
  129OSM    C7F13905   5.700   2.077   7.629 -0.0536  0.1565  0.3413
  129OSM    H7F13906   5.592   2.100   7.624 -0.1966 -0.7451 -1.1396
  129OSM    H7G13907   5.754   2.173   7.639 -1.0161  0.5839  1.8493
  129OSM    C8F13908   5.743   1.995   7.748 -0.5433  0.4598  0.1379
  129OSM    H8F13909   5.767   2.068   7.828 -0.0530 -0.7747  1.1457
  129OSM    H8G13910   5.849   1.964   7.732 -0.1601  1.8447 -0.1133
  129OSM    C9F13911   5.659   1.879   7.803 -0.2331  0.0457  0.0926
  129OSM    H9F13912   5.631   1.807   7.724  2.2952 -1.6267  0.6084
  129OSM   C10F13913   5.613   1.860   7.930 -0.0643  0.1511  0.5089
  129OSM   H10F13914   5.553   1.770   7.951  1.1176 -0.4531  1.3777
  129OSM   C11F13915   5.634   1.960   8.046 -0.5006  0.8261  0.2299
  129OSM   H11F13916   5.553   2.035   8.036 -1.4789 -0.2235 -0.0479
  129OSM   H11G13917   5.728   2.017   8.032 -0.3782  0.4476 -0.5631
  129OSM   C12F13918   5.650   1.916   8.195 -0.3004 -0.3337  1.0338
  129OSM   H12F13919   5.742   1.855   8.207  0.8930  1.4527  1.2756
  129OSM   H12G13920   5.557   1.866   8.230 -1.6415  1.2912 -0.0345
  129OSM   C13F13921   5.659   2.046   8.278 -0.3267 -1.1438 -0.2797
  129OSM   H13F13922   5.600   2.130   8.235 -0.0680 -0.0453  1.4338
  129OSM   H13G13923   5.765   2.079   8.275  0.2382 -2.5723  1.5816
  129OSM   C14F13924   5.621   2.018   8.425  0.1064  0.3856  0.0070
  129OSM   H14F13925   5.679   1.928   8.453 -1.1773 -0.1639  1.0267
  129OSM   H14G13926   5.514   1.989   8.430 -0.2466  1.5302 -0.5036
  129OSM   C15F13927   5.649   2.138   8.517 -0.0061 -0.2870 -0.4649
  129OSM   H15F13928   5.606   2.230   8.472 -2.6628 -0.8410  0.7494
  129OSM   H15G13929   5.757   2.163   8.514 -0.4993  2.0395 -1.6421
  129OSM   C16F13930   5.615   2.107   8.672  0.2980  0.2791  0.2437
  129OSM   H16F13931   5.676   2.018   8.698 -0.4220 -0.1971  0.3453
  129OSM   H16G13932   5.510   2.072   8.679  0.8542 -1.8070 -0.9330
  129OSM   C17F13933   5.635   2.221   8.766 -0.2408  0.0991  0.4484
  129OSM   H17F13934   5.569   2.307   8.745  0.4067  0.5933  0.4105
  129OSM   H17G13935   5.738   2.262   8.755  0.9962 -2.7267  0.5550
  129OSM   C18F13936   5.614   2.187   8.910 -0.0510  0.0901  0.7124
  129OSM   H18F13937   5.672   2.098   8.943  2.8751  1.7763  0.4704
  129OSM   H18G13938   5.508   2.158   8.924 -1.0754  2.5602 -1.1174
  129OSM   H18H13939   5.652   2.272   8.972 -0.7646  0.6193  0.4355
  130OSM      N13940   1.773   4.477   6.612 -0.6726  0.0040  0.2175
  130OSM    C1513941   1.768   4.624   6.615  0.1962 -0.0805  0.2016
  130OSM   H15A13942   1.727   4.664   6.524  1.2661  0.9425  0.1577
  130OSM   H15B13943   1.866   4.667   6.631  1.4705 -3.2512  1.8596
  130OSM   H15C13944   1.699   4.664   6.689  1.4789 -1.1255  2.0619
  130OSM    C1413945   1.812   4.432   6.750  0.1395  0.6466 -0.1082
  130OSM   H14A13946   1.907   4.476   6.775  1.8152 -1.6632 -1.9776
  130OSM   H14B13947   1.846   4.330   6.738  2.3384  1.2694  0.4592
  130OSM   H14C13948   1.732   4.428   6.824  1.2943 -0.9511  1.1184
  130OSM    C1313949   1.638   4.425   6.573  1.1527  0.5489 -0.5164
  130OSM   H13A13950   1.606   4.452   6.473  3.1762  1.2899 -1.0267
  130OSM   H13B13951   1.568   4.458   6.648  0.6412 -0.0690 -0.7138
  130OSM   H13C13952   1.634   4.317   6.572  2.9232  0.3422  2.5195
  130OSM    C1213953   1.875   4.420   6.513 -0.0443 -0.5532  0.1538
  130OSM   H12A13954   1.964   4.449   6.567 -0.7339 -0.8424  1.4974
  130OSM   H12B13955   1.860   4.473   6.420 -1.9520  1.8435  1.6705
  130OSM    C1113956   1.871   4.267   6.478 -0.8353  0.4257  0.3249
  130OSM   H11A13957   1.908   4.213   6.568 -1.1018  1.0032  0.7826
  130OSM   H11B13958   1.940   4.251   6.393 -1.9357 -0.2085 -0.4802
  130OSM      P13959   1.719   4.069   6.400  0.2371 -0.1855 -0.1372
  130OSM    O1313960   1.575   4.054   6.360 -0.6314  0.6961 -0.4777
  130OSM    O1413961   1.826   4.016   6.320  0.1487 -0.2838 -0.3301
  130OSM    O1113962   1.723   3.999   6.537  0.4743  0.1341 -0.5488
  130OSM    O1213963   1.744   4.224   6.436 -0.3933  0.0019  0.4072
  130OSM    C1S13964   1.667   4.065   6.656 -1.0172 -0.4612 -0.0764
  130OSM    H1S13965   1.559   4.090   6.647 -0.5256  1.9389  0.0290
  130OSM    H1T13966   1.728   4.154   6.679  0.6155 -0.7487 -2.8965
  130OSM     NF13967   1.621   3.995   6.888 -0.0808 -0.0292 -0.2581
  130OSM    HNF13968   1.656   4.042   6.968 -1.1561  2.5764 -1.1891
  130OSM    C2S13969   1.697   3.968   6.770  0.4192  0.6995 -0.5075
  130OSM    H2S13970   1.676   3.862   6.745  3.2125 -0.0668  0.1267
  130OSM    C3S13971   1.847   3.967   6.806 -0.2468  0.1105  0.1089
  130OSM    H3S13972   1.887   4.070   6.810  1.1973 -0.3799 -0.7841
  130OSM     O313973   1.931   3.906   6.707  0.6195 -0.3719 -0.4929
  130OSM    HO313974   1.881   3.924   6.627  2.3700  0.5426 -1.4285
  130OSM    C4S13975   1.867   3.892   6.938 -0.9780  0.3756 -0.2059
  130OSM    H4S13976   1.835   3.787   6.930 -1.0702  0.5007 -1.7847
  130OSM    C5S13977   1.903   3.949   7.056  0.9875  0.1830 -0.2598
  130OSM    H5S13978   1.927   4.056   7.046 -0.1788  0.2891 -2.4545
  130OSM    C6S13979   1.933   3.881   7.187  0.5081  0.0123  0.7278
  130OSM    H6S13980   2.021   3.819   7.163  0.6521  0.5085 -0.0877
  130OSM    H6T13981   1.856   3.801   7.196  1.5708 -0.8040  3.6419
  130OSM    C7S13982   1.942   3.950   7.325  0.0228  0.5845  0.4812
  130OSM    H7S13983   1.843   3.999   7.336  0.6742  2.4859 -1.3835
  130OSM    H7T13984   2.004   4.042   7.317 -1.1387  1.2833 -0.9219
  130OSM    C8S13985   1.978   3.845   7.430 -0.3730  0.2587  0.2005
  130OSM    H8S13986   2.085   3.820   7.442 -0.2207  0.5876 -0.4205
  130OSM    H8T13987   1.929   3.750   7.399 -2.1539  1.2620 -0.2220
  130OSM    C9S13988   1.929   3.869   7.577 -0.3224  0.0017 -0.0895
  130OSM    H9S13989   1.824   3.903   7.569 -2.1540 -4.1157  2.9480
  130OSM    H9T13990   1.982   3.954   7.626 -0.7688  0.6536 -0.7225
  130OSM   C10S13991   1.921   3.746   7.662 -0.0641  0.2094  0.5814
  130OSM   H10S13992   2.010   3.683   7.641 -0.5424  0.2186 -1.7469
  130OSM   H10T13993   1.841   3.672   7.637  0.9302 -0.6266 -0.2215
  130OSM   C11S13994   1.907   3.791   7.805 -0.6378 -0.2173 -1.1465
  130OSM   H11S13995   1.860   3.709   7.863 -1.3132  0.7884 -0.2231
  130OSM   H11T13996   1.822   3.863   7.798 -1.5139 -1.2951 -2.0449
  130OSM   C12S13997   2.025   3.851   7.888 -0.2556 -0.3038 -0.6634
  130OSM   H12S13998   2.076   3.939   7.842  1.0424  0.2874  1.7325
  130OSM   H12T13999   2.102   3.774   7.908 -1.1891 -0.7045  1.6946
  130OSM   C13S14000   1.976   3.890   8.027  0.4205 -0.0595 -0.0524
  130OSM   H13S14001   1.900   3.817   8.059 -0.9299  0.9654 -0.8291
  130OSM   H13T14002   1.937   3.993   8.010  1.0417  0.3068  0.6500
  130OSM   C14S14003   2.073   3.929   8.140  0.0045  1.2003 -0.5303
  130OSM   H14S14004   2.124   4.019   8.098 -0.6167  2.0326  0.4452
  130OSM   H14T14005   2.142   3.848   8.172 -0.3110  0.5306 -1.4944
  130OSM   C15S14006   1.990   3.972   8.269  0.5997 -0.0029 -0.3893
  130OSM   H15S14007   1.920   3.887   8.288 -0.8309  0.9566 -1.1640
  130OSM   H15T14008   1.922   4.055   8.241 -1.5360 -1.6670 -0.4293
  130OSM   C16S14009   2.081   3.985   8.395 -0.3712  0.4158 -0.4190
  130OSM   H16S14010   2.138   4.080   8.392 -1.2549  1.0503  1.4356
  130OSM   H16T14011   2.147   3.897   8.409 -1.2092 -0.2223 -0.4050
  130OSM   C17S14012   1.999   3.997   8.525  0.1140  0.0539 -0.0101
  130OSM   H17S14013   1.911   4.060   8.503 -0.1649 -0.9750 -2.0788
  130OSM   H17T14014   2.062   4.051   8.599  1.9087 -0.7789 -0.8549
  130OSM   C18S14015   1.950   3.862   8.584 -0.3449 -0.4443 -0.1512
  130OSM   H18S14016   2.045   3.806   8.598 -0.8049 -1.8449 -2.1609
  130OSM   H18T14017   1.887   3.821   8.502 -0.4549  0.0772 -0.3319
  130OSM   H18U14018   1.901   3.877   8.682  1.6143 -0.9817  0.9536
  130OSM    C1F14019   1.491   3.973   6.892  0.9794  0.9432 -0.9909
  130OSM     OF14020   1.433   3.933   6.795 -0.3646  0.4970  0.3874
  130OSM    C2F14021   1.428   3.997   7.033  0.4285  0.3227  0.6525
  130OSM    H2F14022   1.356   3.913   7.047  1.0110 -0.3417 -0.2910
  130OSM    H2G14023   1.367   4.090   7.028  0.3952  0.2578 -0.2758
  130OSM    C3F14024   1.528   3.989   7.147  0.0697  0.0364 -0.0542
  130OSM    H3F14025   1.604   4.068   7.130 -0.6807  1.0117  0.9779
  130OSM    H3G14026   1.575   3.888   7.149  0.1126  0.0166  2.9277
  130OSM    C4F14027   1.455   4.015   7.275 -0.1847  0.0188 -0.0274
  130OSM    H4F14028   1.393   3.926   7.303  1.3590 -0.5391  1.8834
  130OSM    H4G14029   1.396   4.108   7.269  1.3274  1.1453  1.6146
  130OSM    C5F14030   1.558   4.025   7.379  0.4639 -0.8573 -1.2522
  130OSM    H5F14031   1.639   4.097   7.351 -0.2680  1.7893  2.5822
  130OSM    H5G14032   1.610   3.927   7.372  0.0073 -1.2525  0.4956
  130OSM    C6F14033   1.499   4.074   7.512 -0.1966  0.4898 -0.3705
  130OSM    H6F14034   1.437   3.991   7.550  0.3150  0.5005  0.5075
  130OSM    H6G14035   1.431   4.160   7.493 -1.7416 -0.2797  1.4663
  130OSM    C7F14036   1.596   4.130   7.618  0.3863  0.2027  1.0973
  130OSM    H7F14037   1.646   4.217   7.570  1.2827 -1.3409 -0.8887
  130OSM    H7G14038   1.670   4.049   7.631 -1.2407 -1.5225  0.0097
  130OSM    C8F14039   1.514   4.171   7.738 -0.7405 -0.7966  0.1311
  130OSM    H8F14040   1.478   4.077   7.786 -1.1994  0.8293  3.2597
  130OSM    H8G14041   1.420   4.223   7.712  0.1888  0.3231 -1.1025
  130OSM    C9F14042   1.604   4.250   7.828 -0.2796  0.2817 -0.2374
  130OSM    H9F14043   1.622   4.354   7.797  1.2362  0.2389  0.3952
  130OSM   C10F14044   1.655   4.202   7.945 -0.2757  0.1949  0.4181
  130OSM   H10F14045   1.718   4.272   8.001  1.6413 -1.6724  0.7138
  130OSM   C11F14046   1.645   4.061   8.003 -0.2268  0.0386  0.8346
  130OSM   H11F14047   1.749   4.036   8.035  0.1108  0.9844  0.5201
  130OSM   H11G14048   1.602   3.984   7.936  1.5613 -0.8470  0.6250
  130OSM   C12F14049   1.556   4.050   8.130  0.7069 -0.8720  0.1324
  130OSM   H12F14050   1.566   3.947   8.171  0.1048  0.0497  2.8035
  130OSM   H12G14051   1.446   4.070   8.128 -0.0842 -4.1473  2.2973
  130OSM   C13F14052   1.605   4.127   8.252  0.7308 -0.5226 -0.6268
  130OSM   H13F14053   1.709   4.167   8.244 -0.3325  3.1351  1.6365
  130OSM   H13G14054   1.607   4.060   8.341  0.1235  0.6092  0.2562
  130OSM   C14F14055   1.515   4.241   8.293 -0.2893 -0.1235 -0.5824
  130OSM   H14F14056   1.427   4.206   8.352  1.0242 -1.4095  0.7160
  130OSM   H14G14057   1.474   4.290   8.202 -2.2786 -0.4864  0.0621
  130OSM   C15F14058   1.597   4.352   8.365 -0.1248 -0.3579 -0.1428
  130OSM   H15F14059   1.552   4.454   8.376  0.8948  0.1153 -0.2450
  130OSM   H15G14060   1.676   4.375   8.291 -0.1066 -0.5152 -0.1709
  130OSM   C16F14061   1.664   4.294   8.494  0.0309  0.1192 -0.2055
  130OSM   H16F14062   1.741   4.219   8.468 -1.0888 -1.3880  0.6577
  130OSM   H16G14063   1.595   4.240   8.563 -0.1067  0.6426  0.0725
  130OSM   C17F14064   1.726   4.404   8.577 -1.1351 -0.4470  0.0865
  130OSM   H17F14065   1.659   4.486   8.609 -0.3180 -0.3453  1.6167
  130OSM   H17G14066   1.799   4.454   8.508 -1.8917  0.2258 -0.2455
  130OSM   C18F14067   1.788   4.344   8.706 -0.0368 -0.7508 -0.2563
  130OSM   H18F14068   1.715   4.304   8.780  2.8146 -0.4143  2.9526
  130OSM   H18G14069   1.850   4.420   8.757  1.4977 -0.8712 -1.8303
  130OSM   H18H14070   1.863   4.271   8.668  0.4929  0.1140 -0.9115
  131OSM      N14071   0.617   0.911   6.526  0.5240  0.0257  0.3060
  131OSM    C1514072   0.722   0.977   6.617  0.3573 -0.0399 -0.5021
  131OSM   H15A14073   0.817   0.927   6.618 -0.5158 -1.8597 -1.7545
  131OSM   H15B14074   0.692   0.980   6.721  0.1844  0.1379 -0.5550
  131OSM   H15C14075   0.729   1.077   6.576 -1.5690 -0.3681 -1.8000
  131OSM    C1414076   0.500   0.995   6.535  0.5157  0.2224 -0.0212
  131OSM   H14A14077   0.530   1.097   6.519  1.7831  0.2097  2.0363
  131OSM   H14B14078   0.448   0.999   6.629  0.1093  0.3614 -0.2479
  131OSM   H14C14079   0.431   0.965   6.457  2.8032 -2.2746 -1.2547
  131OSM    C1314080   0.676   0.913   6.395  0.0698  0.2250 -0.1206
  131OSM   H13A14081   0.768   0.857   6.402  1.5221  2.4982 -0.1272
  131OSM   H13B14082   0.715   1.008   6.362  0.0169  0.4617  0.4796
  131OSM   H13C14083   0.624   0.865   6.314 -1.8204  2.3111 -0.2433
  131OSM    C1214084   0.584   0.769   6.570 -0.0396 -0.1646 -0.6290
  131OSM   H12A14085   0.513   0.728   6.501 -1.5731 -1.1187  1.4031
  131OSM   H12B14086   0.526   0.778   6.661 -1.3087 -0.9417 -1.3291
  131OSM    C1114087   0.700   0.667   6.586  0.3667 -0.6312 -0.2889
  131OSM   H11A14088   0.653   0.570   6.613 -3.4649  0.9164 -0.6795
  131OSM   H11B14089   0.781   0.701   6.654  2.2888  0.3008 -2.9142
  131OSM      P14090   0.720   0.540   6.356  0.0018 -0.0628 -0.0491
  131OSM    O1314091   0.576   0.518   6.377 -0.1143  0.6501 -0.2127
  131OSM    O1414092   0.758   0.590   6.221  0.3221 -0.0609 -0.1861
  131OSM    O1114093   0.809   0.416   6.402  0.5097  0.2387  0.2568
  131OSM    O1214094   0.766   0.643   6.464 -0.1640 -0.0577 -0.4279
  131OSM    C1S14095   0.949   0.429   6.425  0.2846 -0.1794  0.4184
  131OSM    H1S14096   0.987   0.533   6.415 -1.7794  0.5935  0.0813
  131OSM    H1T14097   1.013   0.368   6.358  0.6414  0.6763 -0.0454
  131OSM     NF14098   1.128   0.426   6.594 -0.5608  0.0311  0.3191
  131OSM    HNF14099   1.192   0.350   6.603 -1.7453 -0.9648  0.7212
  131OSM    C2S14100   0.997   0.383   6.566  0.0416 -0.1732 -0.2453
  131OSM    H2S14101   0.934   0.434   6.643  1.4076  4.1683 -1.7177
  131OSM    C3S14102   0.976   0.228   6.580 -0.2735 -0.4604  0.2477
  131OSM    H3S14103   1.028   0.168   6.502  0.6616  1.5453 -0.7359
  131OSM     O314104   0.836   0.196   6.554  0.1710  0.7372  0.1099
  131OSM    HO314105   0.799   0.277   6.517 -2.8739 -1.3814 -1.9042
  131OSM    C4S14106   1.011   0.177   6.716 -0.1929  0.9194 -0.1012
  131OSM    H4S14107   1.108   0.124   6.714 -0.2137  0.7659  1.5207
  131OSM    C5S14108   0.929   0.165   6.821 -0.2188 -0.1117  0.2144
  131OSM    H5S14109   0.822   0.188   6.809 -0.4224 -2.0216 -2.5217
  131OSM    C6S14110   0.977   0.092   6.946 -0.0830  0.0995  0.0995
  131OSM    H6S14111   1.074   0.041   6.929  0.9613  1.9585  0.2011
  131OSM    H6T14112   0.899   0.020   6.978  1.0059 -0.6265  1.2397
  131OSM    C7S14113   1.003   0.189   7.061 -1.0427 -0.3128  0.3483
  131OSM    H7S14114   0.914   0.252   7.083 -1.9718 -1.8904  1.3139
  131OSM    H7T14115   1.070   0.269   7.021 -1.1162 -0.8277 -0.8646
  131OSM    C8S14116   1.069   0.123   7.179 -0.0686 -0.4789  0.4434
  131OSM    H8S14117   1.174   0.090   7.159  0.7149  1.9853  0.1201
  131OSM    H8T14118   1.012   0.031   7.203 -2.4637 -0.1361 -3.2214
  131OSM    C9S14119   1.089   0.223   7.295  0.1913 -1.2673 -0.4160
  131OSM    H9S14120   0.997   0.285   7.307 -0.1353 -1.9633  0.8915
  131OSM    H9T14121   1.169   0.297   7.274  0.8284 -1.4578  1.2096
  131OSM   C10S14122   1.149   0.158   7.420  0.2849  0.6255 -0.0044
  131OSM   H10S14123   1.260   0.153   7.410  0.1131 -2.7790 -2.2955
  131OSM   H10T14124   1.107   0.055   7.414  1.8584 -0.0585  0.0248
  131OSM   C11S14125   1.119   0.224   7.560  0.1568  0.9007 -0.1936
  131OSM   H11S14126   1.015   0.259   7.580  0.4148  0.9850  1.0436
  131OSM   H11T14127   1.179   0.317   7.545  0.1958  1.2738  2.0216
  131OSM   C12S14128   1.191   0.146   7.672 -0.2595 -0.0917 -0.8459
  131OSM   H12S14129   1.270   0.083   7.626 -0.7154  0.2749 -2.1814
  131OSM   H12T14130   1.116   0.073   7.707  1.0131 -3.0115 -3.6793
  131OSM   C13S14131   1.243   0.230   7.789 -0.1238 -0.3776 -0.9873
  131OSM   H13S14132   1.186   0.325   7.788 -2.3425 -1.6078  0.2138
  131OSM   H13T14133   1.348   0.261   7.775  0.0700 -0.1224  0.7973
  131OSM   C14S14134   1.226   0.178   7.929 -0.3746 -0.3362  0.3539
  131OSM   H14S14135   1.121   0.157   7.959 -0.4751 -0.1123  0.1614
  131OSM   H14T14136   1.248   0.263   7.997  1.3389 -1.9849  1.9997
  131OSM   C15S14137   1.306   0.058   7.978 -0.6409  0.6554  0.1601
  131OSM   H15S14138   1.416   0.058   7.960 -0.4867 -0.6677  0.9410
  131OSM   H15T14139   1.269  -0.032   7.923  1.8247 -0.0290 -0.5285
  131OSM   C16S14140   1.282   0.030   8.135  0.3988 -0.3547 -0.6002
  131OSM   H16S14141   1.183  -0.020   8.134  0.4609 -0.5276 -2.7056
  131OSM   H16T14142   1.274   0.127   8.190  1.6686 -0.8904  0.5850
  131OSM   C17S14143   1.383  -0.068   8.191  0.7368 -0.4391  0.1803
  131OSM   H17S14144   1.364  -0.071   8.300  1.4941  0.2980  0.3484
  131OSM   H17T14145   1.485  -0.024   8.188 -0.6061  2.9845 -0.5791
  131OSM   C18S14146   1.368  -0.208   8.140  0.4722 -0.7488 -0.2280
  131OSM   H18S14147   1.383  -0.200   8.030 -1.0534 -1.3943 -0.5024
  131OSM   H18T14148   1.263  -0.244   8.145  0.3433 -0.3089  0.3168
  131OSM   H18U14149   1.439  -0.282   8.183  0.8469  0.1659  0.7751
  131OSM    C1F14150   1.165   0.553   6.618 -0.4800  0.2686 -0.1585
  131OSM     OF14151   1.089   0.640   6.590 -0.0425 -0.3081  0.9931
  131OSM    C2F14152   1.302   0.573   6.677 -0.2735 -0.4155  0.3385
  131OSM    H2F14153   1.354   0.646   6.612 -0.6752  0.1171  0.6120
  131OSM    H2G14154   1.373   0.488   6.686 -0.1884 -0.6946 -2.2410
  131OSM    C3F14155   1.283   0.645   6.812 -0.3400  0.1964 -0.1901
  131OSM    H3F14156   1.233   0.741   6.786 -0.5697  0.1922  0.2294
  131OSM    H3G14157   1.388   0.661   6.846  0.2233  0.5867 -2.0090
  131OSM    C4F14158   1.204   0.567   6.918  0.3272  0.3655  0.3893
  131OSM    H4F14159   1.258   0.471   6.928  1.6674  0.8798 -1.3785
  131OSM    H4G14160   1.100   0.550   6.884  0.4056  1.0550 -0.2305
  131OSM    C5F14161   1.210   0.649   7.053  0.5534  0.2792 -0.5503
  131OSM    H5F14162   1.207   0.757   7.025  0.2538 -0.0208 -1.7445
  131OSM    H5G14163   1.299   0.623   7.113 -1.2835 -1.5474  1.6054
  131OSM    C6F14164   1.092   0.620   7.152 -0.1451  0.9522  0.5987
  131OSM    H6F14165   1.084   0.510   7.156 -2.6423  1.1105  3.6961
  131OSM    H6G14166   1.004   0.668   7.104 -0.5123 -0.6765 -0.4283
  131OSM    C7F14167   1.111   0.684   7.293 -0.4048 -0.5092 -0.7519
  131OSM    H7F14168   1.013   0.661   7.340 -0.7030  0.6281 -0.8008
  131OSM    H7G14169   1.111   0.795   7.285 -0.5386 -0.6105 -2.5954
  131OSM    C8F14170   1.217   0.623   7.385  0.0329 -0.5042  0.7668
  131OSM    H8F14171   1.318   0.630   7.339  0.9149  1.4070  2.7988
  131OSM    H8G14172   1.201   0.514   7.382  2.3272 -0.8948  0.8065
  131OSM    C9F14173   1.198   0.682   7.525 -0.2235  0.4721 -0.3817
  131OSM    H9F14174   1.120   0.627   7.580  0.8084 -2.2387 -1.4270
  131OSM   C10F14175   1.257   0.780   7.592 -0.0777  0.1615 -0.3240
  131OSM   H10F14176   1.226   0.807   7.694  1.9010  2.8425 -0.3137
  131OSM   C11F14177   1.362   0.867   7.533 -0.4067 -1.1802  0.4020
  131OSM   H11F14178   1.334   0.973   7.553  0.3023 -0.5720 -1.5859
  131OSM   H11G14179   1.368   0.862   7.422  2.1974  0.4248  0.3716
  131OSM   C12F14180   1.501   0.836   7.583 -0.6136  0.2493  1.0215
  131OSM   H12F14181   1.522   0.732   7.550 -3.9807 -0.1645 -0.1720
  131OSM   H12G14182   1.515   0.842   7.693 -1.1491 -1.7831  1.2446
  131OSM   C13F14183   1.610   0.927   7.533  0.1522  1.0263  0.1592
  131OSM   H13F14184   1.605   1.026   7.583  0.8694  2.0170 -1.6224
  131OSM   H13G14185   1.597   0.962   7.428  2.1952  1.2734 -0.0517
  131OSM   C14F14186   1.760   0.882   7.549 -0.1402 -0.4530  0.8763
  131OSM   H14F14187   1.780   0.853   7.655  1.6884  0.9521  0.9832
  131OSM   H14G14188   1.818   0.973   7.524 -0.2247 -0.5110  0.4633
  131OSM   C15F14189   1.809   0.759   7.474 -0.0154  0.2941 -0.0507
  131OSM   H15F14190   1.751   0.669   7.504 -0.4079  0.9039  1.0465
  131OSM   H15G14191   1.919   0.745   7.490 -0.1158 -0.3500  0.1282
  131OSM   C16F14192   1.803   0.784   7.321 -0.0599 -0.4219 -0.4105
  131OSM   H16F14193   1.888   0.727   7.277 -1.6541 -2.1274 -1.4492
  131OSM   H16G14194   1.822   0.888   7.287 -0.9727  0.3551  1.3318
  131OSM   C17F14195   1.674   0.727   7.257  0.3931 -0.2340 -0.0134
  131OSM   H17F14196   1.594   0.797   7.291  1.3060  1.2477 -0.8253
  131OSM   H17G14197   1.642   0.632   7.307  1.5177 -1.1589 -0.9999
  131OSM   C18F14198   1.677   0.695   7.110 -0.0647  0.1475  0.2095
  131OSM   H18F14199   1.571   0.700   7.078  0.2936  0.1250 -1.0432
  131OSM   H18G14200   1.726   0.601   7.077  0.1073  0.6705 -1.0898
  131OSM   H18H14201   1.737   0.771   7.055  1.1899 -1.0630 -0.1650
  132OSM      N14202   1.279   0.230   6.008 -0.2742  0.6869 -0.3312
  132OSM    C1514203   1.333   0.093   6.051 -0.5167 -0.0147  0.4338
  132OSM   H15A14204   1.440   0.109   6.049 -0.7156  1.4513 -0.9432
  132OSM   H15B14205   1.315   0.006   5.988 -0.0924 -0.3452  0.7590
  132OSM   H15C14206   1.312   0.085   6.156 -0.5569  0.2744  0.4472
  132OSM    C1414207   1.307   0.229   5.864  0.1331  0.3618  0.2260
  132OSM   H14A14208   1.286   0.320   5.810  0.7070 -0.2798 -1.1527
  132OSM   H14B14209   1.248   0.154   5.813  2.6350 -0.6315 -1.4619
  132OSM   H14C14210   1.410   0.201   5.848  0.1178 -0.4264  1.4012
  132OSM    C1314211   1.130   0.243   6.035 -0.6377 -0.1790 -0.1052
  132OSM   H13A14212   1.090   0.342   6.018 -0.9257 -0.4177 -0.8706
  132OSM   H13B14213   1.104   0.225   6.139 -0.3311  0.6886  0.1369
  132OSM   H13C14214   1.076   0.172   5.975  1.7391 -0.1676 -2.4029
  132OSM    C1214215   1.342   0.345   6.077 -0.2216  0.3012 -0.4763
  132OSM   H12A14216   1.299   0.438   6.041  1.2139  1.2021  0.0414
  132OSM   H12B14217   1.446   0.355   6.052 -0.1586  0.5497 -0.1222
  132OSM    C1114218   1.338   0.343   6.233  0.9906 -0.1190  0.0626
  132OSM   H11A14219   1.237   0.309   6.266  0.7629 -0.1084 -0.5989
  132OSM   H11B14220   1.360   0.445   6.272 -2.0795  0.6431  0.0791
  132OSM      P14221   1.586   0.258   6.283 -0.0203 -0.3641  0.1472
  132OSM    O1314222   1.635   0.152   6.373  0.2415 -0.2019  0.5722
  132OSM    O1414223   1.623   0.253   6.143  0.0521  0.0103 -0.5320
  132OSM    O1114224   1.621   0.405   6.330 -0.1015  0.1062 -0.4005
  132OSM    O1214225   1.425   0.250   6.295  0.2604  0.3798  0.1229
  132OSM    C1S14226   1.593   0.440   6.469 -0.4569  0.0460  0.2836
  132OSM    H1S14227   1.512   0.380   6.516 -0.0367 -0.7221  0.0486
  132OSM    H1T14228   1.556   0.544   6.456 -0.7342 -0.1276 -0.3538
  132OSM     NF14229   1.681   0.452   6.697 -0.0522 -0.6800 -0.6216
  132OSM    HNF14230   1.682   0.545   6.733 -3.6520 -0.8554  0.3395
  132OSM    C2S14231   1.719   0.436   6.559  0.1195  0.4507  0.7493
  132OSM    H2S14232   1.765   0.335   6.556 -3.5949 -1.3954 -0.1883
  132OSM    C3S14233   1.815   0.542   6.503 -0.2044 -0.3322  0.2017
  132OSM    H3S14234   1.766   0.642   6.503  1.2613  0.4156 -0.5193
  132OSM     O314235   1.858   0.517   6.371  0.0726  0.6106 -0.3485
  132OSM    HO314236   1.780   0.477   6.333 -0.8706  2.2064 -0.1730
  132OSM    C4S14237   1.937   0.552   6.590  0.6052  0.7142  0.2721
  132OSM    H4S14238   2.003   0.464   6.588 -0.2269  0.0237  1.5703
  132OSM    C5S14239   1.976   0.656   6.666  0.2970 -0.3961  0.3244
  132OSM    H5S14240   1.910   0.744   6.670 -0.0619 -0.6294 -0.2397
  132OSM    C6S14241   2.099   0.643   6.745  0.4007  0.0975 -0.2649
  132OSM    H6S14242   2.176   0.721   6.724  0.0472  0.9729  1.4892
  132OSM    H6T14243   2.142   0.542   6.733  2.0327  0.7490 -0.1919
  132OSM    C7S14244   2.093   0.665   6.897 -0.5561  0.0345 -0.0652
  132OSM    H7S14245   2.022   0.598   6.951  0.1591 -1.5814 -1.0621
  132OSM    H7T14246   2.056   0.769   6.913  1.6685  0.4105  3.6247
  132OSM    C8S14247   2.239   0.661   6.954  0.4303 -0.2435 -0.2839
  132OSM    H8S14248   2.285   0.753   6.913 -3.5530  2.8236  1.5114
  132OSM    H8T14249   2.297   0.580   6.905  0.3440 -0.7141  0.3782
  132OSM    C9S14250   2.262   0.652   7.108  0.0998 -0.3780 -0.0277
  132OSM    H9S14251   2.371   0.631   7.117  1.0792  1.9007 -4.0261
  132OSM    H9T14252   2.209   0.559   7.137 -0.5678  0.0253  0.0860
  132OSM   C10S14253   2.204   0.771   7.186  0.8218  0.3000 -0.6783
  132OSM   H10S14254   2.093   0.777   7.175  0.6552  2.1566  1.3946
  132OSM   H10T14255   2.254   0.861   7.146  3.0690 -1.8459 -3.0050
  132OSM   C11S14256   2.245   0.759   7.334 -0.6208  0.1695 -0.3263
  132OSM   H11S14257   2.355   0.740   7.333 -0.3559  1.5906 -1.5847
  132OSM   H11T14258   2.200   0.672   7.386 -0.4188 -1.0803 -2.1663
  132OSM   C12S14259   2.227   0.892   7.412 -0.4534  0.3908 -0.0906
  132OSM   H12S14260   2.123   0.931   7.409 -0.2979  1.6044  3.8030
  132OSM   H12T14261   2.290   0.974   7.372 -0.0445 -1.0075 -2.4968
  132OSM   C13S14262   2.254   0.863   7.559  0.3299 -0.7442 -0.4142
  132OSM   H13S14263   2.361   0.835   7.569  0.3536 -1.8877 -3.1345
  132OSM   H13T14264   2.193   0.776   7.591 -0.2156 -0.7757 -1.5010
  132OSM   C14S14265   2.226   0.985   7.642  0.3906  0.2605 -1.0190
  132OSM   H14S14266   2.129   1.029   7.612 -1.6443 -2.3563  1.1651
  132OSM   H14T14267   2.301   1.064   7.618 -0.4796  2.2665  2.1996
  132OSM   C15S14268   2.220   0.959   7.795  0.4283  0.2238  0.3266
  132OSM   H15S14269   2.250   1.052   7.847 -0.5499  1.8928 -1.9226
  132OSM   H15T14270   2.287   0.871   7.808  1.1086  0.6699 -0.1275
  132OSM   C16S14271   2.083   0.907   7.851 -0.5571 -0.2218 -0.0233
  132OSM   H16S14272   2.039   0.826   7.788 -0.6132 -1.5873  1.6696
  132OSM   H16T14273   2.020   0.997   7.835 -1.0192 -0.1045  2.1252
  132OSM   C17S14274   2.082   0.866   8.005 -0.6183  0.0571  0.2237
  132OSM   H17S14275   2.106   0.960   8.059 -0.3739  0.9210 -1.3227
  132OSM   H17T14276   2.152   0.782   8.026 -1.2717 -0.1379  1.7087
  132OSM   C18S14277   1.945   0.824   8.053 -0.5070  0.3977  0.8245
  132OSM   H18S14278   1.928   0.716   8.031 -0.6893  0.4015  0.9380
  132OSM   H18T14279   1.859   0.886   8.019 -0.4616 -0.2481 -0.5284
  132OSM   H18U14280   1.949   0.837   8.164  0.7740  0.0181  0.8393
  132OSM    C1F14281   1.616   0.360   6.764  0.7738 -1.0732 -0.2154
  132OSM     OF14282   1.587   0.250   6.712  0.5562 -0.6095  0.0798
  132OSM    C2F14283   1.570   0.398   6.896  0.5093 -0.6503  0.6463
  132OSM    H2F14284   1.513   0.492   6.910  1.7327 -0.2370  3.6402
  132OSM    H2G14285   1.663   0.413   6.954 -0.8592  1.4557  2.4931
  132OSM    C3F14286   1.477   0.290   6.960 -0.2817 -0.3308 -0.4343
  132OSM    H3F14287   1.530   0.192   6.963 -1.8567 -1.2406 -0.8926
  132OSM    H3G14288   1.388   0.276   6.895  0.1703 -3.0856 -0.6029
  132OSM    C4F14289   1.432   0.312   7.106  0.4698 -0.2920 -1.1530
  132OSM    H4F14290   1.369   0.230   7.146 -1.1450  1.2537 -0.3912
  132OSM    H4G14291   1.371   0.404   7.118  1.4329  0.1124  1.4771
  132OSM    C5F14292   1.553   0.329   7.200  0.0056  0.4225 -0.5544
  132OSM    H5F14293   1.612   0.420   7.173  2.5023 -1.1497 -0.7618
  132OSM    H5G14294   1.615   0.237   7.196 -2.4010 -1.3073 -0.0143
  132OSM    C6F14295   1.512   0.342   7.346 -1.0048 -0.4096 -0.1478
  132OSM    H6F14296   1.453   0.252   7.371  2.6242 -3.8350 -2.7415
  132OSM    H6G14297   1.446   0.432   7.352  1.0139  1.2966 -1.7904
  132OSM    C7F14298   1.635   0.341   7.438  0.5076 -0.4148 -0.3075
  132OSM    H7F14299   1.705   0.423   7.411  0.8250 -0.1067  1.3147
  132OSM    H7G14300   1.698   0.251   7.423  0.8133 -0.2698  0.0794
  132OSM    C8F14301   1.593   0.365   7.588 -0.5282  0.5463 -0.5466
  132OSM    H8F14302   1.511   0.293   7.612 -1.1418  1.3553 -0.1419
  132OSM    H8G14303   1.550   0.467   7.595 -0.1471  0.7075 -0.5729
  132OSM    C9F14304   1.709   0.346   7.677 -0.3298  0.1574  0.0664
  132OSM    H9F14305   1.780   0.274   7.634  0.5137  2.1194 -1.9754
  132OSM   C10F14306   1.731   0.419   7.787 -0.0108 -0.5286  0.2316
  132OSM   H10F14307   1.817   0.392   7.851 -0.0839 -0.5397  0.3266
  132OSM   C11F14308   1.654   0.532   7.847 -0.1119 -0.3393  0.0549
  132OSM   H11F14309   1.606   0.591   7.766 -0.0495 -0.2127  0.1094
  132OSM   H11G14310   1.721   0.606   7.896 -0.6021  1.8029 -2.3285
  132OSM   C12F14311   1.553   0.465   7.933 -0.1735  0.6040 -0.5577
  132OSM   H12F14312   1.482   0.403   7.874 -2.0021  1.0555  1.0583
  132OSM   H12G14313   1.484   0.546   7.966  0.9016  1.6288 -0.7492
  132OSM   C13F14314   1.592   0.393   8.064  0.1631  0.5948  0.4853
  132OSM   H13F14315   1.665   0.457   8.118  0.2408  2.6960 -1.9126
  132OSM   H13G14316   1.638   0.295   8.038  0.6784  0.8250  0.5200
  132OSM   C14F14317   1.481   0.378   8.164 -0.5490 -0.9754  0.3672
  132OSM   H14F14318   1.412   0.306   8.114 -0.3050 -1.4658  0.7252
  132OSM   H14G14319   1.425   0.473   8.176 -1.0363 -0.8581 -2.2141
  132OSM   C15F14320   1.527   0.313   8.293 -0.2850 -0.1069 -0.4355
  132OSM   H15F14321   1.610   0.241   8.278 -0.3431 -0.4815  0.8848
  132OSM   H15G14322   1.439   0.253   8.324  1.7449 -3.6258 -0.9291
  132OSM   C16F14323   1.573   0.408   8.404  0.4005 -0.1806 -0.5222
  132OSM   H16F14324   1.643   0.484   8.364 -1.3227  0.8013 -1.7936
  132OSM   H16G14325   1.627   0.354   8.485 -0.3242 -0.4991 -0.2415
  132OSM   C17F14326   1.448   0.467   8.466  0.0121  0.5543  0.9940
  132OSM   H17F14327   1.395   0.379   8.508 -0.9742  0.6125 -0.0707
  132OSM   H17G14328   1.392   0.523   8.388  0.5670 -0.7455 -0.3876
  132OSM   C18F14329   1.477   0.571   8.573 -0.7065  0.3159  0.0669
  132OSM   H18F14330   1.529   0.519   8.655  1.6540  1.1993 -0.7884
  132OSM   H18G14331   1.381   0.606   8.618 -0.5511  1.2668 -0.3061
  132OSM   H18H14332   1.534   0.656   8.528  1.3894 -1.1335 -0.1022
  133OSM      N14333   1.348   1.135   6.193  0.2537 -0.4746  1.2926
  133OSM    C1514334   1.238   1.230   6.159 -0.2846  0.3191  0.2863
  133OSM   H15A14335   1.148   1.170   6.153  0.3580 -0.5217 -1.7690
  133OSM   H15B14336   1.242   1.279   6.063 -0.4242  1.0262  0.6372
  133OSM   H15C14337   1.227   1.306   6.235 -0.3749  1.5334 -0.9025
  133OSM    C1414338   1.334   1.017   6.099  0.2585  0.6873 -0.2652
  133OSM   H14A14339   1.237   0.971   6.098  0.5967 -0.0681  0.2214
  133OSM   H14B14340   1.410   0.945   6.125  1.1743  1.6228 -0.2708
  133OSM   H14C14341   1.353   1.041   5.996  2.6804 -3.2135 -0.9152
  133OSM    C1314342   1.481   1.200   6.177  0.7609 -0.2819  0.1844
  133OSM   H13A14343   1.509   1.294   6.221  0.2832 -0.7007  1.4255
  133OSM   H13B14344   1.495   1.223   6.073 -1.9754  0.4526 -0.1001
  133OSM   H13C14345   1.559   1.136   6.216  0.4094 -1.0649 -0.3691
  133OSM    C1214346   1.329   1.082   6.336 -0.3010  0.0485  0.1747
  133OSM   H12A14347   1.407   1.009   6.352 -1.3809 -2.4917 -4.3592
  133OSM   H12B14348   1.239   1.024   6.347 -1.0964  1.2459  0.1735
  133OSM    C1114349   1.324   1.179   6.456  0.6166 -0.6697 -0.5982
  133OSM   H11A14350   1.415   1.242   6.452 -0.0270  0.4316  0.9459
  133OSM   H11B14351   1.337   1.125   6.553  0.2859 -0.0549 -0.2043
  133OSM      P14352   1.068   1.188   6.504 -0.3710 -0.5391 -0.2008
  133OSM    O1314353   0.950   1.267   6.459 -0.2657 -0.0709 -0.1896
  133OSM    O1414354   1.072   1.046   6.462 -0.2935  0.1330  0.7677
  133OSM    O1114355   1.073   1.190   6.659  0.4517  0.3702 -0.7850
  133OSM    O1214356   1.204   1.262   6.457 -0.5170  0.5008 -0.4377
  133OSM    C1S14357   1.123   1.314   6.732  0.8082  0.5209  0.2169
  133OSM    H1S14358   1.036   1.383   6.732 -0.7375 -1.3253 -0.7499
  133OSM    H1T14359   1.210   1.365   6.684  1.2663  0.1840  0.6775
  133OSM     NF14360   1.200   1.415   6.950  0.6003 -0.6404 -0.3466
  133OSM    HNF14361   1.288   1.436   6.992  0.9984 -1.0984 -0.9480
  133OSM    C2S14362   1.171   1.286   6.886 -0.0298  0.2297  0.5660
  133OSM    H2S14363   1.082   1.249   6.941 -0.5696  2.1632  1.0743
  133OSM    C3S14364   1.286   1.181   6.888  0.3712 -0.1370  0.5272
  133OSM    H3S14365   1.373   1.230   6.839  0.0544 -2.9221 -3.2935
  133OSM     O314366   1.259   1.053   6.826 -0.5822 -0.4428  0.3821
  133OSM    HO314367   1.195   1.083   6.761  2.1774 -1.8392 -3.4001
  133OSM    C4S14368   1.328   1.167   7.028  0.2145  0.3826 -0.2407
  133OSM    H4S14369   1.406   1.239   7.054 -0.1340  0.1652  1.5193
  133OSM    C5S14370   1.292   1.075   7.129 -1.1967 -0.2572  0.3596
  133OSM    H5S14371   1.225   0.992   7.102 -0.4733 -0.6630 -0.2384
  133OSM    C6S14372   1.351   1.081   7.270  0.4698 -0.0571  0.4594
  133OSM    H6S14373   1.431   1.006   7.289 -0.0478 -0.8379 -0.3221
  133OSM    H6T14374   1.264   1.051   7.332  1.2891 -0.4842  1.4258
  133OSM    C7S14375   1.388   1.222   7.322  0.1032 -0.4061 -0.5499
  133OSM    H7S14376   1.463   1.266   7.253  2.4767 -3.0652  0.1207
  133OSM    H7T14377   1.447   1.202   7.415  0.2451 -4.0283 -1.2460
  133OSM    C8S14378   1.268   1.316   7.361 -0.1535 -0.7324  0.2766
  133OSM    H8S14379   1.197   1.325   7.276  1.4444 -0.6202 -1.1012
  133OSM    H8T14380   1.305   1.420   7.373 -2.5618  0.6375 -2.6515
  133OSM    C9S14381   1.205   1.279   7.497 -0.1031 -0.7024  0.9195
  133OSM    H9S14382   1.296   1.271   7.561  1.1073  0.7795 -0.5335
  133OSM    H9T14383   1.155   1.181   7.482 -1.5406  0.2807 -1.0757
  133OSM   C10S14384   1.118   1.371   7.566  1.0182 -0.4023 -0.0375
  133OSM   H10S14385   1.022   1.380   7.510 -0.3625  2.2963  2.4834
  133OSM   H10T14386   1.169   1.468   7.581  1.7024 -0.6960 -0.4294
  133OSM   C11S14387   1.073   1.324   7.708 -0.2273  0.0743 -0.3443
  133OSM   H11S14388   0.991   1.249   7.711 -0.0357 -0.1208  1.4732
  133OSM   H11T14389   1.041   1.417   7.759  1.2188  0.7089 -0.5458
  133OSM   C12S14390   1.186   1.274   7.809  0.5765  0.5835 -0.3925
  133OSM   H12S14391   1.147   1.298   7.910 -1.2372 -0.3690 -0.8230
  133OSM   H12T14392   1.280   1.333   7.803  0.8074  0.9598  3.9545
  133OSM   C13S14393   1.200   1.117   7.818  0.2570  0.2869 -0.3964
  133OSM   H13S14394   1.242   1.064   7.730 -2.7261 -1.4062 -0.9216
  133OSM   H13T14395   1.097   1.077   7.829 -0.1299  1.4872  0.6600
  133OSM   C14S14396   1.265   1.053   7.948 -0.4864  0.4443 -0.0033
  133OSM   H14S14397   1.187   1.061   8.026 -0.9246 -0.1286 -0.3661
  133OSM   H14T14398   1.362   1.102   7.970 -1.3875  1.6194  1.5981
  133OSM   C15S14399   1.301   0.901   7.933  0.6589 -0.1141 -0.1885
  133OSM   H15S14400   1.373   0.878   7.852 -2.1597 -1.6423 -2.4350
  133OSM   H15T14401   1.214   0.840   7.901  1.2926 -0.4490 -1.2978
  133OSM   C16S14402   1.351   0.840   8.064 -0.3284 -0.5437 -0.0164
  133OSM   H16S14403   1.373   0.731   8.059  1.1980 -0.2615 -0.0562
  133OSM   H16T14404   1.290   0.874   8.151 -0.8302  1.9811 -1.2444
  133OSM   C17S14405   1.494   0.888   8.094 -0.5058  0.0805 -0.5650
  133OSM   H17S14406   1.499   0.995   8.124 -1.6088  0.3750 -1.3577
  133OSM   H17T14407   1.563   0.870   8.009 -1.1448  0.0913 -1.0921
  133OSM   C18S14408   1.543   0.811   8.215 -0.7092 -0.0551  0.0562
  133OSM   H18S14409   1.647   0.838   8.241 -0.4363 -0.7435 -0.3017
  133OSM   H18T14410   1.542   0.700   8.211 -1.6800 -0.0207 -2.1305
  133OSM   H18U14411   1.486   0.835   8.308  2.4382  0.3709  2.0395
  133OSM    C1F14412   1.107   1.514   6.979 -0.1304  0.4069 -0.2557
  133OSM     OF14413   0.989   1.484   6.983 -0.6410 -0.2407 -0.0533
  133OSM    C2F14414   1.166   1.648   6.989 -0.2735 -0.7501 -0.3934
  133OSM    H2F14415   1.112   1.711   6.914 -1.5052 -1.7196 -0.3610
  133OSM    H2G14416   1.276   1.646   6.975 -0.3127 -2.1650 -0.6294
  133OSM    C3F14417   1.151   1.718   7.132  0.2683 -0.1719  0.3642
  133OSM    H3F14418   1.187   1.644   7.207 -1.9443 -1.5625  0.1594
  133OSM    H3G14419   1.040   1.728   7.142  0.3182  0.9866 -0.1079
  133OSM    C4F14420   1.213   1.859   7.136  0.3085 -0.3940 -0.2438
  133OSM    H4F14421   1.158   1.907   7.052  0.6851 -1.0788 -0.9039
  133OSM    H4G14422   1.321   1.864   7.108  0.9014 -2.5322  1.3805
  133OSM    C5F14423   1.170   1.935   7.261  0.2006 -0.4000  0.1755
  133OSM    H5F14424   1.214   1.890   7.353  0.3411 -1.4555 -0.3856
  133OSM    H5G14425   1.061   1.915   7.261  0.3363 -1.3107 -1.8026
  133OSM    C6F14426   1.213   2.088   7.263  0.1561  0.5390  0.0800
  133OSM    H6F14427   1.130   2.147   7.218 -0.1525 -1.1691 -1.7354
  133OSM    H6G14428   1.302   2.091   7.197  0.6981  0.2120  0.7966
  133OSM    C7F14429   1.260   2.124   7.400  0.1481 -0.0398 -0.2080
  133OSM    H7F14430   1.343   2.197   7.395  3.7773 -3.7654  0.4821
  133OSM    H7G14431   1.317   2.041   7.446 -1.4995  0.1893  2.4421
  133OSM    C8F14432   1.146   2.178   7.496  0.1000  0.0842 -0.3498
  133OSM    H8F14433   1.111   2.269   7.442  1.0535  1.4049  1.1589
  133OSM    H8G14434   1.195   2.228   7.583  0.7568 -0.6066 -0.3164
  133OSM    C9F14435   1.036   2.090   7.548  0.4739  0.7511  0.3202
  133OSM    H9F14436   0.956   2.067   7.477  0.4821 -0.5647  0.7184
  133OSM   C10F14437   1.022   2.026   7.667 -0.6634 -0.3025 -0.3659
  133OSM   H10F14438   0.933   1.964   7.681  1.4267 -3.1455  1.5461
  133OSM   C11F14439   1.122   2.024   7.780 -0.0850  0.1913 -0.3578
  133OSM   H11F14440   1.188   2.114   7.780  1.4880 -0.8951  0.7795
  133OSM   H11G14441   1.186   1.934   7.765 -2.0948 -1.3361 -0.1348
  133OSM   C12F14442   1.067   2.010   7.925  0.0158  0.0900 -0.0370
  133OSM   H12F14443   1.006   1.918   7.934 -0.2752  0.3175  0.3739
  133OSM   H12G14444   1.002   2.096   7.954  0.4221  0.5252 -0.4139
  133OSM   C13F14445   1.177   2.004   8.031 -0.4129  0.1830  0.2622
  133OSM   H13F14446   1.221   2.106   8.033  0.7609 -0.2553 -1.3114
  133OSM   H13G14447   1.254   1.936   7.990  0.4307  1.0864  0.3239
  133OSM   C14F14448   1.126   1.955   8.171  0.2528  0.1583  0.1736
  133OSM   H14F14449   1.214   1.935   8.237  0.2215 -0.3848  0.0559
  133OSM   H14G14450   1.077   1.858   8.147 -1.6491  1.1005  0.0408
  133OSM   C15F14451   1.024   2.055   8.234 -0.0424 -0.4395  0.2673
  133OSM   H15F14452   0.943   2.071   8.160 -0.1858 -0.9784  0.2983
  133OSM   H15G14453   1.064   2.158   8.245 -1.9352  0.3392  0.2941
  133OSM   C16F14454   0.952   2.007   8.364 -0.1255 -0.4211 -0.6027
  133OSM   H16F14455   1.027   2.003   8.445 -0.3085 -0.3711 -0.4304
  133OSM   H16G14456   0.899   1.910   8.348 -1.6493  0.3865 -0.6020
  133OSM   C17F14457   0.845   2.105   8.407  0.5066 -0.4187 -0.2476
  133OSM   H17F14458   0.767   2.121   8.330  0.0415  2.1429  0.6430
  133OSM   H17G14459   0.897   2.202   8.422 -0.2940  0.2027 -1.3437
  133OSM   C18F14460   0.794   2.059   8.539 -0.4350  0.0220  0.0156
  133OSM   H18F14461   0.700   2.111   8.563 -0.0546  0.7656 -0.0784
  133OSM   H18G14462   0.868   2.068   8.621 -0.6559 -1.5235  0.4217
  133OSM   H18H14463   0.768   1.951   8.528  1.7703 -0.5276 -0.3419
  134OSM      N14464   2.896   3.372   6.551 -0.1613 -0.3461 -0.1050
  134OSM    C1514465   2.883   3.287   6.671  0.4233 -0.0870 -1.1759
  134OSM   H15A14466   2.781   3.293   6.706  0.7973 -2.9250  0.7522
  134OSM   H15B14467   2.947   3.289   6.758  0.0831  1.0079 -0.9262
  134OSM   H15C14468   2.898   3.184   6.642  0.1067 -0.9662  1.5130
  134OSM    C1414469   3.032   3.338   6.489 -0.1231  0.6161 -0.5561
  134OSM   H14A14470   3.059   3.397   6.402 -1.7760  1.0250 -0.8362
  134OSM   H14B14471   3.033   3.236   6.453 -1.4533  0.6138 -0.6298
  134OSM   H14C14472   3.111   3.352   6.561 -1.9122  0.8561  1.4762
  134OSM    C1314473   2.785   3.330   6.452  0.1788  0.3550 -0.3531
  134OSM   H13A14474   2.685   3.359   6.483 -0.9566  0.3739 -3.5860
  134OSM   H13B14475   2.781   3.224   6.434 -0.4106  0.3818 -0.3982
  134OSM   H13C14476   2.796   3.386   6.360  0.5369  0.6433 -0.1356
  134OSM    C1214477   2.892   3.517   6.586 -0.4086 -0.0696 -0.2174
  134OSM   H12A14478   2.918   3.579   6.501 -0.6814 -0.3868 -0.5372
  134OSM   H12B14479   2.974   3.530   6.655 -0.3767 -0.7232 -0.1327
  134OSM    C1114480   2.763   3.575   6.635  0.6848 -0.1744 -0.3194
  134OSM   H11A14481   2.791   3.660   6.701 -4.9702  1.3620  0.5867
  134OSM   H11B14482   2.697   3.496   6.675  0.5398 -0.3549 -0.9127
  134OSM      P14483   2.612   3.769   6.516  0.1727 -0.2366 -0.1954
  134OSM    O1314484   2.709   3.870   6.469 -0.3494 -0.3167 -0.2658
  134OSM    O1414485   2.492   3.750   6.430  0.3452 -0.4405 -0.1859
  134OSM    O1114486   2.559   3.799   6.666  0.2433  0.1261  0.5350
  134OSM    O1214487   2.697   3.631   6.522  0.3066 -0.2301  0.1426
  134OSM    C1S14488   2.452   3.717   6.712  0.0282  0.2807  0.2632
  134OSM    H1S14489   2.487   3.612   6.726 -2.1257 -1.0123 -3.0275
  134OSM    H1T14490   2.366   3.722   6.643  0.1004 -0.4643  0.1061
  134OSM     NF14491   2.312   3.684   6.916 -0.7478  0.1193 -0.5323
  134OSM    HNF14492   2.218   3.669   6.888 -0.8332 -1.4410  0.4313
  134OSM    C2S14493   2.392   3.781   6.840  0.5569  0.3117 -0.3015
  134OSM    H2S14494   2.479   3.810   6.902  1.1385  2.1952 -1.9073
  134OSM    C3S14495   2.308   3.905   6.797 -0.7651 -0.2302 -0.1268
  134OSM    H3S14496   2.217   3.863   6.750 -0.8117  0.0586 -0.2983
  134OSM     O314497   2.368   3.980   6.689  0.2290  0.4215  0.3551
  134OSM    HO314498   2.433   3.921   6.653  2.2029  1.7184  1.6008
  134OSM    C4S14499   2.281   3.979   6.919 -0.3091 -0.3605 -1.1158
  134OSM    H4S14500   2.188   3.955   6.973  0.1574  1.2438  0.5067
  134OSM    C5S14501   2.353   4.075   6.975 -0.4845 -0.0718 -1.3659
  134OSM    H5S14502   2.452   4.091   6.930  0.0546 -2.4606 -1.1574
  134OSM    C6S14503   2.322   4.146   7.104  0.7109 -0.5508 -0.0948
  134OSM    H6S14504   2.255   4.233   7.090 -0.8469 -1.5453  0.8475
  134OSM    H6T14505   2.415   4.188   7.147 -0.1156 -2.3618  3.9738
  134OSM    C7S14506   2.268   4.061   7.222  0.4424 -0.4079  0.3751
  134OSM    H7S14507   2.337   3.977   7.245 -1.9690 -1.8914  2.8360
  134OSM    H7T14508   2.169   4.020   7.194  0.5320  0.1373 -0.7870
  134OSM    C8S14509   2.271   4.153   7.352 -0.0426 -0.2927  0.3158
  134OSM    H8S14510   2.181   4.217   7.366  0.9158  1.1073  0.2797
  134OSM    H8T14511   2.348   4.232   7.340  1.6047 -1.6617  1.4926
  134OSM    C9S14512   2.297   4.078   7.486  0.2850  0.2332 -0.3860
  134OSM    H9S14513   2.371   3.998   7.465  1.0579  0.2997  1.7857
  134OSM    H9T14514   2.202   4.041   7.529  0.6692 -0.6643 -0.2898
  134OSM   C10S14515   2.358   4.158   7.600 -0.0711  0.2376 -0.1343
  134OSM   H10S14516   2.311   4.255   7.628  1.0610  0.5287  0.8460
  134OSM   H10T14517   2.463   4.178   7.570  0.4157 -2.2628 -0.3429
  134OSM   C11S14518   2.365   4.078   7.737 -0.1805  0.3774 -0.1672
  134OSM   H11S14519   2.447   4.004   7.737 -2.8992 -2.9206 -1.1584
  134OSM   H11T14520   2.268   4.025   7.752  0.6776 -1.4270 -0.6857
  134OSM   C12S14521   2.408   4.160   7.865  0.1562 -0.0509  0.1282
  134OSM   H12S14522   2.343   4.244   7.899 -0.3513  0.3828 -1.7756
  134OSM   H12T14523   2.501   4.217   7.844  0.0008  0.6271  1.2053
  134OSM   C13S14524   2.432   4.077   7.993 -0.0870  0.0563 -0.3590
  134OSM   H13S14525   2.514   4.004   7.977 -0.2753 -0.0012 -1.1128
  134OSM   H13T14526   2.337   4.022   8.010  0.4907 -0.6439  0.7212
  134OSM   C14S14527   2.468   4.177   8.104 -0.2348 -0.3115 -0.9968
  134OSM   H14S14528   2.383   4.246   8.122 -0.8840 -0.7513 -2.2658
  134OSM   H14T14529   2.552   4.238   8.066 -0.5591 -0.4225 -1.8961
  134OSM   C15S14530   2.501   4.096   8.233 -0.7526  0.5206 -0.3002
  134OSM   H15S14531   2.592   4.035   8.215 -0.9887 -0.0553  0.4005
  134OSM   H15T14532   2.408   4.037   8.251  0.6317 -1.4363  0.9696
  134OSM   C16S14533   2.523   4.194   8.347 -0.5894  0.0793 -0.0679
  134OSM   H16S14534   2.424   4.239   8.369 -0.5780  0.9171 -1.6143
  134OSM   H16T14535   2.595   4.275   8.325  1.8925 -1.6143  1.2301
  134OSM   C17S14536   2.571   4.127   8.478  0.4511 -0.7443  0.5877
  134OSM   H17S14537   2.600   4.209   8.547 -2.1565  0.8066 -0.0150
  134OSM   H17T14538   2.668   4.074   8.461  1.8208  1.4574  1.1986
  134OSM   C18S14539   2.466   4.036   8.550 -0.5243 -0.6827 -0.2626
  134OSM   H18S14540   2.443   3.949   8.484 -0.5514 -0.6608 -0.2825
  134OSM   H18T14541   2.370   4.089   8.567  1.2944  2.6514  0.5369
  134OSM   H18U14542   2.499   4.006   8.653  1.1826  2.1183  0.1081
  134OSM    C1F14543   2.356   3.579   6.979 -0.1553 -0.7347 -0.1987
  134OSM     OF14544   2.474   3.551   6.997 -0.3392 -0.2023  0.7301
  134OSM    C2F14545   2.247   3.480   7.034  0.7256 -0.2410  0.0355
  134OSM    H2F14546   2.307   3.392   7.064 -1.7225 -1.6602  1.0382
  134OSM    H2G14547   2.174   3.455   6.955  0.4458 -1.7308  0.7432
  134OSM    C3F14548   2.185   3.526   7.162  0.1535 -0.0642  0.1118
  134OSM    H3F14549   2.114   3.442   7.182  0.3441 -0.5719 -1.2613
  134OSM    H3G14550   2.123   3.617   7.150 -2.0231 -1.4156  0.4436
  134OSM    C4F14551   2.273   3.547   7.283  0.2525  0.5779 -0.5870
  134OSM    H4F14552   2.322   3.645   7.266 -0.2446  0.5646 -2.2829
  134OSM    H4G14553   2.360   3.479   7.293  0.5167  1.1971  2.1858
  134OSM    C5F14554   2.195   3.543   7.418  0.3232 -0.2489 -0.6824
  134OSM    H5F14555   2.167   3.438   7.442 -0.3638  0.5313  2.2148
  134OSM    H5G14556   2.102   3.602   7.415 -0.5652 -1.5944 -0.4459
  134OSM    C6F14557   2.293   3.570   7.532 -0.9232 -0.6209  0.8745
  134OSM    H6F14558   2.370   3.491   7.528 -1.1199 -0.8849 -4.0650
  134OSM    H6G14559   2.235   3.541   7.622 -1.9053  1.3111  0.9097
  134OSM    C7F14560   2.348   3.711   7.544  0.7201 -0.1370  0.1873
  134OSM    H7F14561   2.270   3.789   7.553  0.4106 -0.2344 -1.3307
  134OSM    H7G14562   2.408   3.739   7.455 -0.5742 -1.8480 -1.2978
  134OSM    C8F14563   2.449   3.722   7.656  0.2584 -0.3219 -0.5874
  134OSM    H8F14564   2.527   3.796   7.628 -2.9115  4.2111  1.2666
  134OSM    H8G14565   2.509   3.629   7.656  1.0103  0.1497 -1.0596
  134OSM    C9F14566   2.394   3.744   7.795  0.3510 -0.4053 -0.0799
  134OSM    H9F14567   2.298   3.794   7.815  0.3304 -1.2452  2.2100
  134OSM   C10F14568   2.447   3.695   7.906 -0.3043 -0.7038 -0.1601
  134OSM   H10F14569   2.395   3.707   8.002 -0.1754  1.3981 -0.3175
  134OSM   C11F14570   2.573   3.614   7.907 -0.4368  0.0910  0.0412
  134OSM   H11F14571   2.626   3.609   7.809 -0.7469 -1.5912 -0.0676
  134OSM   H11G14572   2.566   3.509   7.942  1.3144 -0.1941 -0.3463
  134OSM   C12F14573   2.673   3.684   8.000  0.1925 -0.3492  0.2824
  134OSM   H12F14574   2.692   3.784   7.956  2.0677 -1.4010 -1.5164
  134OSM   H12G14575   2.772   3.634   7.986  1.1170  1.1919  1.0566
  134OSM   C13F14576   2.644   3.684   8.145 -0.1785  0.5986 -0.8394
  134OSM   H13F14577   2.627   3.575   8.162  1.1698  0.2205 -1.7691
  134OSM   H13G14578   2.548   3.738   8.162 -0.0084  0.9958 -1.1261
  134OSM   C14F14579   2.748   3.734   8.248  0.0949  0.2780 -0.6103
  134OSM   H14F14580   2.761   3.844   8.239 -1.1028  0.4755 -0.2093
  134OSM   H14G14581   2.848   3.690   8.230  1.3336  2.1401  1.3380
  134OSM   C15F14582   2.695   3.708   8.394 -1.0055 -0.1217  0.2911
  134OSM   H15F14583   2.668   3.600   8.404  0.1268 -0.3714  0.8700
  134OSM   H15G14584   2.599   3.763   8.401 -0.2044  1.3353  0.1066
  134OSM   C16F14585   2.789   3.734   8.515 -0.2160  0.4901 -0.5765
  134OSM   H16F14586   2.734   3.702   8.606  1.7656 -1.2750  0.0860
  134OSM   H16G14587   2.820   3.838   8.535  0.8434 -0.1043  1.1069
  134OSM   C17F14588   2.918   3.642   8.501  0.2030 -0.0190 -0.6578
  134OSM   H17F14589   2.981   3.666   8.412  2.1236  0.0097  0.6519
  134OSM   H17G14590   2.872   3.541   8.496  0.4785 -0.3014  1.5481
  134OSM   C18F14591   3.028   3.657   8.616 -0.3167 -0.4793 -0.4142
  134OSM   H18F14592   3.029   3.763   8.647 -2.4135 -0.7728  0.8951
  134OSM   H18G14593   3.131   3.633   8.584  0.5036  1.0103  0.9805
  134OSM   H18H14594   3.008   3.592   8.704  2.2098 -0.3395  0.3369
  135OSM      N14595   3.688   4.392   6.447 -0.0833 -0.3985  0.5617
  135OSM    C1514596   3.807   4.343   6.366 -0.1249  0.0799  0.4007
  135OSM   H15A14597   3.831   4.412   6.286  0.0252 -0.4045  0.0201
  135OSM   H15B14598   3.787   4.252   6.311  1.8826 -0.0419 -0.2048
  135OSM   H15C14599   3.889   4.330   6.434 -0.0583 -0.0196  0.3015
  135OSM    C1414600   3.646   4.295   6.550  0.1626 -0.1334  0.2602
  135OSM   H14A14601   3.627   4.197   6.508  0.2901 -1.1217  2.3814
  135OSM   H14B14602   3.550   4.326   6.589  0.4022 -1.1830  1.7842
  135OSM   H14C14603   3.723   4.298   6.625 -0.2731  2.1132  0.6923
  135OSM    C1314604   3.727   4.526   6.510  0.5693 -0.3921  0.0969
  135OSM   H13A14605   3.826   4.514   6.550  0.5515 -0.1159  0.2317
  135OSM   H13B14606   3.668   4.556   6.596 -0.2777 -2.2584  0.2094
  135OSM   H13C14607   3.723   4.608   6.440 -1.2751 -1.7911 -1.5497
  135OSM    C1214608   3.567   4.418   6.347  0.4960 -0.0996  0.0589
  135OSM   H12A14609   3.529   4.322   6.316 -0.8157  0.4033  0.0820
  135OSM   H12B14610   3.609   4.463   6.258  2.2936 -0.9570  0.4194
  135OSM    C1114611   3.440   4.492   6.386 -0.0848 -0.3002 -1.1514
  135OSM   H11A14612   3.374   4.494   6.298 -1.3807 -0.0859 -0.1981
  135OSM   H11B14613   3.464   4.600   6.401  0.5771 -0.1978 -2.7984
  135OSM      P14614   3.254   4.343   6.472  0.0491 -0.3134 -0.2419
  135OSM    O1314615   3.136   4.408   6.406 -0.3004  0.1733 -0.0027
  135OSM    O1414616   3.301   4.222   6.397 -0.8599  0.0780 -0.5072
  135OSM    O1114617   3.223   4.292   6.612 -0.1115  0.5001 -0.3894
  135OSM    O1214618   3.372   4.440   6.500  0.8603  0.1289 -0.2309
  135OSM    C1S14619   3.327   4.241   6.700  0.5061 -0.4798 -0.0644
  135OSM    H1S14620   3.429   4.257   6.660 -0.8800  3.3753 -2.7388
  135OSM    H1T14621   3.311   4.131   6.710  3.0092 -0.7710  1.4515
  135OSM     NF14622   3.409   4.225   6.938  0.6614  0.2387 -0.8590
  135OSM    HNF14623   3.385   4.141   6.986 -0.6359  1.0729  0.0257
  135OSM    C2S14624   3.306   4.290   6.849 -0.4106 -0.2013 -0.7743
  135OSM    H2S14625   3.321   4.400   6.848 -1.3952 -0.0343 -3.0307
  135OSM    C3S14626   3.164   4.266   6.891 -0.4420 -1.3370  0.3510
  135OSM    H3S14627   3.149   4.157   6.906  0.1296 -1.5636 -0.6201
  135OSM     O314628   3.064   4.307   6.798  0.4776 -0.4503  0.2672
  135OSM    HO314629   3.112   4.325   6.717  0.1000 -0.8742 -0.0489
  135OSM    C4S14630   3.139   4.327   7.025 -0.3573  0.0941  0.2726
  135OSM    H4S14631   3.210   4.406   7.053  2.5135 -1.5369 -1.8045
  135OSM    C5S14632   3.051   4.271   7.113 -0.7140 -0.0440  0.3586
  135OSM    H5S14633   2.979   4.200   7.071 -0.7802  0.3939 -0.2768
  135OSM    C6S14634   3.016   4.324   7.250 -0.4321 -0.3762 -0.2310
  135OSM    H6S14635   2.909   4.329   7.280 -0.1379  0.6435  0.7143
  135OSM    H6T14636   3.040   4.432   7.244  0.5789 -0.6436 -1.2990
  135OSM    C7S14637   3.113   4.270   7.364  0.5411  0.9484  0.0690
  135OSM    H7S14638   3.218   4.269   7.329 -0.3056  0.5575 -2.7448
  135OSM    H7T14639   3.076   4.166   7.379 -3.4215  2.4753  2.5553
  135OSM    C8S14640   3.087   4.328   7.503 -0.0503 -0.3186 -0.4587
  135OSM    H8S14641   2.976   4.324   7.517 -0.1615 -4.3613 -1.0371
  135OSM    H8T14642   3.105   4.437   7.505 -0.1130 -0.3069  1.0094
  135OSM    C9S14643   3.166   4.274   7.622  0.2270  0.1658 -0.2585
  135OSM    H9S14644   3.274   4.277   7.598  0.2001 -1.4446 -0.7072
  135OSM    H9T14645   3.145   4.166   7.639 -1.1683  0.0565 -2.2642
  135OSM   C10S14646   3.145   4.345   7.754  0.7393  0.2809 -0.2928
  135OSM   H10S14647   3.049   4.328   7.809  1.4180  0.0130  0.8405
  135OSM   H10T14648   3.163   4.453   7.732  0.3083  0.3619 -0.2543
  135OSM   C11S14649   3.245   4.299   7.859 -0.1722 -0.1545 -0.4839
  135OSM   H11S14650   3.349   4.284   7.822 -0.4627 -0.8631 -1.0326
  135OSM   H11T14651   3.201   4.206   7.901  0.0838  0.3420  0.9225
  135OSM   C12S14652   3.238   4.400   7.988  0.1230 -0.3962 -0.0326
  135OSM   H12S14653   3.132   4.397   8.020  0.2351 -1.1008  0.2836
  135OSM   H12T14654   3.259   4.502   7.947 -3.5115  0.5838  0.2297
  135OSM   C13S14655   3.338   4.357   8.099 -0.1269  0.1673 -0.5361
  135OSM   H13S14656   3.432   4.329   8.046  0.8411 -1.8675  2.0573
  135OSM   H13T14657   3.298   4.261   8.138 -1.0482  0.6822 -0.2008
  135OSM   C14S14658   3.374   4.468   8.197 -0.4059 -0.0023  0.1965
  135OSM   H14S14659   3.285   4.497   8.258 -1.6572  1.6679 -2.2723
  135OSM   H14T14660   3.401   4.561   8.142 -0.0501  0.0761  0.4995
  135OSM   C15S14661   3.496   4.434   8.285  0.6832  0.8786  0.4431
  135OSM   H15S14662   3.593   4.429   8.232  0.1182 -2.1209 -0.5034
  135OSM   H15T14663   3.485   4.339   8.340  0.8925  0.9664  0.6388
  135OSM   C16S14664   3.510   4.536   8.399 -0.7186  0.6585 -0.0836
  135OSM   H16S14665   3.420   4.530   8.465 -1.0944 -0.3709 -0.6716
  135OSM   H16T14666   3.522   4.634   8.348  2.6960 -0.7444 -2.3267
  135OSM   C17S14667   3.628   4.513   8.497 -0.4675 -0.8535 -0.0801
  135OSM   H17S14668   3.605   4.417   8.547 -2.6332 -1.2049 -1.5677
  135OSM   H17T14669   3.623   4.595   8.572 -0.1193 -0.6018 -0.3281
  135OSM   C18S14670   3.762   4.531   8.433  0.0379  0.4334 -0.4819
  135OSM   H18S14671   3.769   4.463   8.345 -1.9444 -3.0120  1.8205
  135OSM   H18T14672   3.840   4.484   8.496 -1.6342 -0.8787  0.6804
  135OSM   H18U14673   3.787   4.635   8.402 -0.0869  1.1455  1.6695
  135OSM    C1F14674   3.534   4.262   6.931  0.0863 -0.4333  0.0809
  135OSM     OF14675   3.571   4.366   6.867  0.2947  0.3028 -0.4338
  135OSM    C2F14676   3.643   4.186   6.996 -0.6455 -0.2778  0.1878
  135OSM    H2F14677   3.714   4.181   6.911 -1.4370 -1.2763 -0.4436
  135OSM    H2G14678   3.624   4.078   7.009 -0.9082 -0.5070 -1.8187
  135OSM    C3F14679   3.712   4.253   7.115 -0.0768  0.0178 -0.0558
  135OSM    H3F14680   3.637   4.282   7.191  0.9850  2.0676  0.2749
  135OSM    H3G14681   3.752   4.349   7.077 -0.2297  1.4515  3.0958
  135OSM    C4F14682   3.823   4.169   7.176 -0.3278  0.1509 -0.4151
  135OSM    H4F14683   3.891   4.157   7.089  0.2565 -1.0810  0.1882
  135OSM    H4G14684   3.782   4.071   7.207  1.0233 -0.4234 -0.4162
  135OSM    C5F14685   3.909   4.224   7.291 -0.2860  0.5054 -0.0892
  135OSM    H5F14686   3.951   4.322   7.258  3.5070 -1.5159 -1.9036
  135OSM    H5G14687   3.999   4.163   7.313 -0.5009  0.2281  0.0286
  135OSM    C6F14688   3.839   4.240   7.424 -0.0458  0.8195 -0.1162
  135OSM    H6F14689   3.738   4.275   7.394 -0.1687  0.0974 -0.5630
  135OSM    H6G14690   3.903   4.310   7.483  0.7029  1.8843 -2.0860
  135OSM    C7F14691   3.814   4.108   7.509  0.4201  0.1917  0.7027
  135OSM    H7F14692   3.912   4.059   7.524 -0.6516 -2.9255 -1.4420
  135OSM    H7G14693   3.763   4.027   7.452 -3.9465  2.5051  0.9064
  135OSM    C8F14694   3.723   4.125   7.635  1.0075  0.3444  0.6720
  135OSM    H8F14695   3.688   4.026   7.672 -1.1282  0.6244 -0.4537
  135OSM    H8G14696   3.628   4.177   7.613 -1.1273 -2.7539  1.8921
  135OSM    C9F14697   3.794   4.199   7.746  0.2728  0.5645 -0.8196
  135OSM    H9F14698   3.835   4.297   7.718 -1.7648  0.8857 -3.0520
  135OSM   C10F14699   3.795   4.159   7.875  0.0910 -0.7302 -0.1211
  135OSM   H10F14700   3.847   4.224   7.948  0.3035 -1.9490  0.8389
  135OSM   C11F14701   3.734   4.032   7.933  0.4824  0.3044  0.0946
  135OSM   H11F14702   3.776   3.938   7.891 -1.6564 -0.9981  0.7237
  135OSM   H11G14703   3.624   4.035   7.918  0.5189  1.3009 -0.0707
  135OSM   C12F14704   3.759   4.031   8.089 -0.3015 -0.1791  0.6132
  135OSM   H12F14705   3.864   4.046   8.122  0.6419 -0.4977 -1.9943
  135OSM   H12G14706   3.733   3.925   8.113 -2.6395  0.4492  1.1351
  135OSM   C13F14707   3.676   4.127   8.174 -0.2074 -0.3113  0.4823
  135OSM   H13F14708   3.569   4.130   8.144 -0.0596  0.7958  0.0097
  135OSM   H13G14709   3.722   4.228   8.165 -1.8216  0.6701  2.4947
  135OSM   C14F14710   3.687   4.094   8.328  0.3550 -0.3481  0.2424
  135OSM   H14F14711   3.685   3.986   8.357  0.7136 -0.7884 -1.2792
  135OSM   H14G14712   3.601   4.147   8.374 -0.4956 -0.3944 -1.2400
  135OSM   C15F14713   3.817   4.142   8.403 -0.3386 -1.0081 -0.1337
  135OSM   H15F14714   3.830   4.250   8.382 -2.3133 -0.9475 -1.2485
  135OSM   H15G14715   3.905   4.088   8.362  1.8319  0.1424  2.6114
  135OSM   C16F14716   3.799   4.124   8.550 -0.3683  0.0659 -0.3901
  135OSM   H16F14717   3.771   4.017   8.564 -0.3087 -0.2202 -2.2572
  135OSM   H16G14718   3.718   4.190   8.588 -2.5739 -0.2234 -4.0411
  135OSM   C17F14719   3.918   4.153   8.644  0.1046  0.2864  0.3065
  135OSM   H17F14720   3.934   4.263   8.647 -0.7140  0.6094 -3.0542
  135OSM   H17G14721   4.005   4.117   8.585 -0.5474 -0.5983 -0.1317
  135OSM   C18F14722   3.915   4.094   8.785 -0.4405 -0.2336  0.4184
  135OSM   H18F14723   3.891   3.985   8.782  2.2557 -0.8728  0.1058
  135OSM   H18G14724   3.834   4.134   8.850 -0.1443 -0.8356  1.1770
  135OSM   H18H14725   4.009   4.109   8.842  0.5366 -1.1132 -0.8834
  136OSM      N14726   3.412   1.197   5.983  0.1460 -0.0597 -0.3189
  136OSM    C1514727   3.508   1.140   5.886 -0.2919 -0.5001 -0.2727
  136OSM   H15A14728   3.541   1.215   5.815  2.6265 -0.7098  0.7239
  136OSM   H15B14729   3.465   1.056   5.833  1.8625 -0.1710 -2.7551
  136OSM   H15C14730   3.591   1.098   5.942 -0.2392 -1.3564 -0.9732
  136OSM    C1414731   3.301   1.268   5.913  0.6065 -0.2366  0.1880
  136OSM   H14A14732   3.266   1.207   5.831  1.6437  1.3897 -1.5511
  136OSM   H14B14733   3.329   1.364   5.872 -0.9687 -0.5514 -1.8038
  136OSM   H14C14734   3.218   1.281   5.981 -1.1720  1.4305 -2.1320
  136OSM    C1314735   3.358   1.088   6.064 -0.6288 -0.6963 -0.0576
  136OSM   H13A14736   3.309   1.017   6.000  1.6912 -1.0502 -1.5385
  136OSM   H13B14737   3.294   1.125   6.144  1.8765  1.8614  0.9144
  136OSM   H13C14738   3.437   1.032   6.111 -0.9676 -2.1115 -1.1040
  136OSM    C1214739   3.477   1.306   6.077 -0.4847  0.1230  0.8714
  136OSM   H12A14740   3.517   1.388   6.019  0.0252 -0.8728 -0.1949
  136OSM   H12B14741   3.569   1.266   6.116  1.5611  1.6991 -2.0130
  136OSM    C1114742   3.405   1.371   6.204  0.1789  0.7818 -0.0509
  136OSM   H11A14743   3.473   1.419   6.277  0.2663  2.5924 -1.2409
  136OSM   H11B14744   3.376   1.282   6.264  4.7947 -0.4657  0.7285
  136OSM      P14745   3.308   1.603   6.192  0.7718  0.0998 -0.0334
  136OSM    O1314746   3.420   1.631   6.103  0.6317 -0.0989  0.4058
  136OSM    O1414747   3.178   1.669   6.162 -0.0817 -0.1649 -0.1000
  136OSM    O1114748   3.340   1.616   6.342  0.4311 -0.1849 -0.4027
  136OSM    O1214749   3.292   1.451   6.179 -0.2323  0.9132 -0.0624
  136OSM    C1S14750   3.254   1.550   6.437 -0.5885 -0.4211  0.5860
  136OSM    H1S14751   3.194   1.461   6.408 -3.6040  0.8314  2.5773
  136OSM    H1T14752   3.175   1.618   6.473 -0.3087  0.9339 -1.2127
  136OSM     NF14753   3.249   1.425   6.657  0.0413  0.1534  0.1784
  136OSM    HNF14754   3.218   1.467   6.741  0.3840 -0.8633  0.8287
  136OSM    C2S14755   3.328   1.514   6.570 -0.4930 -0.2211 -0.1690
  136OSM    H2S14756   3.423   1.465   6.542  1.2640  3.2539 -0.8423
  136OSM    C3S14757   3.378   1.642   6.635 -0.6805  0.0127 -0.0609
  136OSM    H3S14758   3.290   1.702   6.667  0.4326  2.2337 -0.9664
  136OSM     O314759   3.446   1.731   6.545 -0.5090  0.3778 -0.0212
  136OSM    HO314760   3.431   1.694   6.458  2.9791  1.1167 -1.1013
  136OSM    C4S14761   3.466   1.615   6.752 -0.4745 -0.3112  0.3284
  136OSM    H4S14762   3.416   1.602   6.849 -0.1404  0.5466  0.6261
  136OSM    C5S14763   3.601   1.612   6.756 -0.4423 -0.2162 -0.1649
  136OSM    H5S14764   3.663   1.622   6.665  0.2743 -2.6958 -0.0232
  136OSM    C6S14765   3.690   1.578   6.881  0.3119 -0.0052 -0.3969
  136OSM    H6S14766   3.798   1.602   6.868  0.8020 -0.4234  2.3498
  136OSM    H6T14767   3.695   1.467   6.890 -0.2975  0.0700  1.1833
  136OSM    C7S14768   3.640   1.630   7.013 -0.1911  0.6445 -0.1919
  136OSM    H7S14769   3.538   1.590   7.033 -0.5940  1.0630 -1.3204
  136OSM    H7T14770   3.633   1.740   7.004  1.8657  0.8000 -0.4091
  136OSM    C8S14771   3.734   1.598   7.134 -0.2024 -0.0968  0.3342
  136OSM    H8S14772   3.843   1.608   7.112 -0.1275  0.3059  0.8790
  136OSM    H8T14773   3.709   1.491   7.152  1.0494 -0.5035 -0.1942
  136OSM    C9S14774   3.713   1.686   7.262  0.3991 -0.2937  0.2005
  136OSM    H9S14775   3.611   1.671   7.303  0.3833  0.4893  0.4523
  136OSM    H9T14776   3.708   1.792   7.230  0.1073 -0.3423  0.0874
  136OSM   C10S14777   3.820   1.640   7.361 -0.2349 -0.3037  0.7327
  136OSM   H10S14778   3.919   1.678   7.326  0.2917 -0.6954  1.7400
  136OSM   H10T14779   3.817   1.530   7.373 -1.6210 -0.3298  0.2257
  136OSM   C11S14780   3.798   1.708   7.501  0.3168  0.1454 -0.0316
  136OSM   H11S14781   3.771   1.815   7.495 -0.0397  0.2928  2.6587
  136OSM   H11T14782   3.888   1.693   7.566 -0.1206  2.4341  1.2050
  136OSM   C12S14783   3.673   1.649   7.573 -0.2195  0.5116 -0.1703
  136OSM   H12S14784   3.688   1.539   7.580 -0.6308  0.3796 -1.2557
  136OSM   H12T14785   3.576   1.681   7.531 -0.8196 -2.0342 -0.9065
  136OSM   C13S14786   3.666   1.698   7.717  0.0952 -0.2919  0.0799
  136OSM   H13S14787   3.625   1.801   7.717 -0.9318 -0.6656  1.6689
  136OSM   H13T14788   3.768   1.694   7.760  0.4885  2.7265 -0.3818
  136OSM   C14S14789   3.561   1.624   7.806  0.1239 -0.1303 -0.7105
  136OSM   H14S14790   3.579   1.515   7.790 -0.8670 -0.0768 -2.4619
  136OSM   H14T14791   3.462   1.648   7.762 -0.3974 -1.5852 -0.3967
  136OSM   C15S14792   3.568   1.666   7.953 -0.0186  0.7045 -0.8812
  136OSM   H15S14793   3.560   1.777   7.961  1.0668  0.7893 -0.8888
  136OSM   H15T14794   3.666   1.648   8.002 -0.1473  1.7081 -0.2274
  136OSM   C16S14795   3.452   1.601   8.024  0.3868  0.1281  0.4223
  136OSM   H16S14796   3.451   1.494   7.997 -0.9532 -0.0677  1.1804
  136OSM   H16T14797   3.359   1.647   7.984 -0.1258 -1.2425 -0.0196
  136OSM   C17S14798   3.449   1.617   8.175 -0.4038  0.2828 -0.7046
  136OSM   H17S14799   3.348   1.587   8.211 -0.8875  2.5919  0.0652
  136OSM   H17T14800   3.455   1.727   8.192 -0.4167  0.0275  1.2100
  136OSM   C18S14801   3.560   1.549   8.252  1.0082  0.2151 -0.3087
  136OSM   H18S14802   3.559   1.438   8.247  1.2747  0.1617  0.6414
  136OSM   H18T14803   3.543   1.577   8.358  0.3103  1.3997 -0.7168
  136OSM   H18U14804   3.658   1.584   8.214  0.2917  0.5089 -1.9482
  136OSM    C1F14805   3.207   1.301   6.619  0.1624 -0.3713 -0.4410
  136OSM     OF14806   3.230   1.250   6.512  0.1926 -0.0363  0.5860
  136OSM    C2F14807   3.140   1.226   6.727  0.1856  0.0301 -0.3676
  136OSM    H2F14808   3.099   1.305   6.793  0.2022 -1.6187  1.7228
  136OSM    H2G14809   3.213   1.165   6.785 -0.1889 -0.0457  0.0317
  136OSM    C3F14810   3.026   1.131   6.664 -0.0659  1.0431 -0.3189
  136OSM    H3F14811   3.071   1.079   6.576  2.2392  0.9048  0.8524
  136OSM    H3G14812   2.940   1.196   6.639 -1.6095 -0.5324  0.6444
  136OSM    C4F14813   2.978   1.034   6.776  0.2924  0.0641  0.5499
  136OSM    H4F14814   3.063   1.027   6.847 -0.4545  1.6215  1.6494
  136OSM    H4G14815   2.931   0.938   6.743  1.6286 -0.4230 -0.0127
  136OSM    C5F14816   2.860   1.104   6.862  0.1671 -0.0531 -0.0845
  136OSM    H5F14817   2.764   1.120   6.808  0.9585 -0.0711 -1.5459
  136OSM    H5G14818   2.894   1.204   6.896 -2.5349  1.8269 -2.3993
  136OSM    C6F14819   2.828   1.014   6.982 -0.0940  0.0046 -0.2793
  136OSM    H6F14820   2.912   1.015   7.054 -0.5684 -1.3677  0.3394
  136OSM    H6G14821   2.815   0.907   6.953 -1.1189 -0.1419  0.6329
  136OSM    C7F14822   2.691   1.058   7.047 -0.0849 -0.1602  0.1013
  136OSM    H7F14823   2.620   1.056   6.962  1.9638  0.4299 -1.7286
  136OSM    H7G14824   2.702   1.166   7.071 -0.4289  0.5123 -2.5031
  136OSM    C8F14825   2.658   0.987   7.180 -0.1835  0.4428  0.1138
  136OSM    H8F14826   2.571   1.032   7.233  0.4549  1.8818 -0.0015
  136OSM    H8G14827   2.743   0.985   7.252 -1.3591 -0.9527  1.5267
  136OSM    C9F14828   2.625   0.842   7.152  0.5365 -0.1416 -0.3758
  136OSM    H9F14829   2.574   0.839   7.054  0.2780  0.9737 -0.2858
  136OSM   C10F14830   2.655   0.729   7.210 -0.1538  0.0201 -0.6980
  136OSM   H10F14831   2.608   0.636   7.174  4.0209 -2.1117 -1.2389
  136OSM   C11F14832   2.727   0.715   7.342 -0.2274 -0.9927  0.1816
  136OSM   H11F14833   2.757   0.815   7.379  0.6279  0.4646 -3.8815
  136OSM   H11G14834   2.814   0.647   7.328 -0.2038 -1.2692  1.5596
  136OSM   C12F14835   2.633   0.658   7.440 -0.0353  0.0346  0.2081
  136OSM   H12F14836   2.617   0.549   7.426 -0.7626  0.0179  1.0495
  136OSM   H12G14837   2.543   0.723   7.449  1.0714  1.4590  1.5903
  136OSM   C13F14838   2.698   0.646   7.580 -0.0779  0.2591 -0.1076
  136OSM   H13F14839   2.716   0.744   7.630 -1.7895 -0.0371  1.2082
  136OSM   H13G14840   2.793   0.589   7.572  0.7950  1.3103  1.9650
  136OSM   C14F14841   2.604   0.586   7.686 -0.3984 -0.5284  0.2323
  136OSM   H14F14842   2.568   0.485   7.658  0.1880 -0.5322 -0.5577
  136OSM   H14G14843   2.523   0.661   7.687 -0.4452 -0.5695 -0.1170
  136OSM   C15F14844   2.671   0.585   7.825  0.1535 -0.5819 -0.4134
  136OSM   H15F14845   2.771   0.632   7.818 -0.8034  1.4580 -1.0029
  136OSM   H15G14846   2.683   0.479   7.857 -0.3368 -0.3926  0.4508
  136OSM   C16F14847   2.585   0.659   7.929  0.1418 -0.2146  0.1421
  136OSM   H16F14848   2.486   0.609   7.916  0.0674 -0.0643  0.1366
  136OSM   H16G14849   2.572   0.765   7.901  3.0159  0.0972 -0.2593
  136OSM   C17F14850   2.638   0.653   8.072 -0.5499  0.4555 -0.6737
  136OSM   H17F14851   2.724   0.725   8.076 -0.6234  0.5899 -1.4242
  136OSM   H17G14852   2.675   0.552   8.097 -1.0325  0.6074  0.7424
  136OSM   C18F14853   2.544   0.706   8.186 -0.5775  0.2248 -0.1369
  136OSM   H18F14854   2.439   0.687   8.154 -1.0949 -0.6736  1.9159
  136OSM   H18G14855   2.566   0.814   8.204  0.6162  0.0428 -0.4179
  136OSM   H18H14856   2.550   0.663   8.288 -2.6521 -1.1178 -0.5242
  137OSM      N14857   4.696   4.168   6.528 -0.0645 -0.0634 -0.1679
  137OSM    C1514858   4.618   4.254   6.627 -0.2810  0.2683 -0.6694
  137OSM   H15A14859   4.523   4.285   6.587  0.0509  0.8737 -1.0007
  137OSM   H15B14860   4.656   4.352   6.654  0.1700 -0.4297  1.4771
  137OSM   H15C14861   4.600   4.202   6.720 -2.4296  0.7131 -0.7884
  137OSM    C1414862   4.726   4.258   6.411 -0.1034 -0.3186 -0.4812
  137OSM   H14A14863   4.796   4.199   6.353 -0.3248 -0.5905 -0.4693
  137OSM   H14B14864   4.764   4.356   6.436 -2.2318 -0.1867  2.8766
  137OSM   H14C14865   4.632   4.267   6.358  0.1587  0.7257 -0.8019
  137OSM    C1314866   4.828   4.123   6.583  0.4711 -0.0251  0.1108
  137OSM   H13A14867   4.892   4.206   6.610 -1.6829  1.1694  1.8762
  137OSM   H13B14868   4.881   4.064   6.509  0.6426  0.3777 -0.0943
  137OSM   H13C14869   4.806   4.063   6.670 -1.6770 -0.0562 -0.3999
  137OSM    C1214870   4.600   4.056   6.487 -0.4479 -0.3337  0.7665
  137OSM   H12A14871   4.633   4.018   6.391  0.0162  1.0359  0.3672
  137OSM   H12B14872   4.505   4.103   6.466 -0.0133 -0.6448 -2.3145
  137OSM    C1114873   4.592   3.949   6.601  0.1159  0.3561 -0.3926
  137OSM   H11A14874   4.692   3.904   6.620 -0.4708 -0.5783  0.6041
  137OSM   H11B14875   4.527   3.865   6.566 -1.5138  2.0672 -1.7026
  137OSM      P14876   4.563   3.900   6.847 -0.0236 -0.0550  0.0026
  137OSM    O1314877   4.521   3.971   6.973 -0.1939 -0.1234  0.1727
  137OSM    O1414878   4.501   3.772   6.820  0.4732 -0.1805  0.3938
  137OSM    O1114879   4.721   3.872   6.860  0.3471  0.0961  0.6045
  137OSM    O1214880   4.542   3.998   6.727 -0.1515 -0.5631 -0.1308
  137OSM    C1S14881   4.804   3.909   6.967  0.3259 -0.6909 -0.6106
  137OSM    H1S14882   4.755   3.905   7.067 -0.9569  0.2177 -1.1834
  137OSM    H1T14883   4.824   4.018   6.956 -1.0254 -0.1944  1.2384
  137OSM     NF14884   4.993   3.851   7.104  0.1447 -0.4654 -0.0811
  137OSM    HNF14885   5.054   3.930   7.102 -2.2434  1.4872 -1.1477
  137OSM    C2S14886   4.925   3.816   6.978 -0.3283  0.2133  0.4172
  137OSM    H2S14887   4.903   3.708   6.988  0.3702 -0.3326 -2.8385
  137OSM    C3S14888   5.019   3.838   6.860  0.3820  0.2395 -0.4565
  137OSM    H3S14889   5.047   3.945   6.843 -0.4049  0.5025 -0.1494
  137OSM     O314890   4.966   3.783   6.736 -0.8350 -0.0684  0.1490
  137OSM    HO314891   4.874   3.774   6.759 -0.4794 -1.2296  1.2250
  137OSM    C4S14892   5.143   3.772   6.894  0.3249  0.1118 -0.2136
  137OSM    H4S14893   5.120   3.665   6.899 -2.7854  0.5468 -2.1763
  137OSM    C5S14894   5.262   3.820   6.912  0.0509 -0.0035 -0.2127
  137OSM    H5S14895   5.277   3.927   6.889 -0.4597  0.3597  1.0876
  137OSM    C6S14896   5.385   3.736   6.928  0.1247 -0.4550  0.3839
  137OSM    H6S14897   5.443   3.797   7.001  0.7515  0.7321 -1.0446
  137OSM    H6T14898   5.452   3.741   6.839  1.9319 -0.5088  1.6806
  137OSM    C7S14899   5.382   3.589   6.969  0.1208 -0.1070 -0.3937
  137OSM    H7S14900   5.487   3.551   6.975  0.0562 -0.4170 -1.0616
  137OSM    H7T14901   5.321   3.526   6.901 -1.5752 -0.5479  1.4481
  137OSM    C8S14902   5.332   3.551   7.114  0.6228 -0.0230 -0.0754
  137OSM    H8S14903   5.316   3.442   7.121 -2.2301  0.2243 -1.1947
  137OSM    H8T14904   5.226   3.582   7.126  0.6447 -0.6583  2.1019
  137OSM    C9S14905   5.412   3.613   7.231  0.4251  0.1377  0.5079
  137OSM    H9S14906   5.402   3.723   7.238  1.7865  0.1902  2.3927
  137OSM    H9T14907   5.521   3.593   7.220  0.2824  0.4106 -1.9525
  137OSM   C10S14908   5.358   3.571   7.365 -0.0077  0.0602 -0.0487
  137OSM   H10S14909   5.372   3.462   7.380  0.7257  0.1550  0.0069
  137OSM   H10T14910   5.251   3.601   7.364 -0.1726 -0.5036  0.1289
  137OSM   C11S14911   5.418   3.652   7.480  0.4450  0.2442  0.2778
  137OSM   H11S14912   5.405   3.762   7.469 -0.1011  0.0757 -0.8914
  137OSM   H11T14913   5.528   3.640   7.467  0.4803  0.6410  0.1942
  137OSM   C12S14914   5.355   3.611   7.616 -0.5793 -0.3254  0.2567
  137OSM   H12S14915   5.350   3.500   7.616 -2.3129 -0.2841 -1.3323
  137OSM   H12T14916   5.253   3.653   7.627  0.3865  2.1173  0.4478
  137OSM   C13S14917   5.447   3.656   7.731 -0.1437  0.4817  0.0411
  137OSM   H13S14918   5.483   3.758   7.706  1.2190  0.1822  0.7119
  137OSM   H13T14919   5.530   3.583   7.720 -1.6773 -1.9879  3.2925
  137OSM   C14S14920   5.393   3.631   7.875 -0.2294 -0.0360  0.2103
  137OSM   H14S14921   5.379   3.522   7.894 -1.3796 -0.0484 -0.5952
  137OSM   H14T14922   5.294   3.680   7.874  1.2279  3.2287 -2.1807
  137OSM   C15S14923   5.492   3.699   7.974  0.4509 -0.6717 -0.2213
  137OSM   H15S14924   5.511   3.804   7.943  3.2603 -0.2249  2.5072
  137OSM   H15T14925   5.590   3.647   7.964  1.4966  1.2457 -0.4394
  137OSM   C16S14926   5.434   3.679   8.114 -0.5617 -0.7635 -0.0657
  137OSM   H16S14927   5.446   3.578   8.159 -1.2577 -0.8359 -0.0302
  137OSM   H16T14928   5.326   3.704   8.104 -0.7182 -0.4667  1.9694
  137OSM   C17S14929   5.503   3.768   8.212 -0.2178  0.2359  0.5136
  137OSM   H17S14930   5.457   3.759   8.312  2.4205  0.6635  1.8414
  137OSM   H17T14931   5.502   3.874   8.178 -1.1815  0.3780  0.9633
  137OSM   C18S14932   5.648   3.723   8.243 -0.0548 -0.0207 -0.1281
  137OSM   H18S14933   5.643   3.624   8.294  1.1623 -1.2194 -2.1752
  137OSM   H18T14934   5.704   3.788   8.313 -1.6935  0.0350  1.1870
  137OSM   H18U14935   5.704   3.714   8.147  0.2635  2.9630 -0.3004
  137OSM    C1F14936   4.952   3.794   7.220  0.1080  0.0466 -0.0618
  137OSM     OF14937   4.862   3.713   7.221 -0.0590  0.6933  0.2859
  137OSM    C2F14938   5.015   3.844   7.343  0.3633  0.1717 -0.5961
  137OSM    H2F14939   4.977   3.947   7.365 -0.7836  0.3374 -2.9962
  137OSM    H2G14940   5.125   3.849   7.330  0.2732 -1.1477 -2.1843
  137OSM    C3F14941   4.987   3.758   7.470 -0.1699 -0.2513 -0.2062
  137OSM    H3F14942   5.038   3.660   7.462  1.2131  0.1407  2.5352
  137OSM    H3G14943   4.877   3.745   7.484  0.0673 -1.1200  1.0045
  137OSM    C4F14944   5.038   3.826   7.595  0.7113  0.2261  0.8884
  137OSM    H4F14945   4.993   3.927   7.588 -0.7577 -0.5362 -1.7341
  137OSM    H4G14946   5.148   3.841   7.593  0.9425 -1.1832 -1.5386
  137OSM    C5F14947   4.991   3.761   7.727  0.3692 -0.7745  0.6615
  137OSM    H5F14948   5.060   3.676   7.743  1.6062  0.2482  0.9038
  137OSM    H5G14949   4.889   3.718   7.714  1.4254 -2.7618 -1.9888
  137OSM    C6F14950   4.979   3.858   7.845  0.0804  0.1196 -0.1559
  137OSM    H6F14951   4.906   3.940   7.828 -0.4529 -0.4993 -0.9567
  137OSM    H6G14952   5.074   3.914   7.858  0.7159 -0.2692 -2.5226
  137OSM    C7F14953   4.954   3.775   7.978 -0.2893  0.5737  0.5071
  137OSM    H7F14954   5.029   3.694   7.991 -0.8067  0.1864  1.1110
  137OSM    H7G14955   4.855   3.728   7.963 -0.1131  0.2850  0.2255
  137OSM    C8F14956   4.953   3.849   8.114  0.3732 -0.0130 -0.4444
  137OSM    H8F14957   4.932   3.773   8.192 -3.1418 -0.8777 -2.0296
  137OSM    H8G14958   4.863   3.914   8.116  1.4040  1.4564 -0.5852
  137OSM    C9F14959   5.079   3.919   8.141 -0.6351  0.9375 -0.4287
  137OSM    H9F14960   5.137   3.957   8.056 -2.5713  0.3575 -2.0901
  137OSM   C10F14961   5.125   3.933   8.271  0.0020  0.3335  0.1180
  137OSM   H10F14962   5.227   3.966   8.294 -0.2317  0.2530  1.3628
  137OSM   C11F14963   5.054   3.876   8.393 -0.0716 -0.7759 -0.3088
  137OSM   H11F14964   5.130   3.863   8.473 -1.2192 -1.4774  0.7025
  137OSM   H11G14965   5.010   3.774   8.387 -1.1058 -0.5474  2.1099
  137OSM   C12F14966   4.947   3.965   8.459  0.2097 -0.8663 -0.5497
  137OSM   H12F14967   4.852   3.936   8.409  0.3387  0.1648 -1.4283
  137OSM   H12G14968   4.972   4.071   8.437 -1.8254 -0.2241  0.0396
  137OSM   C13F14969   4.925   3.947   8.611 -0.0768  0.2997  0.5157
  137OSM   H13F14970   4.919   3.837   8.628  3.1511 -0.3221 -1.5312
  137OSM   H13G14971   4.829   3.996   8.639  0.3987  1.6032 -0.0456
  137OSM   C14F14972   5.039   3.997   8.692 -0.8001 -0.5625  0.7416
  137OSM   H14F14973   5.066   4.098   8.655 -1.1116 -0.5966  0.4138
  137OSM   H14G14974   5.132   3.938   8.677  0.3294  1.3511 -0.1213
  137OSM   C15F14975   4.996   3.996   8.832 -0.2842 -0.0617  0.3598
  137OSM   H15F14976   4.975   3.890   8.859  1.7679 -1.2495 -2.2722
  137OSM   H15G14977   4.906   4.058   8.851 -0.9219 -1.0722  0.7283
  137OSM   C16F14978   5.106   4.044   8.933  0.1128  0.0989  0.3919
  137OSM   H16F14979   5.208   4.013   8.903  0.7735  1.9779  0.6076
  137OSM   H16G14980   5.097   3.992   9.031  3.4061 -1.1559  0.1462
  137OSM   C17F14981   5.099   4.195   8.960  0.0643  0.3154 -0.5128
  137OSM   H17F14982   5.167   4.216   9.046  2.2004 -2.4835 -1.3972
  137OSM   H17G14983   4.998   4.231   8.991  0.2853 -0.9627  1.9388
  137OSM   C18F14984   5.131   4.285   8.844 -0.3895  0.1002 -0.8733
  137OSM   H18F14985   5.129   4.388   8.884  2.1437 -1.1455  3.0444
  137OSM   H18G14986   5.060   4.273   8.759 -1.8108  1.6434  0.0379
  137OSM   H18H14987   5.236   4.278   8.809 -0.0400 -2.5747  0.4246
  138OSM      N14988   5.071   6.316   6.038  0.0954  0.0669 -0.2520
  138OSM    C1514989   5.171   6.406   5.976  0.4350 -0.2305  0.0891
  138OSM   H15A14990   5.268   6.396   6.022 -0.3626 -1.4912  1.5792
  138OSM   H15B14991   5.133   6.507   5.986 -0.5730 -0.6920  1.2040
  138OSM   H15C14992   5.172   6.399   5.868 -0.5986 -0.8835  0.1020
  138OSM    C1414993   4.938   6.336   5.969 -0.3295 -0.3932 -0.1405
  138OSM   H14A14994   4.867   6.266   6.011 -0.3433 -0.6945 -0.6599
  138OSM   H14B14995   4.950   6.327   5.862  1.9842 -1.1377  0.1226
  138OSM   H14C14996   4.902   6.435   5.991  0.2287 -0.6370  2.1611
  138OSM    C1314997   5.115   6.175   6.024 -0.4900  0.0826  0.0764
  138OSM   H13A14998   5.060   6.105   6.084 -0.8649  0.0853 -0.2589
  138OSM   H13B14999   5.214   6.152   6.060 -0.0563  2.6232  0.7518
  138OSM   H13C15000   5.112   6.143   5.921  0.4342 -0.1204  0.1033
  138OSM    C1215001   5.061   6.347   6.186 -0.0670  0.0991 -0.1486
  138OSM   H12A15002   4.987   6.283   6.231  1.9436 -2.6127 -0.4770
  138OSM   H12B15003   5.014   6.445   6.192 -0.1793 -0.0424  2.9688
  138OSM    C1115004   5.189   6.322   6.277  0.5748 -0.2692  0.2777
  138OSM   H11A15005   5.165   6.386   6.365  0.4649  2.4758 -1.6018
  138OSM   H11B15006   5.270   6.381   6.230 -1.6729  1.2740 -1.9396
  138OSM      P15007   5.119   6.111   6.392 -0.4882  0.2332 -0.1354
  138OSM    O1315008   4.972   6.132   6.356 -0.0138  0.7575 -0.1205
  138OSM    O1415009   5.167   5.970   6.399  0.5255 -0.3286 -0.4486
  138OSM    O1115010   5.159   6.188   6.532 -0.0913 -0.1935 -0.2483
  138OSM    O1215011   5.210   6.183   6.289  0.8665 -0.3459 -0.4481
  138OSM    C1S15012   5.092   6.152   6.653  0.4992 -0.1091  0.0934
  138OSM    H1S15013   5.090   6.041   6.662 -2.0721 -0.0993  0.5065
  138OSM    H1T15014   4.987   6.189   6.647  0.0865 -1.3254 -0.6092
  138OSM     NF15015   5.072   6.197   6.895 -0.0246  0.8135  0.5326
  138OSM    HNF15016   5.035   6.285   6.923  0.5162  1.8327 -1.7549
  138OSM    C2S15017   5.162   6.215   6.777  0.4517  0.2622  0.4425
  138OSM    H2S15018   5.251   6.149   6.787  0.0373 -0.3496  0.1701
  138OSM    C3S15019   5.205   6.362   6.755 -0.3348  0.1580  0.3815
  138OSM    H3S15020   5.119   6.431   6.741 -0.5535  0.2574  1.9376
  138OSM     O315021   5.286   6.382   6.639  0.5484  0.5676  0.4623
  138OSM    HO315022   5.249   6.316   6.580  0.5879 -0.2629  1.3513
  138OSM    C4S15023   5.295   6.400   6.873 -0.0165 -0.1338 -0.2138
  138OSM    H4S15024   5.236   6.411   6.965 -0.3420 -0.7918 -0.3418
  138OSM    C5S15025   5.424   6.431   6.895  0.5323 -0.4430  0.3949
  138OSM    H5S15026   5.488   6.416   6.807 -0.1367 -2.3311  0.1773
  138OSM    C6S15027   5.490   6.470   7.020 -0.0807  0.0551 -0.3174
  138OSM    H6S15028   5.558   6.554   6.997 -1.0829  0.6218 -1.3065
  138OSM    H6T15029   5.555   6.384   7.048 -0.5745 -0.4897 -0.8045
  138OSM    C7S15030   5.403   6.491   7.146  0.1437  0.0919  0.0203
  138OSM    H7S15031   5.349   6.394   7.152 -2.0590  1.1131 -1.6537
  138OSM    H7T15032   5.335   6.573   7.113 -1.0476 -1.6506 -2.1292
  138OSM    C8S15033   5.485   6.524   7.276  0.2644 -0.0396  0.1071
  138OSM    H8S15034   5.538   6.619   7.258 -0.0034 -0.0969 -1.0280
  138OSM    H8T15035   5.555   6.439   7.295  2.3528  1.4967 -0.3922
  138OSM    C9S15036   5.402   6.525   7.408 -0.6819  0.5575  0.2486
  138OSM    H9S15037   5.346   6.431   7.429  0.0483  0.0329 -0.1139
  138OSM    H9T15038   5.330   6.609   7.408  1.7415  2.7623 -0.4410
  138OSM   C10S15039   5.482   6.548   7.535  0.4847 -0.0260  0.3999
  138OSM   H10S15040   5.535   6.645   7.521  0.8725 -0.3270 -0.2053
  138OSM   H10T15041   5.555   6.466   7.549  0.0615 -0.0580  2.9955
  138OSM   C11S15042   5.393   6.556   7.657  0.3400  0.1409 -0.1243
  138OSM   H11S15043   5.346   6.456   7.659 -0.5995  0.5725 -0.0678
  138OSM   H11T15044   5.313   6.633   7.653  1.6710  1.5871 -0.0144
  138OSM   C12S15045   5.478   6.593   7.775  0.0879 -0.2454  0.3538
  138OSM   H12S15046   5.502   6.701   7.771 -0.4726 -0.1579 -2.7326
  138OSM   H12T15047   5.569   6.528   7.772 -0.7575 -1.4759  0.3389
  138OSM   C13S15048   5.407   6.558   7.909  0.1277  0.6446  0.7622
  138OSM   H13S15049   5.367   6.454   7.902  2.0069 -0.2095  1.9055
  138OSM   H13T15050   5.313   6.616   7.916 -0.8181 -0.7825  0.2355
  138OSM   C14S15051   5.478   6.572   8.042  0.7005 -0.4260 -0.4440
  138OSM   H14S15052   5.567   6.506   8.050  1.3481  0.3883 -0.7888
  138OSM   H14T15053   5.413   6.534   8.123  1.2927  1.0190  0.7457
  138OSM   C15S15054   5.518   6.721   8.066  0.2173 -0.3245 -0.3667
  138OSM   H15S15055   5.422   6.776   8.057 -0.0873 -1.1603 -3.2314
  138OSM   H15T15056   5.573   6.760   7.978  0.2568  3.0895  0.9760
  138OSM   C16S15057   5.590   6.741   8.197 -0.2598 -0.3818 -0.8692
  138OSM   H16S15058   5.603   6.850   8.217 -0.0827  0.1157 -3.3592
  138OSM   H16T15059   5.694   6.705   8.183  1.0686  3.3759 -2.0187
  138OSM   C17S15060   5.530   6.679   8.325 -0.2917 -0.4854  0.0072
  138OSM   H17S15061   5.608   6.669   8.404  1.5467 -2.5503 -1.9359
  138OSM   H17T15062   5.505   6.576   8.292  2.3590 -1.3035  0.3412
  138OSM   C18S15063   5.402   6.753   8.379  0.2230 -0.3909 -0.3885
  138OSM   H18S15064   5.324   6.784   8.306 -2.1612 -2.6842  1.0019
  138OSM   H18T15065   5.442   6.839   8.437  0.9799  0.3806 -2.0120
  138OSM   H18U15066   5.353   6.694   8.460 -0.3533  3.6985  2.5382
  138OSM    C1F15067   5.029   6.081   6.940  0.2957  0.3151 -0.1993
  138OSM     OF15068   5.046   5.979   6.875  0.1129  0.1807  0.5949
  138OSM    C2F15069   4.963   6.084   7.081 -0.5412  0.8926  0.7801
  138OSM    H2F15070   4.886   6.163   7.087 -0.0423  1.4118  0.4302
  138OSM    H2G15071   5.038   6.095   7.163 -1.2324  0.3826  1.4979
  138OSM    C3F15072   4.889   5.953   7.116 -0.1987  0.4766  0.0878
  138OSM    H3F15073   4.959   5.866   7.117 -2.8857 -1.8678  1.7383
  138OSM    H3G15074   4.819   5.932   7.032  0.0501 -1.1441  0.2538
  138OSM    C4F15075   4.805   5.964   7.246 -0.7227 -0.6986  0.1971
  138OSM    H4F15076   4.703   5.924   7.232 -0.5082 -1.3898  0.5147
  138OSM    H4G15077   4.817   6.067   7.287  0.0119 -0.6483 -0.1205
  138OSM    C5F15078   4.867   5.873   7.351  0.0051  1.0746 -0.3044
  138OSM    H5F15079   4.977   5.885   7.363 -0.2701  1.5188  2.1450
  138OSM    H5G15080   4.857   5.767   7.319  2.8974 -0.1104  2.1585
  138OSM    C6F15081   4.792   5.873   7.487 -0.7128  0.4801 -0.0414
  138OSM    H6F15082   4.684   5.853   7.473 -0.7361 -0.4343  1.3072
  138OSM    H6G15083   4.809   5.974   7.531 -0.6811 -0.4359  2.1507
  138OSM    C7F15084   4.863   5.779   7.586  0.4738 -0.4707  0.0539
  138OSM    H7F15085   4.968   5.813   7.594 -0.5064  2.5968  1.3379
  138OSM    H7G15086   4.861   5.679   7.537  0.9439  0.6652 -2.4342
  138OSM    C8F15087   4.810   5.775   7.731  0.9066 -0.2133  0.3338
  138OSM    H8F15088   4.701   5.753   7.740  1.0371 -0.1382  2.4656
  138OSM    H8G15089   4.815   5.870   7.788  0.4066 -0.9891  1.7070
  138OSM    C9F15090   4.892   5.665   7.800 -0.3651  0.2145  0.6960
  138OSM    H9F15091   4.872   5.561   7.771 -2.5284  0.2776  1.7392
  138OSM   C10F15092   4.977   5.685   7.907  0.3441  0.3152 -0.3865
  138OSM   H10F15093   5.026   5.598   7.953 -0.1747  0.8869  1.3019
  138OSM   C11F15094   4.992   5.818   7.973 -0.1977 -0.3650 -0.0400
  138OSM   H11F15095   5.001   5.900   7.899  0.0030 -0.7849 -0.4905
  138OSM   H11G15096   5.077   5.813   8.044 -2.5689 -0.9653  3.0070
  138OSM   C12F15097   4.870   5.849   8.058  0.8118  0.4418  0.7336
  138OSM   H12F15098   4.768   5.836   8.015  0.4732  1.3140  1.2509
  138OSM   H12G15099   4.871   5.956   8.088 -3.8408  1.6215 -2.1190
  138OSM   C13F15100   4.858   5.777   8.199  0.7878  0.6432  1.2138
  138OSM   H13F15101   4.851   5.669   8.175 -1.8320  0.8633  0.7072
  138OSM   H13G15102   4.758   5.796   8.243 -0.2999  0.3461 -1.0130
  138OSM   C14F15103   4.968   5.804   8.310 -0.7710  0.2004 -0.2508
  138OSM   H14F15104   4.970   5.912   8.336  2.1313  0.3038 -0.5422
  138OSM   H14G15105   5.068   5.788   8.264 -0.5656  0.1893  0.1944
  138OSM   C15F15106   4.961   5.722   8.442 -0.6369  0.0190 -0.1660
  138OSM   H15F15107   4.991   5.615   8.438 -0.4324  0.0901 -0.5904
  138OSM   H15G15108   4.859   5.737   8.484 -1.0036  0.7665 -1.2816
  138OSM   C16F15109   5.070   5.766   8.538 -0.3452 -0.0792 -0.1667
  138OSM   H16F15110   5.057   5.872   8.567  1.2359 -0.2667  1.4297
  138OSM   H16G15111   5.171   5.745   8.497 -0.7923 -2.1479 -0.3357
  138OSM   C17F15112   5.057   5.691   8.668 -0.7189  0.3806 -0.5745
  138OSM   H17F15113   5.150   5.714   8.724 -1.3717  0.0356  0.6965
  138OSM   H17G15114   5.069   5.583   8.650  0.2187  0.7313 -2.2565
  138OSM   C18F15115   4.936   5.721   8.756  0.4212  0.0661  0.3568
  138OSM   H18F15116   4.838   5.697   8.710  0.7900 -2.1401  0.5923
  138OSM   H18G15117   4.928   5.828   8.786 -2.2350 -0.5610  2.2714
  138OSM   H18H15118   4.937   5.670   8.855 -0.9919  0.2058  0.4603
  139OSM      N15119   4.252   0.135   6.339 -0.3384  0.7791 -0.3676
  139OSM    C1515120   4.380   0.117   6.273 -0.4952 -0.2743  0.2151
  139OSM   H15A15121   4.419   0.017   6.259  0.0143  0.0638 -0.8473
  139OSM   H15B15122   4.458   0.180   6.314 -2.9850  3.1982 -0.0234
  139OSM   H15C15123   4.365   0.150   6.172 -0.8988  0.7235  0.5882
  139OSM    C1415124   4.164   0.045   6.264  0.5813  0.0112  0.3650
  139OSM   H14A15125   4.196  -0.057   6.250  0.3016  0.0324 -0.4685
  139OSM   H14B15126   4.157   0.069   6.159 -0.5543 -0.5288  0.2922
  139OSM   H14C15127   4.059   0.046   6.293  0.1468 -3.5517 -0.5325
  139OSM    C1315128   4.255   0.081   6.483 -0.6885 -0.2404 -0.1589
  139OSM   H13A15129   4.347   0.117   6.525  0.5341 -2.2765 -0.9580
  139OSM   H13B15130   4.266  -0.026   6.495 -1.7928 -0.3954 -0.3806
  139OSM   H13C15131   4.164   0.114   6.532  1.2911  0.5367  3.3051
  139OSM    C1215132   4.209   0.278   6.342 -0.4113 -0.0701  0.1944
  139OSM   H12A15133   4.105   0.276   6.372  0.1652 -0.7103  2.3166
  139OSM   H12B15134   4.209   0.324   6.244 -1.4669 -0.0135  0.2055
  139OSM    C1115135   4.294   0.385   6.419 -0.1864 -1.0665 -0.0705
  139OSM   H11A15136   4.276   0.381   6.528 -1.5782 -1.0863 -0.2858
  139OSM   H11B15137   4.250   0.483   6.389  0.8021 -0.8867 -0.9891
  139OSM      P15138   4.523   0.518   6.369  0.0353 -0.1472  0.1092
  139OSM    O1315139   4.668   0.474   6.383 -0.3113 -0.1383 -0.1544
  139OSM    O1415140   4.494   0.595   6.246  0.6503  0.1676 -0.5336
  139OSM    O1115141   4.485   0.590   6.510  0.1947  0.2428  0.5080
  139OSM    O1215142   4.427   0.395   6.372 -0.5242 -0.0525  0.1040
  139OSM    C1S15143   4.512   0.523   6.633 -0.2790  0.1399 -0.3574
  139OSM    H1S15144   4.621   0.504   6.647  0.2291 -0.7520 -4.2735
  139OSM    H1T15145   4.448   0.433   6.646  0.9722 -0.8811 -0.9498
  139OSM     NF15146   4.498   0.531   6.880 -0.1034  0.5985 -0.0888
  139OSM    HNF15147   4.425   0.474   6.918  2.5359 -0.8868  3.2685
  139OSM    C2S15148   4.470   0.602   6.756  0.7652  0.0621  0.3761
  139OSM    H2S15149   4.524   0.699   6.744  0.0411  0.4233 -0.0830
  139OSM    C3S15150   4.317   0.642   6.747  0.6033  0.3428 -0.4638
  139OSM    H3S15151   4.255   0.551   6.738 -0.2905  1.0803 -2.3823
  139OSM     O315152   4.281   0.701   6.625 -0.8774  0.1021 -0.8293
  139OSM    HO315153   4.353   0.676   6.566  0.1173  1.1454 -0.1194
  139OSM    C4S15154   4.281   0.730   6.863 -0.2405  0.7701  0.2815
  139OSM    H4S15155   4.317   0.833   6.864 -1.0724  1.0672  0.6221
  139OSM    C5S15156   4.209   0.673   6.962  0.3533  1.0684 -0.6688
  139OSM    H5S15157   4.195   0.564   6.961 -0.7464  1.1207  1.6676
  139OSM    C6S15158   4.169   0.751   7.087 -0.2274  0.1428  0.1032
  139OSM    H6S15159   4.059   0.738   7.095 -0.6988  1.3017 -3.0282
  139OSM    H6T15160   4.187   0.858   7.067 -1.4177  0.0483 -1.6306
  139OSM    C7S15161   4.223   0.713   7.226  0.8680  0.1270  0.4250
  139OSM    H7S15162   4.333   0.724   7.222  0.8786  0.2327  0.9989
  139OSM    H7T15163   4.193   0.607   7.243  0.8629 -0.6751 -3.5768
  139OSM    C8S15164   4.177   0.814   7.333 -0.5377  0.4134  0.4151
  139OSM    H8S15165   4.069   0.838   7.322 -0.7662 -0.3137  0.9971
  139OSM    H8T15166   4.239   0.906   7.330  3.1103 -1.8991 -2.8330
  139OSM    C9S15167   4.213   0.755   7.473  0.2913 -0.9905 -0.1580
  139OSM    H9S15168   4.319   0.770   7.504  0.2733 -1.7432  0.2923
  139OSM    H9T15169   4.178   0.650   7.469 -2.2095 -0.3105  1.5114
  139OSM   C10S15170   4.129   0.820   7.590 -0.0651  0.1762  0.5179
  139OSM   H10S15171   4.025   0.786   7.567 -0.0478  0.4517  0.0287
  139OSM   H10T15172   4.126   0.930   7.606 -2.2605  0.0398  1.4668
  139OSM   C11S15173   4.157   0.766   7.729  0.1682  0.2592 -0.5455
  139OSM   H11S15174   4.266   0.778   7.745  0.1963  0.5425 -0.9304
  139OSM   H11T15175   4.133   0.657   7.733 -4.1623  1.1070  1.7081
  139OSM   C12S15176   4.073   0.832   7.845  0.0389  0.5788  0.1027
  139OSM   H12S15177   3.970   0.854   7.811 -0.2148  1.9982  1.6694
  139OSM   H12T15178   4.114   0.932   7.869 -0.1323  0.5501  0.5327
  139OSM   C13S15179   4.083   0.760   7.979  0.2005 -0.1234  0.1859
  139OSM   H13S15180   4.187   0.748   8.015  1.1849 -0.1544 -2.4836
  139OSM   H13T15181   4.039   0.659   7.965  0.0941 -0.1255  0.5174
  139OSM   C14S15182   3.990   0.829   8.085 -0.1530 -0.2534  0.1099
  139OSM   H14S15183   3.889   0.847   8.043  0.1196  1.9343  0.2469
  139OSM   H14T15184   4.033   0.930   8.108 -1.1850  0.7533 -2.1325
  139OSM   C15S15185   3.987   0.751   8.217  0.5516  0.1360  0.3917
  139OSM   H15S15186   3.965   0.646   8.189 -2.5493  0.7949  0.0795
  139OSM   H15T15187   3.911   0.783   8.291 -1.4351 -0.4513 -1.2969
  139OSM   C16S15188   4.113   0.763   8.299 -0.4197 -0.0867 -0.1703
  139OSM   H16S15189   4.120   0.866   8.341  1.2129  0.2166 -1.1014
  139OSM   H16T15190   4.205   0.742   8.241  0.7146 -1.3703  1.9729
  139OSM   C17S15191   4.126   0.667   8.421  0.0400 -0.2604  0.3005
  139OSM   H17S15192   4.232   0.659   8.452 -0.7647 -1.8951  2.8506
  139OSM   H17T15193   4.105   0.565   8.382  1.7208 -0.8184  0.7958
  139OSM   C18S15194   4.046   0.703   8.548 -0.1323  0.0228 -0.5043
  139OSM   H18S15195   3.936   0.708   8.533 -0.1916 -0.0389 -0.1014
  139OSM   H18T15196   4.083   0.800   8.589  1.0313 -0.6699  0.1487
  139OSM   H18U15197   4.069   0.634   8.631 -1.0735 -0.2920 -0.5020
  139OSM    C1F15198   4.617   0.532   6.938 -0.5464 -0.4720 -0.6844
  139OSM     OF15199   4.713   0.593   6.881  0.9518  0.4886 -0.1460
  139OSM    C2F15200   4.626   0.468   7.071  0.7526  0.1007 -0.4707
  139OSM    H2F15201   4.729   0.475   7.112  1.6941 -3.1715 -1.8997
  139OSM    H2G15202   4.603   0.360   7.054 -3.0860  0.9891 -2.0507
  139OSM    C3F15203   4.529   0.524   7.177 -0.0272 -0.3578 -0.1286
  139OSM    H3F15204   4.423   0.518   7.145 -0.6362 -1.1805  1.9370
  139OSM    H3G15205   4.547   0.633   7.189  1.8407 -0.7788  1.2769
  139OSM    C4F15206   4.556   0.451   7.315  0.0769  0.0816 -0.2141
  139OSM    H4F15207   4.666   0.458   7.327  0.1560  0.9249 -1.1901
  139OSM    H4G15208   4.546   0.341   7.314 -0.1555  0.1029 -0.5182
  139OSM    C5F15209   4.493   0.517   7.439 -0.5668  0.4731  0.4681
  139OSM    H5F15210   4.383   0.527   7.437 -0.7981 -1.7011 -0.3936
  139OSM    H5G15211   4.534   0.620   7.439  0.0189  0.3213 -2.0211
  139OSM    C6F15212   4.536   0.462   7.582  0.1008  0.2468 -0.0342
  139OSM    H6F15213   4.645   0.456   7.604  0.1718 -1.1756 -0.6012
  139OSM    H6G15214   4.501   0.356   7.584 -2.1449  0.8962 -1.1260
  139OSM    C7F15215   4.490   0.538   7.703  0.3726  0.4920  0.6112
  139OSM    H7F15216   4.390   0.578   7.675  1.0091  2.9872  1.6488
  139OSM    H7G15217   4.561   0.623   7.712 -0.5073  1.4401 -0.9770
  139OSM    C8F15218   4.475   0.454   7.822  0.5501 -1.1952 -0.4576
  139OSM    H8F15219   4.576   0.448   7.869  0.7456 -0.9237 -0.8459
  139OSM    H8G15220   4.442   0.351   7.796  0.3534 -0.4911 -3.2926
  139OSM    C9F15221   4.371   0.518   7.917  0.0847 -0.0016  0.3111
  139OSM    H9F15222   4.284   0.563   7.867  1.7948  0.5115 -2.4179
  139OSM   C10F15223   4.386   0.538   8.048  0.4463  0.0340 -0.7983
  139OSM   H10F15224   4.292   0.565   8.099 -1.4283  1.1472 -4.4801
  139OSM   C11F15225   4.510   0.500   8.126 -0.0694 -0.1153  0.1568
  139OSM   H11F15226   4.529   0.577   8.204 -1.1850  1.3944 -1.0176
  139OSM   H11G15227   4.606   0.495   8.071 -1.3246  0.5075 -2.2351
  139OSM   C12F15228   4.501   0.372   8.201 -0.8626  0.2287 -0.0655
  139OSM   H12F15229   4.606   0.350   8.230 -0.8647  2.1875  1.6514
  139OSM   H12G15230   4.462   0.293   8.134  2.0353  0.3061 -2.0268
  139OSM   C13F15231   4.417   0.388   8.329 -0.0102 -0.0116 -0.9034
  139OSM   H13F15232   4.411   0.290   8.381  0.9115  1.3668  2.0380
  139OSM   H13G15233   4.319   0.422   8.289  1.8188  3.6184 -2.7185
  139OSM   C14F15234   4.472   0.483   8.440 -0.7364 -0.2220  0.2606
  139OSM   H14F15235   4.447   0.584   8.403 -0.2824 -1.0026 -2.3578
  139OSM   H14G15236   4.582   0.474   8.457 -0.1714  0.0362 -2.7963
  139OSM   C15F15237   4.398   0.452   8.574 -0.8277 -0.2315  0.6426
  139OSM   H15F15238   4.424   0.351   8.614 -0.3855  0.2684  1.6638
  139OSM   H15G15239   4.289   0.444   8.555 -0.5802 -0.4551 -0.8281
  139OSM   C16F15240   4.427   0.561   8.678  0.1993  0.1198  0.3454
  139OSM   H16F15241   4.409   0.658   8.627  0.2409  0.1282  0.3459
  139OSM   H16G15242   4.538   0.564   8.687  0.0751  1.7039  1.7460
  139OSM   C17F15243   4.359   0.529   8.813 -0.0961 -0.3853  0.1263
  139OSM   H17F15244   4.390   0.429   8.852  0.8850 -0.0476  0.2230
  139OSM   H17G15245   4.250   0.523   8.791 -0.1132 -1.2369  0.3763
  139OSM   C18F15246   4.382   0.636   8.918 -0.2454 -0.3989  0.3166
  139OSM   H18F15247   4.379   0.738   8.874  1.4058 -0.1155  0.8176
  139OSM   H18G15248   4.480   0.615   8.964 -1.2505 -0.3863  2.5981
  139OSM   H18H15249   4.303   0.623   8.996  1.6764  2.4527  2.9635
  140OSM      N15250   5.205   3.461   6.406  0.1142 -0.4474 -0.3473
  140OSM    C1515251   5.127   3.583   6.383 -0.0512 -0.5044  0.5884
  140OSM   H15A15252   5.102   3.622   6.480  0.1769  2.0126 -0.2878
  140OSM   H15B15253   5.044   3.551   6.321  2.7216 -0.6043 -3.4650
  140OSM   H15C15254   5.179   3.665   6.335  1.0505 -1.6029 -0.1566
  140OSM    C1415255   5.247   3.405   6.276 -0.2784  0.1381 -0.7140
  140OSM   H14A15256   5.298   3.478   6.215 -1.7074  0.1043 -2.0199
  140OSM   H14B15257   5.173   3.361   6.210 -2.0601  0.8796  0.7039
  140OSM   H14C15258   5.313   3.320   6.285 -0.3070  0.2146  0.3281
  140OSM    C1315259   5.330   3.500   6.473 -0.1422  0.8662 -0.8737
  140OSM   H13A15260   5.408   3.533   6.407  0.9201  1.8150  0.7644
  140OSM   H13B15261   5.377   3.419   6.527  0.1974  1.0623 -0.8721
  140OSM   H13C15262   5.299   3.574   6.546  1.4920  0.7914 -0.0667
  140OSM    C1215263   5.123   3.368   6.492  0.2090  0.2875  1.0669
  140OSM   H12A15264   5.190   3.285   6.512  1.5296  0.2937 -2.5198
  140OSM   H12B15265   5.039   3.334   6.433 -2.7074  2.3243  3.7457
  140OSM    C1115266   5.073   3.427   6.620 -0.4441 -0.5401 -0.2585
  140OSM   H11A15267   5.147   3.499   6.660 -0.6333 -0.4599 -0.0510
  140OSM   H11B15268   5.066   3.343   6.692 -2.1245 -0.3881 -0.1994
  140OSM      P15269   4.813   3.413   6.616 -0.1035 -0.3236 -0.1075
  140OSM    O1315270   4.693   3.494   6.578  0.3030  0.1762 -0.1201
  140OSM    O1415271   4.833   3.279   6.553  0.4715  0.2541  0.0855
  140OSM    O1115272   4.804   3.380   6.773  0.2369 -0.4308 -0.5064
  140OSM    O1215273   4.949   3.495   6.600 -0.5143 -0.2454  0.0842
  140OSM    C1S15274   4.760   3.481   6.869 -0.0085  0.4505  0.5532
  140OSM    H1S15275   4.654   3.510   6.853 -0.2223 -0.5211  0.1467
  140OSM    H1T15276   4.833   3.564   6.862  1.9395 -1.2033  0.0282
  140OSM     NF15277   4.723   3.517   7.111  0.2770  0.3258  0.5436
  140OSM    HNF15278   4.784   3.582   7.156 -0.2927  0.3227  1.3370
  140OSM    C2S15279   4.773   3.428   7.014 -0.0171  0.1792 -0.8235
  140OSM    H2S15280   4.706   3.339   7.023  0.8795 -0.3361  1.2992
  140OSM    C3S15281   4.925   3.379   7.046 -0.0775  0.6970 -0.3729
  140OSM    H3S15282   4.983   3.473   7.058  1.6306  0.1157 -3.1443
  140OSM     O315283   4.989   3.307   6.937  0.1905  0.1751 -0.4469
  140OSM    HO315284   4.935   3.330   6.861 -0.4441 -2.0001 -0.7228
  140OSM    C4S15285   4.929   3.297   7.185  0.3030  0.0001 -0.2309
  140OSM    H4S15286   4.859   3.213   7.180  0.3579 -0.0123 -0.8195
  140OSM    C5S15287   5.000   3.315   7.295 -0.5636 -0.0777  0.1048
  140OSM    H5S15288   5.055   3.410   7.294 -1.8140  0.7426 -2.8666
  140OSM    C6S15289   5.000   3.244   7.428 -0.0425  0.0877 -0.3932
  140OSM    H6S15290   5.090   3.182   7.444  0.3749  0.7644 -0.0437
  140OSM    H6T15291   4.916   3.171   7.434  0.7183 -0.6737  2.0247
  140OSM    C7S15292   4.987   3.329   7.555 -0.0388 -0.8229  0.0424
  140OSM    H7S15293   4.889   3.380   7.555  1.2829  1.8869  0.5502
  140OSM    H7T15294   5.045   3.423   7.543 -0.3618 -0.0037  3.6045
  140OSM    C8S15295   5.024   3.260   7.686 -0.0584 -0.1489  0.2239
  140OSM    H8S15296   5.122   3.208   7.690  1.8526  3.0218 -1.0058
  140OSM    H8T15297   4.949   3.179   7.684  1.4458 -1.5702 -0.7358
  140OSM    C9S15298   5.018   3.347   7.807 -1.3649 -0.5339 -0.3815
  140OSM    H9S15299   4.919   3.373   7.850 -1.4413 -1.3577 -0.0280
  140OSM    H9T15300   5.078   3.440   7.792  0.6514 -1.6946  0.0266
  140OSM   C10S15301   5.087   3.287   7.936  1.0517 -0.4706  0.5235
  140OSM   H10S15302   5.196   3.276   7.923  1.1390  0.2170  0.6256
  140OSM   H10T15303   5.046   3.188   7.966  2.1888 -0.8197  0.9644
  140OSM   C11S15304   5.065   3.386   8.059  0.0047  0.2034 -0.0192
  140OSM   H11S15305   4.958   3.381   8.089  0.5129  1.0070  2.0899
  140OSM   H11T15306   5.085   3.487   8.016  1.4282 -1.0405 -2.5080
  140OSM   C12S15307   5.153   3.340   8.173 -0.6306  0.4596 -0.0371
  140OSM   H12S15308   5.252   3.348   8.123 -1.1568  1.9720 -0.9174
  140OSM   H12T15309   5.129   3.232   8.185 -0.6036  0.4801  0.1939
  140OSM   C13S15310   5.150   3.421   8.303  0.0812 -0.3749  0.4279
  140OSM   H13S15311   5.049   3.438   8.347  0.2407  2.2231 -0.0218
  140OSM   H13T15312   5.187   3.523   8.279 -3.2008  0.1305 -3.4931
  140OSM   C14S15313   5.243   3.356   8.403 -0.2461  0.2757 -0.3828
  140OSM   H14S15314   5.351   3.376   8.392 -0.1975  0.7191  0.7786
  140OSM   H14T15315   5.237   3.245   8.392  1.6031  0.2340 -1.2559
  140OSM   C15S15316   5.205   3.393   8.542 -0.0881  0.1120 -0.5705
  140OSM   H15S15317   5.261   3.319   8.603  0.5479  1.3038  0.3287
  140OSM   H15T15318   5.097   3.371   8.555  0.4818 -3.2345 -0.5562
  140OSM   C16S15319   5.232   3.534   8.596 -1.1905 -0.5846 -0.0066
  140OSM   H16S15320   5.214   3.532   8.706 -0.1264 -1.8113  0.1726
  140OSM   H16T15321   5.170   3.617   8.555 -1.8965 -1.1532 -0.1206
  140OSM   C17S15322   5.382   3.577   8.570 -0.4399  0.3211  0.2109
  140OSM   H17S15323   5.416   3.570   8.465 -1.1522 -0.7323  0.0415
  140OSM   H17T15324   5.450   3.504   8.619 -0.3874  0.3113  0.1234
  140OSM   C18S15325   5.416   3.716   8.629  0.0414 -0.1381 -0.0113
  140OSM   H18S15326   5.340   3.795   8.609  1.3477  1.7485  1.9724
  140OSM   H18T15327   5.515   3.754   8.596  0.7536 -3.1773 -1.7396
  140OSM   H18U15328   5.412   3.710   8.740  1.5091 -0.6354  0.0322
  140OSM    C1F15329   4.592   3.532   7.129 -0.2254 -1.3700 -0.1148
  140OSM     OF15330   4.508   3.453   7.087  0.8103  0.4189 -0.7854
  140OSM    C2F15331   4.551   3.654   7.203  0.4082 -0.1800 -0.1895
  140OSM    H2F15332   4.473   3.699   7.138 -0.2763  0.4347  1.0116
  140OSM    H2G15333   4.625   3.737   7.209 -1.3281  1.4435 -0.1340
  140OSM    C3F15334   4.495   3.625   7.345 -0.6861  0.2333  0.1124
  140OSM    H3F15335   4.425   3.539   7.334  1.3283 -1.8936  2.7229
  140OSM    H3G15336   4.434   3.713   7.377  0.1471 -0.0328  2.6550
  140OSM    C4F15337   4.598   3.611   7.455  0.3377  0.1337 -0.2218
  140OSM    H4F15338   4.634   3.716   7.463  2.8218 -0.7316  0.6138
  140OSM    H4G15339   4.681   3.543   7.429 -0.3110 -0.3802 -0.9777
  140OSM    C5F15340   4.530   3.571   7.588  0.0476  0.3892 -0.4608
  140OSM    H5F15341   4.439   3.513   7.560  0.8367 -2.9458  3.0335
  140OSM    H5G15342   4.490   3.666   7.629  0.8820  0.9618 -0.9402
  140OSM    C6F15343   4.619   3.494   7.688  0.3170  0.3818  0.1294
  140OSM    H6F15344   4.722   3.535   7.700  0.2864 -0.0909  2.3339
  140OSM    H6G15345   4.630   3.394   7.642  0.5062 -1.2286  3.4285
  140OSM    C7F15346   4.545   3.476   7.819 -0.3176 -0.0484  0.1665
  140OSM    H7F15347   4.436   3.465   7.802 -0.6857  1.4500  1.3633
  140OSM    H7G15348   4.554   3.575   7.867 -1.0488  0.2897 -0.3775
  140OSM    C8F15349   4.610   3.363   7.902 -0.4368  0.0141 -0.1832
  140OSM    H8F15350   4.707   3.404   7.939 -0.9642  0.5876  0.5740
  140OSM    H8G15351   4.643   3.280   7.835 -1.8557 -0.0233 -0.8603
  140OSM    C9F15352   4.532   3.301   8.009  0.0595  0.0444 -0.2946
  140OSM    H9F15353   4.434   3.258   7.982  0.3895 -1.4323  0.7100
  140OSM   C10F15354   4.563   3.296   8.141 -0.3487 -0.0790 -0.0711
  140OSM   H10F15355   4.496   3.240   8.207  0.8029 -0.3185  0.9249
  140OSM   C11F15356   4.686   3.347   8.204  0.2497  0.1440  0.0773
  140OSM   H11F15357   4.678   3.453   8.236  1.0685  0.1101  0.4458
  140OSM   H11G15358   4.768   3.336   8.129 -1.5650 -1.7795 -1.7862
  140OSM   C12F15359   4.730   3.272   8.328  0.0089  0.5838  1.0685
  140OSM   H12F15360   4.841   3.274   8.331  0.1994 -1.7500 -1.1132
  140OSM   H12G15361   4.714   3.163   8.317  0.1858  0.6774 -0.2367
  140OSM   C13F15362   4.661   3.320   8.459 -0.9299  0.1117  0.2376
  140OSM   H13F15363   4.562   3.364   8.437  0.0513  2.3394  0.0520
  140OSM   H13G15364   4.728   3.397   8.503  0.6181 -0.8730 -0.3125
  140OSM   C14F15365   4.628   3.212   8.569 -0.3845  0.2156  0.3133
  140OSM   H14F15366   4.719   3.152   8.592  1.2184  3.0389  1.9744
  140OSM   H14G15367   4.553   3.151   8.514  0.2349  1.4494 -2.0249
  140OSM   C15F15368   4.563   3.263   8.691  0.2953  0.5591 -0.2136
  140OSM   H15F15369   4.537   3.181   8.761  1.3509 -0.8417 -1.3878
  140OSM   H15G15370   4.474   3.322   8.662 -0.1692  0.1089  0.2856
  140OSM   C16F15371   4.656   3.357   8.766 -0.0728 -0.4907 -0.0455
  140OSM   H16F15372   4.659   3.446   8.699  0.6294 -1.4217 -1.2955
  140OSM   H16G15373   4.760   3.323   8.782 -0.3323 -0.8592  0.8947
  140OSM   C17F15374   4.587   3.409   8.892 -0.3544  0.7689  0.0717
  140OSM   H17F15375   4.563   3.325   8.961 -0.1976  1.5933  1.1555
  140OSM   H17G15376   4.488   3.455   8.872  0.2830  2.2362  0.1319
  140OSM   C18F15377   4.684   3.500   8.959  0.4191 -0.2385  0.6203
  140OSM   H18F15378   4.629   3.572   9.023  1.3473 -0.7954  2.1149
  140OSM   H18G15379   4.738   3.561   8.883 -0.1637  1.3044  1.3971
  140OSM   H18H15380   4.758   3.447   9.023 -0.2647 -1.1847  0.6479
  141OSM      N15381   3.823   3.500   6.331 -0.1339  0.0354  0.8877
  141OSM    C1515382   3.931   3.571   6.255  0.2524  0.3312 -0.2022
  141OSM   H15A15383   3.889   3.569   6.156  0.5493  1.8648 -0.3696
  141OSM   H15B15384   4.031   3.530   6.268  0.4700  0.9050 -0.0194
  141OSM   H15C15385   3.930   3.674   6.285 -0.8359 -0.1588  1.5998
  141OSM    C1415386   3.694   3.567   6.302 -0.2607  0.6633 -0.1217
  141OSM   H14A15387   3.711   3.672   6.320 -0.2347  0.6264  0.0717
  141OSM   H14B15388   3.618   3.522   6.365  1.3961 -1.5734  0.4308
  141OSM   H14C15389   3.666   3.553   6.199 -2.1932 -0.1370  0.4581
  141OSM    C1315390   3.817   3.353   6.294 -0.6025 -0.0505 -0.2670
  141OSM   H13A15391   3.744   3.309   6.360 -1.7382  1.6080 -0.3605
  141OSM   H13B15392   3.920   3.324   6.310 -0.9037 -1.1590 -0.2720
  141OSM   H13C15393   3.778   3.355   6.193 -2.1761  0.2257  0.3164
  141OSM    C1215394   3.862   3.513   6.475  0.6171 -0.1893 -0.3315
  141OSM   H12A15395   3.960   3.472   6.492  1.1245  0.2982 -1.9735
  141OSM   H12B15396   3.787   3.459   6.532  2.2746 -1.6632  0.5529
  141OSM    C1115397   3.868   3.657   6.537  0.5209  0.7595  0.2558
  141OSM   H11A15398   3.904   3.643   6.642  2.4203  0.7038 -0.3673
  141OSM   H11B15399   3.770   3.703   6.560  0.1282 -1.0424  2.6114
  141OSM      P15400   3.984   3.896   6.511  0.1733  0.3361  0.1343
  141OSM    O1315401   4.056   3.970   6.403  0.1255  0.3509 -0.2347
  141OSM    O1415402   3.869   3.957   6.576 -0.4976  0.3582 -0.5750
  141OSM    O1115403   4.086   3.853   6.622 -0.1244 -0.1095 -0.9546
  141OSM    O1215404   3.953   3.742   6.461 -0.4248 -0.5886  0.0362
  141OSM    C1S15405   4.169   3.961   6.677  0.0045 -0.2237 -0.3978
  141OSM    H1S15406   4.168   4.057   6.622  1.0508 -0.7361 -1.3723
  141OSM    H1T15407   4.271   3.917   6.680  0.7479  1.4696  0.3261
  141OSM     NF15408   4.233   4.078   6.891  0.2662  0.2165  0.2821
  141OSM    HNF15409   4.300   4.034   6.950 -0.0762  0.3153  0.7472
  141OSM    C2S15410   4.145   3.988   6.833 -0.3177 -0.0515  0.2849
  141OSM    H2S15411   4.047   4.039   6.843 -0.8882 -0.7771 -1.2462
  141OSM    C3S15412   4.134   3.852   6.915  0.8010 -0.5530 -0.3775
  141OSM    H3S15413   4.222   3.792   6.885  1.0199  0.1633 -1.1997
  141OSM     O315414   4.018   3.774   6.889 -0.0387 -0.5063 -0.1478
  141OSM    HO315415   3.999   3.804   6.800  2.4130 -1.2925 -1.0072
  141OSM    C4S15416   4.117   3.888   7.062 -0.7083  0.1880 -0.3346
  141OSM    H4S15417   4.011   3.877   7.091 -0.8588 -1.1773 -1.3288
  141OSM    C5S15418   4.210   3.903   7.159  0.8999 -0.5549  1.0876
  141OSM    H5S15419   4.316   3.882   7.136  1.4471  0.3396  2.6538
  141OSM    C6S15420   4.185   3.930   7.301 -0.2816 -0.5471 -0.3109
  141OSM    H6S15421   4.208   3.841   7.363  1.9264  0.0813 -0.1441
  141OSM    H6T15422   4.082   3.971   7.313 -0.3912 -0.6755 -0.7971
  141OSM    C7S15423   4.278   4.047   7.352 -0.7130  0.0166  0.2695
  141OSM    H7S15424   4.266   4.141   7.293  0.2723 -0.5961 -0.9645
  141OSM    H7T15425   4.383   4.012   7.348 -0.8881 -0.5644  0.6098
  141OSM    C8S15426   4.264   4.085   7.498  0.6875  0.2080  0.4905
  141OSM    H8S15427   4.166   4.134   7.516  0.6697  0.6300 -0.6367
  141OSM    H8T15428   4.335   4.166   7.525  0.3268  1.4387 -1.9332
  141OSM    C9S15429   4.273   3.964   7.596 -0.3635  0.1947 -0.4541
  141OSM    H9S15430   4.372   3.918   7.614  0.0486  0.6297 -1.5484
  141OSM    H9T15431   4.206   3.883   7.562 -1.6860  1.1260 -0.1408
  141OSM   C10S15432   4.223   4.024   7.728 -0.2652 -0.1658 -0.2409
  141OSM   H10S15433   4.117   4.056   7.716 -0.9015 -1.2643  1.9201
  141OSM   H10T15434   4.288   4.112   7.751 -0.2700 -0.0799 -0.5555
  141OSM   C11S15435   4.232   3.920   7.842  0.1699  0.2885  0.3807
  141OSM   H11S15436   4.186   3.829   7.798  0.7703  0.1796 -0.0256
  141OSM   H11T15437   4.170   3.953   7.928  0.1744 -0.5096  0.6939
  141OSM   C12S15438   4.373   3.891   7.891 -0.5362  0.2006  0.0308
  141OSM   H12S15439   4.430   3.982   7.921  1.4428 -1.2528  0.8962
  141OSM   H12T15440   4.436   3.846   7.811  0.9003  0.2793  1.0631
  141OSM   C13S15441   4.376   3.799   8.017  0.2524  0.2070  0.6994
  141OSM   H13S15442   4.348   3.696   7.986  0.3905  1.2958 -3.6153
  141OSM   H13T15443   4.307   3.847   8.090 -1.5009  0.9797 -1.3674
  141OSM   C14S15444   4.516   3.798   8.073  0.2627  0.9983 -0.0392
  141OSM   H14S15445   4.541   3.901   8.108 -0.9301  0.9109  1.1633
  141OSM   H14T15446   4.592   3.773   7.996 -0.1845  0.1709 -0.2181
  141OSM   C15S15447   4.532   3.695   8.189  0.3966  0.0519  0.2839
  141OSM   H15S15448   4.636   3.711   8.224 -0.2508  0.1339  2.3132
  141OSM   H15T15449   4.519   3.596   8.142  1.5156 -1.1172  2.2983
  141OSM   C16S15450   4.421   3.726   8.299 -0.7366  0.3784 -0.4958
  141OSM   H16S15451   4.320   3.731   8.252 -1.9977  1.5724  2.1543
  141OSM   H16T15452   4.438   3.829   8.337  1.0459  0.2692 -0.8884
  141OSM   C17S15453   4.413   3.620   8.413  0.4087  0.3481 -0.7206
  141OSM   H17S15454   4.405   3.517   8.372 -0.2424  0.4206 -0.7868
  141OSM   H17T15455   4.311   3.627   8.455 -0.0840  1.5297 -2.0367
  141OSM   C18S15456   4.511   3.645   8.530  0.1963  0.6148  0.4190
  141OSM   H18S15457   4.508   3.748   8.573  0.6054  0.5958  0.4933
  141OSM   H18T15458   4.611   3.626   8.487 -0.6967 -1.6114 -0.8105
  141OSM   H18U15459   4.483   3.574   8.611 -1.9178 -0.0186 -0.7891
  141OSM    C1F15460   4.236   4.209   6.870 -0.2334  0.2262 -0.5624
  141OSM     OF15461   4.163   4.260   6.792 -0.2949 -0.5253  0.3363
  141OSM    C2F15462   4.333   4.292   6.948  0.2529  0.0570  0.2520
  141OSM    H2F15463   4.392   4.343   6.870 -1.8294 -0.8782 -2.0794
  141OSM    H2G15464   4.404   4.223   6.999 -1.4196 -1.3641  0.7842
  141OSM    C3F15465   4.269   4.391   7.042  0.0502  0.4706  0.0395
  141OSM    H3F15466   4.222   4.330   7.122  0.9653 -0.7883 -0.3473
  141OSM    H3G15467   4.197   4.455   6.986 -1.6810 -2.7088 -1.6476
  141OSM    C4F15468   4.379   4.479   7.105  0.6305 -0.4729  0.7458
  141OSM    H4F15469   4.415   4.541   7.020  0.5434 -0.6023  0.6145
  141OSM    H4G15470   4.469   4.425   7.138  0.9492 -0.5875 -0.2782
  141OSM    C5F15471   4.325   4.575   7.212  0.3653  0.0719  0.1137
  141OSM    H5F15472   4.235   4.630   7.177 -0.4615 -0.5123  1.2574
  141OSM    H5G15473   4.398   4.658   7.224  0.5290  0.2224 -1.6717
  141OSM    C6F15474   4.301   4.512   7.352  0.1416 -0.3071 -0.7349
  141OSM    H6F15475   4.391   4.535   7.413 -1.1237  0.5955  0.8811
  141OSM    H6G15476   4.276   4.404   7.365 -1.1054  0.2283  2.1838
  141OSM    C7F15477   4.193   4.598   7.430  0.2259  0.6021  0.1143
  141OSM    H7F15478   4.094   4.558   7.398 -0.1607  2.1758 -0.7315
  141OSM    H7G15479   4.199   4.704   7.400  1.1410  0.8395  1.0774
  141OSM    C8F15480   4.202   4.559   7.576 -0.0546  0.0448 -0.0191
  141OSM    H8F15481   4.125   4.615   7.634 -0.8536 -0.5406 -0.4893
  141OSM    H8G15482   4.292   4.608   7.619 -0.9823  1.5175  0.3489
  141OSM    C9F15483   4.188   4.418   7.617  0.3691 -0.3961 -0.8724
  141OSM    H9F15484   4.196   4.343   7.537  1.1767 -1.2204 -0.0531
  141OSM   C10F15485   4.152   4.370   7.735  0.2411 -1.0055  0.4411
  141OSM   H10F15486   4.148   4.260   7.745  0.6969 -0.9745  0.9921
  141OSM   C11F15487   4.118   4.443   7.864 -0.0602 -0.3197 -0.1952
  141OSM   H11F15488   4.007   4.448   7.862  0.0093  1.6526 -0.9372
  141OSM   H11G15489   4.149   4.549   7.858 -1.7533  0.1717 -0.9824
  141OSM   C12F15490   4.176   4.385   7.995 -0.5712 -0.5616  0.5303
  141OSM   H12F15491   4.121   4.433   8.078 -0.4382  1.0161 -0.2535
  141OSM   H12G15492   4.283   4.412   8.008 -0.7791 -0.1506  1.4572
  141OSM   C13F15493   4.165   4.234   7.992  0.2007 -0.0552  0.2810
  141OSM   H13F15494   4.243   4.188   7.927 -0.2349 -2.1082  1.1438
  141OSM   H13G15495   4.065   4.210   7.950  1.0405  0.5058 -2.2437
  141OSM   C14F15496   4.170   4.185   8.134 -0.3401 -0.0199  0.4204
  141OSM   H14F15497   4.127   4.083   8.131  2.3021 -1.2327  0.4511
  141OSM   H14G15498   4.106   4.246   8.201 -0.1618 -1.4451  1.9630
  141OSM   C15F15499   4.302   4.177   8.190 -1.0987  0.2283 -0.2958
  141OSM   H15F15500   4.336   4.282   8.197 -2.9622  0.8022  0.9536
  141OSM   H15G15501   4.378   4.114   8.138 -0.2801 -0.9067  2.1589
  141OSM   C16F15502   4.287   4.131   8.344  0.1071 -0.6391 -0.8502
  141OSM   H16F15503   4.275   4.020   8.338  2.4177 -1.0671  0.8765
  141OSM   H16G15504   4.205   4.188   8.393  2.3069  1.0403  1.1394
  141OSM   C17F15505   4.408   4.145   8.436 -0.9478  0.1501  0.6403
  141OSM   H17F15506   4.432   4.253   8.441 -1.9292  0.4103  0.0429
  141OSM   H17G15507   4.499   4.092   8.399 -1.6785 -1.4927  1.1085
  141OSM   C18F15508   4.391   4.081   8.577 -0.0766 -0.3941  0.0964
  141OSM   H18F15509   4.290   4.086   8.624 -0.9345  0.1711 -1.6987
  141OSM   H18G15510   4.470   4.110   8.650  0.0969 -0.5903 -0.0140
  141OSM   H18H15511   4.403   3.971   8.568 -2.8559 -0.6664 -1.3258
  142OSM      N15512   3.459   0.345   6.526  0.3577 -0.4252 -0.9038
  142OSM    C1515513   3.404   0.322   6.666  0.2926 -0.1512 -0.5395
  142OSM   H15A15514   3.488   0.311   6.733  1.0578  2.8263 -0.8690
  142OSM   H15B15515   3.345   0.232   6.675 -2.0322  1.4078  1.2320
  142OSM   H15C15516   3.335   0.401   6.696 -2.1704 -1.9059 -1.2666
  142OSM    C1415517   3.336   0.357   6.441 -0.1856 -0.2629  0.0138
  142OSM   H14A15518   3.255   0.405   6.494 -1.6604  0.5107 -2.7648
  142OSM   H14B15519   3.301   0.262   6.404  1.9756 -0.7501 -0.9032
  142OSM   H14C15520   3.359   0.422   6.358  0.1618  0.0548  0.3522
  142OSM    C1315521   3.517   0.480   6.520 -0.2599 -0.8525 -0.1023
  142OSM   H13A15522   3.439   0.549   6.546  0.5009 -0.6271  1.7594
  142OSM   H13B15523   3.554   0.509   6.423 -0.1644  2.6967  0.8503
  142OSM   H13C15524   3.592   0.493   6.598 -0.3006 -2.5266  0.2422
  142OSM    C1215525   3.550   0.234   6.484 -0.6029  0.0765 -0.4290
  142OSM   H12A15526   3.600   0.276   6.398 -0.2645  0.4029 -0.0783
  142OSM   H12B15527   3.490   0.151   6.449 -1.9927  0.7939  0.1726
  142OSM    C1115528   3.662   0.195   6.589  0.4626 -0.5768 -0.4062
  142OSM   H11A15529   3.710   0.107   6.540  2.7101 -0.1948  0.9512
  142OSM   H11B15530   3.637   0.168   6.694 -0.7998  0.2990 -0.4625
  142OSM      P15531   3.887   0.320   6.529 -0.2605  0.0162 -0.1868
  142OSM    O1315532   3.880   0.271   6.389  0.2625 -0.0994 -0.2728
  142OSM    O1415533   3.916   0.470   6.541 -0.0708 -0.2419  0.7441
  142OSM    O1115534   4.001   0.236   6.599  0.3500  0.6103  0.0699
  142OSM    O1215535   3.759   0.296   6.606  0.4937 -0.2923 -0.4401
  142OSM    C1S15536   4.034   0.242   6.734 -0.0551  0.8581 -0.5881
  142OSM    H1S15537   4.007   0.338   6.781  1.5449  0.8235  0.4639
  142OSM    H1T15538   4.144   0.238   6.748 -0.3583 -1.3263  1.8421
  142OSM     NF15539   4.010   0.169   6.966 -0.1953 -0.2308  0.4338
  142OSM    HNF15540   4.094   0.137   7.010  1.3589  1.6808 -0.9459
  142OSM    C2S15541   3.981   0.124   6.832  0.2278 -0.0552  0.2232
  142OSM    H2S15542   3.872   0.109   6.816  0.1829  0.4128  0.0723
  142OSM    C3S15543   4.050  -0.009   6.778 -0.3322 -0.1475  0.5067
  142OSM    H3S15544   4.155   0.019   6.756 -0.7147  1.1385  0.2364
  142OSM     O315545   3.990  -0.048   6.652 -0.5841 -0.1323  0.0810
  142OSM    HO315546   3.945   0.032   6.623 -2.8670 -0.8922  1.2456
  142OSM    C4S15547   4.048  -0.118   6.876 -0.1445  0.0578 -0.6984
  142OSM    H4S15548   3.959  -0.117   6.940  0.6516 -0.1354  0.4568
  142OSM    C5S15549   4.144  -0.201   6.906  0.1064 -0.2056 -0.2917
  142OSM    H5S15550   4.238  -0.189   6.851  0.8439 -1.1203  0.7401
  142OSM    C6S15551   4.146  -0.310   7.010  0.0515  1.0384  0.0476
  142OSM    H6S15552   4.251  -0.344   7.023  0.0923  1.0650 -0.2152
  142OSM    H6T15553   4.095  -0.396   6.960  1.5195 -0.2593  0.6801
  142OSM    C7S15554   4.061  -0.287   7.139 -0.0570  0.9158  0.1757
  142OSM    H7S15555   3.952  -0.287   7.118  0.1723 -2.4476 -1.7664
  142OSM    H7T15556   4.094  -0.190   7.182  1.4860  0.1925  0.6990
  142OSM    C8S15557   4.095  -0.377   7.262  0.8069  0.3315  0.0013
  142OSM    H8S15558   4.190  -0.340   7.306 -0.3671  1.0574  2.0377
  142OSM    H8T15559   4.107  -0.483   7.231  0.8253  1.1220 -2.9885
  142OSM    C9S15560   3.972  -0.372   7.361 -0.0950  0.4847  0.4664
  142OSM    H9S15561   3.886  -0.410   7.302  2.0095 -0.2744 -2.3229
  142OSM    H9T15562   3.946  -0.264   7.367  4.7998  1.9827 -0.6158
  142OSM   C10S15563   3.992  -0.437   7.498 -0.3553  0.7169  0.0645
  142OSM   H10S15564   4.011  -0.545   7.475 -3.2955  0.2198 -0.3596
  142OSM   H10T15565   3.894  -0.427   7.548 -0.4339  2.0178 -0.3145
  142OSM   C11S15566   4.105  -0.388   7.585 -1.8162  0.3251 -0.4344
  142OSM   H11S15567   4.090  -0.284   7.622  1.1824  1.1900 -1.4215
  142OSM   H11T15568   4.196  -0.387   7.522 -0.4251 -0.5189  1.4963
  142OSM   C12S15569   4.134  -0.475   7.713 -0.0675 -0.3496  0.2815
  142OSM   H12S15570   4.230  -0.435   7.751 -0.0191 -0.9425  0.7962
  142OSM   H12T15571   4.142  -0.579   7.675  1.2580 -0.2465  0.2128
  142OSM   C13S15572   4.028  -0.459   7.826 -0.2180  0.4549  0.1039
  142OSM   H13S15573   3.929  -0.462   7.777  0.7699  1.3226 -2.0425
  142OSM   H13T15574   4.034  -0.354   7.861 -0.6121  0.6000 -0.2567
  142OSM   C14S15575   4.046  -0.571   7.928 -0.8895  0.4358 -0.1856
  142OSM   H14S15576   4.148  -0.561   7.973 -1.9668  1.6156  2.1808
  142OSM   H14T15577   4.049  -0.675   7.888  3.1703  0.2641  0.0876
  142OSM   C15S15578   3.962  -0.553   8.045 -0.5400  0.1266 -0.7282
  142OSM   H15S15579   3.862  -0.598   8.024  0.6678 -2.2895 -1.5957
  142OSM   H15T15580   3.953  -0.442   8.048 -0.2195  0.2828 -3.6140
  142OSM   C16S15581   4.011  -0.609   8.182 -0.4844 -0.3759 -0.3696
  142OSM   H16S15582   4.022  -0.719   8.184  1.8561 -0.2442 -1.6195
  142OSM   H16T15583   3.947  -0.599   8.273  0.9127  1.2164  0.5185
  142OSM   C17S15584   4.140  -0.556   8.245  0.2842 -0.1251  0.0592
  142OSM   H17S15585   4.126  -0.447   8.227  1.2719  0.1154  0.6320
  142OSM   H17T15586   4.229  -0.589   8.187 -0.2995 -0.5590 -0.6025
  142OSM   C18S15587   4.149  -0.582   8.401  0.5356  0.2158  0.2061
  142OSM   H18S15588   4.081  -0.515   8.458  0.3638  0.3964 -0.2106
  142OSM   H18T15589   4.252  -0.579   8.442  1.3744  1.7847 -1.8159
  142OSM   H18U15590   4.113  -0.686   8.410  1.5465 -0.1830 -0.2061
  142OSM    C1F15591   3.929   0.256   7.027 -0.3697  0.1163  0.3968
  142OSM     OF15592   3.822   0.297   6.983 -0.4426  0.6618 -0.3105
  142OSM    C2F15593   3.985   0.306   7.160  1.0211 -0.5965  0.0972
  142OSM    H2F15594   4.063   0.376   7.122  0.6746 -0.6712 -0.7856
  142OSM    H2G15595   4.047   0.229   7.211  2.0217  0.9100  1.2804
  142OSM    C3F15596   3.879   0.389   7.244  0.1543  0.0474 -1.0653
  142OSM    H3F15597   3.788   0.329   7.266 -2.0269  2.2021 -3.4648
  142OSM    H3G15598   3.842   0.467   7.174  0.7508  0.5718 -0.8030
  142OSM    C4F15599   3.938   0.448   7.364  0.0731 -0.1140 -0.7311
  142OSM    H4F15600   4.033   0.498   7.335  1.6864 -1.6810  1.4968
  142OSM    H4G15601   3.974   0.367   7.431 -0.4232  2.6893  3.3418
  142OSM    C5F15602   3.845   0.531   7.448 -0.3888 -0.8338 -0.0788
  142OSM    H5F15603   3.743   0.488   7.450 -1.7361  2.1668  1.0089
  142OSM    H5G15604   3.835   0.637   7.416 -0.2861 -1.3705 -2.0592
  142OSM    C6F15605   3.890   0.533   7.595 -0.0714 -0.1276  0.2085
  142OSM    H6F15606   3.855   0.630   7.637 -1.6079  0.4191 -2.1399
  142OSM    H6G15607   4.000   0.517   7.597  0.1386  0.1819 -3.1898
  142OSM    C7F15608   3.832   0.404   7.663 -0.2268  0.5607 -0.5027
  142OSM    H7F15609   3.861   0.317   7.600  0.0588 -0.8198  1.4055
  142OSM    H7G15610   3.722   0.415   7.670 -0.6481 -2.2571 -1.4105
  142OSM    C8F15611   3.883   0.376   7.802 -0.3925  0.2644 -0.4509
  142OSM    H8F15612   3.993   0.377   7.782 -0.5060  1.6958 -1.1176
  142OSM    H8G15613   3.852   0.274   7.834  0.3813  0.3480  0.6418
  142OSM    C9F15614   3.844   0.482   7.899 -0.1581 -0.2162 -0.3328
  142OSM    H9F15615   3.846   0.583   7.856 -0.2036 -0.5324 -1.1128
  142OSM   C10F15616   3.780   0.452   8.015 -0.2030  0.4348 -1.0750
  142OSM   H10F15617   3.748   0.535   8.080  0.4215 -0.7683  0.8733
  142OSM   C11F15618   3.765   0.311   8.079  0.2214  0.4206  0.3416
  142OSM   H11F15619   3.853   0.252   8.045 -0.9049 -0.7221 -0.7008
  142OSM   H11G15620   3.675   0.258   8.041  1.3734 -2.2084  1.0638
  142OSM   C12F15621   3.742   0.306   8.231  0.4013 -0.4475 -0.1714
  142OSM   H12F15622   3.724   0.200   8.256  1.5732 -0.2030  1.9638
  142OSM   H12G15623   3.654   0.365   8.263  1.1461  1.0653 -0.7575
  142OSM   C13F15624   3.863   0.347   8.310 -0.6433 -0.2807 -0.0113
  142OSM   H13F15625   3.885   0.455   8.294  0.4413 -0.6715 -1.3591
  142OSM   H13G15626   3.939   0.278   8.266 -1.1891 -0.8413 -0.0759
  142OSM   C14F15627   3.847   0.305   8.457  0.2899 -0.1821  0.4348
  142OSM   H14F15628   3.835   0.194   8.466  0.1577 -0.2646 -0.6050
  142OSM   H14G15629   3.759   0.358   8.499 -0.2521 -0.1922 -0.6636
  142OSM   C15F15630   3.967   0.346   8.547 -0.1564 -0.2182  0.0127
  142OSM   H15F15631   3.953   0.453   8.572  0.0572 -0.3974  0.9528
  142OSM   H15G15632   4.066   0.332   8.498  0.4171  0.3376  0.9748
  142OSM   C16F15633   3.963   0.265   8.679 -0.4965  0.1713 -0.5435
  142OSM   H16F15634   3.966   0.156   8.659 -0.4300 -0.2631  1.6226
  142OSM   H16G15635   3.870   0.292   8.732  0.1434 -0.3689  0.8972
  142OSM   C17F15636   4.079   0.308   8.780  0.7433  0.4846  0.4427
  142OSM   H17F15637   4.072   0.416   8.803  0.3272  0.3966  0.7404
  142OSM   H17G15638   4.167   0.294   8.713 -0.2831 -1.5854 -0.5785
  142OSM   C18F15639   4.090   0.223   8.894 -0.2340  0.3681 -0.4178
  142OSM   H18F15640   4.128   0.125   8.860 -1.0429  0.8015 -2.7638
  142OSM   H18G15641   3.994   0.217   8.950  0.2691  0.2768  0.4451
  142OSM   H18H15642   4.170   0.261   8.961  1.5107  0.3546 -2.3967
  143OSM      N15643   6.328   1.314   6.129  0.0758  0.2198 -0.4615
  143OSM    C1515644   6.340   1.162   6.103  0.2793 -0.6112  0.2223
  143OSM   H15A15645   6.437   1.126   6.130  0.5421  0.3751  0.6586
  143OSM   H15B15646   6.322   1.130   6.002 -0.3193  2.1027 -0.6350
  143OSM   H15C15647   6.266   1.110   6.163 -0.9115  0.9604  0.1875
  143OSM    C1415648   6.422   1.386   6.039 -0.0530  0.3149 -0.1690
  143OSM   H14A15649   6.416   1.492   6.061 -1.2088  0.0477  0.8953
  143OSM   H14B15650   6.400   1.365   5.936  2.4373  0.4722 -0.8083
  143OSM   H14C15651   6.524   1.352   6.051 -1.0740 -2.5619  1.1218
  143OSM    C1315652   6.189   1.361   6.091  0.6139  0.4285  0.0841
  143OSM   H13A15653   6.175   1.339   5.986  0.3067 -1.1224  0.4188
  143OSM   H13B15654   6.172   1.466   6.109  1.3113  1.0041 -2.3212
  143OSM   H13C15655   6.115   1.307   6.148 -0.9999  0.6823 -1.6912
  143OSM    C1215656   6.353   1.351   6.277  0.3974 -0.0135 -0.1248
  143OSM   H12A15657   6.264   1.337   6.337 -0.1264  1.7321 -0.4295
  143OSM   H12B15658   6.362   1.459   6.274  0.3771 -0.0149 -2.8268
  143OSM    C1115659   6.486   1.308   6.343  0.5653  0.3137  0.2802
  143OSM   H11A15660   6.494   1.199   6.357 -0.3179  0.0545 -1.0460
  143OSM   H11B15661   6.481   1.341   6.449 -0.5742 -1.4399  0.8142
  143OSM      P15662   6.673   1.494   6.329 -0.0073 -0.0132 -0.0943
  143OSM    O1315663   6.791   1.518   6.240 -0.3724  0.3616 -0.4455
  143OSM    O1415664   6.573   1.603   6.326 -0.2895 -0.2171  0.4481
  143OSM    O1115665   6.720   1.468   6.481  0.3956 -0.0505 -0.2410
  143OSM    O1215666   6.600   1.364   6.274  0.1350  0.6552  0.5501
  143OSM    C1S15667   6.806   1.366   6.523 -0.2458 -0.4969  0.1544
  143OSM    H1S15668   6.905   1.397   6.483 -0.9226 -0.7824 -1.8111
  143OSM    H1T15669   6.769   1.268   6.486 -2.5873  0.1797  0.5263
  143OSM     NF15670   6.909   1.285   6.733 -0.3121 -0.2111 -0.0414
  143OSM    HNF15671   6.907   1.185   6.729 -1.3333 -0.1643 -1.1328
  143OSM    C2S15672   6.800   1.355   6.679 -0.5619  0.2960 -0.4825
  143OSM    H2S15673   6.802   1.459   6.720  1.0079 -0.1441  0.6244
  143OSM    C3S15674   6.664   1.292   6.726  0.7035 -0.1111  0.0997
  143OSM    H3S15675   6.649   1.188   6.688 -0.4487 -0.2652  0.9018
  143OSM     O315676   6.545   1.358   6.674 -0.2852 -0.6536 -0.8449
  143OSM    HO315677   6.578   1.400   6.594 -0.4119 -0.4609 -0.7964
  143OSM    C4S15678   6.653   1.285   6.870  0.0057  0.0082  0.0878
  143OSM    H4S15679   6.672   1.381   6.918 -0.4922 -0.1213  0.5506
  143OSM    C5S15680   6.631   1.172   6.942  0.3389  0.2399 -0.1040
  143OSM    H5S15681   6.595   1.088   6.880 -0.3547  1.2085 -1.0378
  143OSM    C6S15682   6.615   1.162   7.093 -0.8325  0.4088  0.1958
  143OSM    H6S15683   6.675   1.245   7.136  1.7731 -0.4148 -1.6266
  143OSM    H6T15684   6.675   1.070   7.109  1.1344  1.3475 -1.3481
  143OSM    C7S15685   6.472   1.146   7.145  0.1338  0.4204  0.5842
  143OSM    H7S15686   6.433   1.047   7.115  4.6430 -1.6068  0.5724
  143OSM    H7T15687   6.408   1.228   7.105 -0.2850  0.8884  2.1687
  143OSM    C8S15688   6.457   1.162   7.293 -0.3165  0.2910 -1.0662
  143OSM    H8S15689   6.353   1.187   7.324  0.8787  2.2002  1.7750
  143OSM    H8T15690   6.506   1.258   7.316 -0.1251  0.6662 -2.9008
  143OSM    C9S15691   6.523   1.043   7.366 -0.3516  0.2573  0.2519
  143OSM    H9S15692   6.628   1.037   7.329 -0.9222 -0.9042 -1.2696
  143OSM    H9T15693   6.474   0.950   7.331 -1.4365  0.6217  0.7463
  143OSM   C10S15694   6.516   1.067   7.521 -0.3227  0.1342  0.2612
  143OSM   H10S15695   6.408   1.064   7.548 -0.2940  1.6323  0.6309
  143OSM   H10T15696   6.560   1.167   7.539 -0.6642  0.6824 -1.6788
  143OSM   C11S15697   6.592   0.957   7.597 -0.0476  0.1482  0.1894
  143OSM   H11S15698   6.699   0.941   7.571  0.8304  0.6612  3.1314
  143OSM   H11T15699   6.531   0.868   7.570  0.2986  1.0136 -4.2637
  143OSM   C12S15700   6.584   0.990   7.750 -0.1690  0.2328  0.4071
  143OSM   H12S15701   6.484   1.027   7.780  0.4156 -0.0519  2.9396
  143OSM   H12T15702   6.659   1.070   7.770  1.0909 -1.1473  1.4437
  143OSM   C13S15703   6.623   0.871   7.838  0.1409 -0.1256 -0.1155
  143OSM   H13S15704   6.727   0.842   7.812  0.3359  0.3436  0.1283
  143OSM   H13T15705   6.560   0.782   7.815  1.8164 -1.4997  0.4589
  143OSM   C14S15706   6.597   0.899   7.992 -0.7943 -0.5317  0.4773
  143OSM   H14S15707   6.488   0.916   8.006 -0.3778  2.4517  0.7738
  143OSM   H14T15708   6.659   0.984   8.026 -1.4025  0.3845 -0.6513
  143OSM   C15S15709   6.646   0.769   8.066  0.4587  0.1464  0.5802
  143OSM   H15S15710   6.757   0.761   8.059  0.4611  0.0787  0.6912
  143OSM   H15T15711   6.591   0.683   8.022 -0.7874  1.0051  0.4029
  143OSM   C16S15712   6.629   0.780   8.214 -0.0073  0.1391  0.1017
  143OSM   H16S15713   6.521   0.799   8.235  0.0737  0.2489  0.4323
  143OSM   H16T15714   6.662   0.883   8.242 -2.2835  1.1893 -0.8071
  143OSM   C17S15715   6.684   0.661   8.300  0.1502  0.3827  0.1185
  143OSM   H17S15716   6.688   0.701   8.404  0.2638 -1.2633  0.7819
  143OSM   H17T15717   6.788   0.651   8.264  0.7066  1.7393  1.2733
  143OSM   C18S15718   6.589   0.534   8.301 -0.0812 -0.0992  0.3209
  143OSM   H18S15719   6.485   0.555   8.333  0.1392 -1.2965  1.9981
  143OSM   H18T15720   6.632   0.462   8.374 -0.0048 -0.2069  0.1690
  143OSM   H18U15721   6.584   0.477   8.206  0.0367  1.4277 -0.6313
  143OSM    C1F15722   7.025   1.350   6.742 -0.1359  0.1568 -0.5956
  143OSM     OF15723   7.043   1.462   6.695  0.1496  0.6836 -0.8319
  143OSM    C2F15724   7.136   1.262   6.800  0.3337  0.2390 -0.1119
  143OSM    H2F15725   7.193   1.211   6.720  2.2190 -1.3092  2.0737
  143OSM    H2G15726   7.095   1.176   6.857  1.3377  0.7997  1.5145
  143OSM    C3F15727   7.237   1.338   6.893 -0.1062 -0.2221 -0.9668
  143OSM    H3F15728   7.316   1.401   6.846  1.0531 -0.8939  0.0073
  143OSM    H3G15729   7.297   1.259   6.944 -0.7403  0.4137  0.8247
  143OSM    C4F15730   7.180   1.396   7.028  0.3957  0.7571  0.3662
  143OSM    H4F15731   7.125   1.491   7.010 -2.3922 -0.5987  1.2573
  143OSM    H4G15732   7.266   1.428   7.092 -0.7871  1.2293  1.7866
  143OSM    C5F15733   7.079   1.303   7.102  0.3744 -0.5099  0.7141
  143OSM    H5F15734   7.127   1.207   7.130 -1.0378 -0.7032  2.6846
  143OSM    H5G15735   6.988   1.290   7.041  0.6982 -0.5958  0.2428
  143OSM    C6F15736   7.039   1.371   7.231  0.5643  0.2559  0.6591
  143OSM    H6F15737   6.960   1.441   7.197  0.2909 -1.5954 -3.0303
  143OSM    H6G15738   7.127   1.418   7.279  1.6153 -0.2475 -0.7087
  143OSM    C7F15739   6.983   1.267   7.337 -0.6710  0.1131 -0.6678
  143OSM    H7F15740   7.062   1.199   7.374 -1.4066  0.3210  1.4383
  143OSM    H7G15741   6.896   1.214   7.293 -1.4658  0.4979  0.3911
  143OSM    C8F15742   6.913   1.342   7.462  0.0677  0.6072  0.9871
  143OSM    H8F15743   6.840   1.414   7.419 -0.0232  0.5547  1.0530
  143OSM    H8G15744   6.994   1.402   7.508  0.5392  0.2308  0.6533
  143OSM    C9F15745   6.846   1.252   7.565 -0.3698  0.6974 -0.0757
  143OSM    H9F15746   6.759   1.196   7.529  1.3833 -0.2483 -3.2104
  143OSM   C10F15747   6.877   1.243   7.694 -0.0151  0.7453  0.8766
  143OSM   H10F15748   6.810   1.182   7.756 -0.5729  0.6721  0.2239
  143OSM   C11F15749   6.989   1.311   7.770  0.5337 -0.2461  0.2282
  143OSM   H11F15750   7.036   1.393   7.712  1.5782 -0.1341  1.1901
  143OSM   H11G15751   7.066   1.233   7.789  1.0291  0.7428  2.6445
  143OSM   C12F15752   6.941   1.374   7.911 -1.0879  0.2112  0.7135
  143OSM   H12F15753   6.856   1.444   7.908 -1.2164  0.3213  3.8352
  143OSM   H12G15754   7.027   1.437   7.944 -1.1226  0.1661  0.8913
  143OSM   C13F15755   6.910   1.270   8.021  0.2823 -0.8868  0.7130
  143OSM   H13F15756   7.009   1.221   8.033  0.3730 -1.4616 -1.8259
  143OSM   H13G15757   6.840   1.199   7.973 -1.7514  1.8822 -0.7233
  143OSM   C14F15758   6.838   1.324   8.154 -0.2134 -0.2425 -0.7497
  143OSM   H14F15759   6.758   1.395   8.122  1.1712  1.6049 -0.3268
  143OSM   H14G15760   6.909   1.393   8.205 -1.9547  2.2867 -1.5512
  143OSM   C15F15761   6.789   1.213   8.251  0.1557 -0.0513 -0.6552
  143OSM   H15F15762   6.855   1.123   8.252 -0.8044 -0.9383 -3.6630
  143OSM   H15G15763   6.686   1.179   8.229 -0.3602 -0.1410  1.7360
  143OSM   C16F15764   6.774   1.271   8.395 -0.1936 -0.3920  0.4703
  143OSM   H16F15765   6.707   1.359   8.388  1.9010  1.3496  1.2903
  143OSM   H16G15766   6.872   1.314   8.426 -0.6129 -0.3290  1.7403
  143OSM   C17F15767   6.750   1.162   8.497  0.6761 -0.4218  0.1869
  143OSM   H17F15768   6.778   1.200   8.598 -0.2475 -0.6144  0.5215
  143OSM   H17G15769   6.828   1.087   8.469  5.2191  4.0791 -0.7332
  143OSM   C18F15770   6.612   1.102   8.499 -1.5038  0.7419  0.3385
  143OSM   H18F15771   6.586   1.043   8.409  0.5574 -0.6568  0.5836
  143OSM   H18G15772   6.535   1.181   8.512 -0.3175  1.8237  1.0414
  143OSM   H18H15773   6.598   1.041   8.591 -1.4080  0.0995 -0.0723
  144OSM      N15774   4.947   2.217   6.250 -0.1617  0.2853 -0.6347
  144OSM    C1515775   4.970   2.312   6.136 -0.0167 -0.0931 -0.1865
  144OSM   H15A15776   4.979   2.253   6.046 -0.1166 -1.6330  0.7690
  144OSM   H15B15777   5.060   2.371   6.141 -1.2406  1.9584 -1.1674
  144OSM   H15C15778   4.901   2.394   6.127  0.5358  0.5865  1.2985
  144OSM    C1415779   4.824   2.147   6.216  0.7772 -0.6680  0.1622
  144OSM   H14A15780   4.738   2.212   6.211 -0.0343 -1.6459  1.1091
  144OSM   H14B15781   4.805   2.070   6.288  0.6428 -1.4815 -0.7220
  144OSM   H14C15782   4.840   2.101   6.119 -2.5040 -0.6557 -0.4995
  144OSM    C1315783   5.066   2.124   6.265  0.2809 -0.0727  0.2063
  144OSM   H13A15784   5.055   2.051   6.345  2.3784 -0.9257 -0.2228
  144OSM   H13B15785   5.151   2.185   6.293  0.1646  0.4048 -0.4635
  144OSM   H13C15786   5.089   2.066   6.178  1.9630 -0.2428  0.7275
  144OSM    C1215787   4.926   2.303   6.376  0.5306 -0.5860  0.4304
  144OSM   H12A15788   4.893   2.241   6.457  1.2962 -2.3346 -0.5422
  144OSM   H12B15789   4.857   2.383   6.353  0.7271 -1.0910 -2.3405
  144OSM    C1115790   5.045   2.383   6.427  0.4120  0.3506 -0.7491
  144OSM   H11A15791   5.008   2.461   6.498 -0.6600 -0.0857 -0.8245
  144OSM   H11B15792   5.087   2.446   6.346 -1.2742  0.0752 -1.8691
  144OSM      P15793   5.147   2.236   6.616 -0.3763 -0.3502  0.3802
  144OSM    O1315794   5.032   2.143   6.619 -0.0951  0.1254 -0.1800
  144OSM    O1415795   5.282   2.186   6.648 -0.3128  0.0340  0.1432
  144OSM    O1115796   5.121   2.356   6.713 -0.3337  0.0759 -0.1874
  144OSM    O1215797   5.161   2.313   6.476 -0.3981  0.5464 -0.0322
  144OSM    C1S15798   5.095   2.323   6.849  0.1439 -0.6243 -0.4710
  144OSM    H1S15799   5.175   2.254   6.883 -0.6132 -1.6575 -0.7443
  144OSM    H1T15800   4.997   2.273   6.861 -0.2406  0.2983  0.3088
  144OSM     NF15801   5.120   2.406   7.089 -0.7522  0.0118 -0.4978
  144OSM    HNF15802   5.042   2.427   7.147  1.4345  4.1347  1.4057
  144OSM    C2S15803   5.114   2.446   6.948  0.2697  0.1044 -0.1244
  144OSM    H2S15804   5.209   2.498   6.924  0.8203 -0.1719  1.3326
  144OSM    C3S15805   5.003   2.554   6.905 -0.3071 -0.6895 -0.4817
  144OSM    H3S15806   4.906   2.526   6.951  0.4411 -1.9589  0.3563
  144OSM     O315807   4.988   2.576   6.764 -0.1164  0.3372  0.2991
  144OSM    HO315808   5.024   2.498   6.721  0.7821 -0.4018  2.2994
  144OSM    C4S15809   5.021   2.688   6.980  0.7119 -0.2803  0.1708
  144OSM    H4S15810   4.942   2.711   7.054 -0.5705 -1.2385 -0.8465
  144OSM    C5S15811   5.103   2.789   6.945  0.0344  0.1714 -0.1416
  144OSM    H5S15812   5.178   2.777   6.865  0.2847 -1.2441  0.2778
  144OSM    C6S15813   5.109   2.926   7.014  0.1695 -0.7300  0.1038
  144OSM    H6S15814   5.005   2.952   7.045  0.8276  0.8294  1.1328
  144OSM    H6T15815   5.146   2.994   6.934 -1.1085  2.1424  1.7986
  144OSM    C7S15816   5.198   2.945   7.137  0.1918 -0.0277  0.2628
  144OSM    H7S15817   5.208   3.054   7.160  1.2768 -0.3699  1.5681
  144OSM    H7T15818   5.299   2.901   7.124  0.2149 -0.6532  2.2865
  144OSM    C8S15819   5.125   2.892   7.263  0.2177  0.2271 -0.0011
  144OSM    H8S15820   5.089   2.792   7.232 -1.3931  0.1075  1.9924
  144OSM    H8T15821   5.031   2.945   7.293  0.4955  0.9104 -0.3213
  144OSM    C9S15822   5.221   2.887   7.379  0.4862  0.5071 -1.1270
  144OSM    H9S15823   5.288   2.976   7.386 -0.0341  0.7589  1.4634
  144OSM    H9T15824   5.284   2.796   7.375 -0.9704 -0.6466  0.8155
  144OSM   C10S15825   5.156   2.879   7.509  0.7612  1.1850 -0.7798
  144OSM   H10S15826   5.085   2.794   7.504 -0.2883  2.0013 -0.1095
  144OSM   H10T15827   5.095   2.971   7.525  1.5048  2.0895 -2.8683
  144OSM   C11S15828   5.256   2.867   7.634 -0.2583  0.0315  0.0958
  144OSM   H11S15829   5.317   2.959   7.629 -0.5175  0.1622 -0.8188
  144OSM   H11T15830   5.332   2.788   7.615 -1.5533 -0.6658 -2.8504
  144OSM   C12S15831   5.198   2.853   7.769  0.2584 -0.8479 -0.6306
  144OSM   H12S15832   5.094   2.893   7.761 -0.0000  0.0941  4.3216
  144OSM   H12T15833   5.247   2.926   7.837 -0.9501 -0.9330  0.3822
  144OSM   C13S15834   5.203   2.715   7.831 -0.6367 -0.1469  0.1443
  144OSM   H13S15835   5.309   2.686   7.816 -1.0739 -1.7908 -0.0228
  144OSM   H13T15836   5.136   2.647   7.773  0.4433 -0.6161 -0.5699
  144OSM   C14S15837   5.176   2.705   7.982 -0.0955 -0.6087  0.6602
  144OSM   H14S15838   5.212   2.798   8.032 -1.7912  0.8490 -0.7049
  144OSM   H14T15839   5.247   2.626   8.016  1.4674  0.4039 -0.1110
  144OSM   C15S15840   5.027   2.702   8.017 -0.9276 -0.0916  0.0051
  144OSM   H15S15841   4.991   2.606   7.974  1.1114 -1.0688  0.3661
  144OSM   H15T15842   4.978   2.786   7.964  0.7998  0.4161 -0.8779
  144OSM   C16S15843   5.009   2.701   8.167 -0.7937 -0.0961 -0.2236
  144OSM   H16S15844   5.088   2.634   8.207  0.9705  1.7090 -0.5447
  144OSM   H16T15845   4.914   2.654   8.201 -1.3051  0.5831 -0.6927
  144OSM   C17S15846   5.033   2.834   8.249 -0.6078 -0.4237  0.2775
  144OSM   H17S15847   5.128   2.878   8.212 -1.2190  2.3996  1.7549
  144OSM   H17T15848   5.047   2.824   8.359 -0.1076  0.6803  0.3345
  144OSM   C18S15849   4.927   2.943   8.212 -0.1447 -0.0121 -0.1445
  144OSM   H18S15850   4.957   3.047   8.232  1.8660 -0.8782  1.7322
  144OSM   H18T15851   4.833   2.915   8.265  0.0095 -1.2266 -0.4659
  144OSM   H18U15852   4.906   2.936   8.103 -3.3751  1.2136  0.2723
  144OSM    C1F15853   5.221   2.330   7.143  0.1613  0.5124 -0.5230
  144OSM     OF15854   5.311   2.290   7.070 -0.1776  0.3745  0.0587
  144OSM    C2F15855   5.213   2.295   7.291  0.4472 -0.4220  0.2356
  144OSM    H2F15856   5.130   2.225   7.314  0.0994  0.3647  1.4818
  144OSM    H2G15857   5.195   2.383   7.356  0.0195 -2.0249  2.4438
  144OSM    C3F15858   5.346   2.225   7.344  0.2716 -1.0561  0.1631
  144OSM    H3F15859   5.436   2.289   7.347  0.4550 -1.3400  1.0568
  144OSM    H3G15860   5.379   2.140   7.279 -0.0007 -1.5216  0.6244
  144OSM    C4F15861   5.333   2.180   7.493  0.3713 -0.5527  0.9559
  144OSM    H4F15862   5.407   2.098   7.506 -1.0652 -1.6063  3.0036
  144OSM    H4G15863   5.232   2.136   7.508 -0.0362 -0.0147 -0.1127
  144OSM    C5F15864   5.358   2.292   7.589 -0.3235  0.2961 -0.6853
  144OSM    H5F15865   5.313   2.386   7.551  1.6274  0.4268 -2.8790
  144OSM    H5G15866   5.466   2.313   7.600 -0.1819 -0.7931  0.2286
  144OSM    C6F15867   5.304   2.256   7.735 -0.0442 -0.2174  0.2915
  144OSM    H6F15868   5.372   2.178   7.775  0.8514  0.5611  0.2985
  144OSM    H6G15869   5.206   2.204   7.743  0.1447 -0.3846  1.6720
  144OSM    C7F15870   5.311   2.384   7.832 -0.3313  0.1910  0.0543
  144OSM    H7F15871   5.232   2.455   7.800 -2.0053 -1.8735 -0.6756
  144OSM    H7G15872   5.408   2.429   7.803  0.9992 -2.2237  0.4658
  144OSM    C8F15873   5.306   2.333   7.976  0.0484 -0.5469  0.2689
  144OSM    H8F15874   5.246   2.239   7.973 -0.2814 -0.3210 -0.6085
  144OSM    H8G15875   5.248   2.401   8.042  1.7663  1.1961  0.0405
  144OSM    C9F15876   5.441   2.309   8.038  1.0457  1.2613  1.0453
  144OSM    H9F15877   5.489   2.235   7.972 -3.0345  1.1937 -2.2590
  144OSM   C10F15878   5.500   2.371   8.135 -0.4502  1.0645  0.6064
  144OSM   H10F15879   5.597   2.331   8.169 -1.1018 -1.8172 -0.6426
  144OSM   C11F15880   5.445   2.479   8.217 -0.0360  0.1892  0.6724
  144OSM   H11F15881   5.359   2.525   8.163 -0.3023 -0.5663  0.4308
  144OSM   H11G15882   5.515   2.563   8.201 -0.1167 -0.1726 -2.0141
  144OSM   C12F15883   5.414   2.453   8.364  0.3917  0.0223  0.1216
  144OSM   H12F15884   5.386   2.550   8.411  0.5877  0.7191 -1.1560
  144OSM   H12G15885   5.507   2.432   8.421  1.2394  0.4148 -1.0608
  144OSM   C13F15886   5.299   2.346   8.384  0.1374  0.3368 -0.2515
  144OSM   H13F15887   5.329   2.245   8.346  0.3586  1.0954 -2.2092
  144OSM   H13G15888   5.214   2.380   8.322  0.9076 -2.6060 -3.2455
  144OSM   C14F15889   5.270   2.319   8.535  0.0080 -0.0640 -0.1483
  144OSM   H14F15890   5.221   2.406   8.583  0.4831 -0.0056  0.2371
  144OSM   H14G15891   5.366   2.330   8.590 -0.2916  0.6850  0.2345
  144OSM   C15F15892   5.199   2.186   8.571  0.0949 -0.3276  1.1979
  144OSM   H15F15893   5.266   2.102   8.542 -1.2089 -0.8725 -0.4072
  144OSM   H15G15894   5.111   2.194   8.503 -0.4177  0.8299  1.9709
  144OSM   C16F15895   5.153   2.173   8.715 -0.3924 -0.3701 -0.5710
  144OSM   H16F15896   5.072   2.098   8.727 -1.0383  0.6461  2.0680
  144OSM   H16G15897   5.107   2.267   8.752 -1.1996 -0.2070 -1.9236
  144OSM   C17F15898   5.268   2.136   8.812  0.2664 -0.2884 -0.0703
  144OSM   H17F15899   5.337   2.223   8.819  1.3389 -1.1587  0.4515
  144OSM   H17G15900   5.316   2.044   8.772  1.0668  0.2757 -0.4406
  144OSM   C18F15901   5.228   2.108   8.954 -0.3220 -0.4993  0.7163
  144OSM   H18F15902   5.310   2.068   9.017 -0.6082 -1.2158  0.6466
  144OSM   H18G15903   5.159   2.021   8.959  0.8542 -1.4002  3.6934
  144OSM   H18H15904   5.191   2.198   9.007  2.4715  0.5926  1.0046
  145SAPE     N15905   5.097   0.730  10.969  0.8438 -1.0718 -0.3786
  145SAPE   HN115906   5.041   0.781  11.040 -0.0797 -1.8878 -0.4947
  145SAPE   HN215907   5.131   0.635  10.997  1.6733 -0.5005  0.6258
  145SAPE   HN315908   5.178   0.782  10.928  2.0815 -1.4845  1.4061
  145SAPE   C1215909   5.008   0.713  10.852 -0.3253  0.1274 -0.1051
  145SAPE  H12A15910   4.989   0.807  10.796  1.8881 -1.5664 -4.1395
  145SAPE  H12B15911   4.905   0.687  10.884 -0.5851 -0.9527 -1.7010
  145SAPE   C1115912   5.071   0.602  10.757 -0.0381 -0.7496  0.3343
  145SAPE  H11A15913   5.168   0.638  10.718  0.4295 -1.5053  0.7917
  145SAPE  H11B15914   5.003   0.609  10.670  2.3874  1.2451 -1.5582
  145SAPE     P15915   4.972   0.377  10.856 -0.2616 -0.1888 -0.4016
  145SAPE   O1315916   5.007   0.320  10.988  0.6769  0.7466  0.2409
  145SAPE   O1415917   4.838   0.444  10.872 -0.0056 -0.2108  0.3805
  145SAPE   O1215918   5.090   0.478  10.820 -0.1928 -0.1684 -0.2189
  145SAPE   O1115919   4.977   0.266  10.742 -0.0434 -0.3315  0.0235
  145SAPE    C115920   5.075   0.274  10.639  0.7506 -0.5522  0.7424
  145SAPE    HA15921   5.065   0.376  10.595 -2.4732 -0.8143  0.6784
  145SAPE    HB15922   5.178   0.261  10.679  1.8986 -2.2606 -2.4171
  145SAPE    C215923   5.054   0.163  10.526  0.2887 -0.0534 -0.0303
  145SAPE    HS15924   4.947   0.154  10.497 -0.1415  0.6503  1.2700
  145SAPE   O2115925   5.114   0.040  10.566 -0.1420  0.6111  0.8460
  145SAPE   C2115926   5.041  -0.043  10.641  0.0367  0.2184 -0.0552
  145SAPE   O2215927   4.921  -0.023  10.668 -0.7381 -0.1831  0.5051
  145SAPE   C2215928   5.122  -0.152  10.703 -0.4437  0.5060 -0.0751
  145SAPE   H2R15929   5.180  -0.106  10.786 -1.1759  1.9745 -0.3480
  145SAPE   H2S15930   5.063  -0.234  10.749  1.2428  0.7229  2.7330
  145SAPE    C315931   5.128   0.195  10.393  0.3698 -0.1338 -0.0801
  145SAPE    HX15932   5.121   0.117  10.314  0.0119  1.0948 -1.2936
  145SAPE    HY15933   5.237   0.194  10.416  0.1528  1.8282  1.2902
  145SAPE   O3115934   5.096   0.323  10.340  0.0114 -0.0074  0.7276
  145SAPE   C3115935   5.000   0.336  10.253  0.0646  0.6505 -0.1091
  145SAPE   O3215936   4.918   0.247  10.225  0.1687 -0.0572 -0.4505
  145SAPE   C3215937   4.992   0.477  10.201  0.8726  0.0256 -0.1298
  145SAPE   H2X15938   5.094   0.511  10.174  0.4330  1.6100  0.0884
  145SAPE   H2Y15939   4.973   0.540  10.290  1.0399  2.6805 -1.8568
  145SAPE   C2315940   5.224  -0.226  10.615 -0.0947 -0.0479  1.0333
  145SAPE   H3R15941   5.295  -0.155  10.568  0.4004 -1.4330 -0.3704
  145SAPE   H3S15942   5.165  -0.261  10.528 -1.0732  1.9124  0.8505
  145SAPE   C2415943   5.307  -0.331  10.694  0.9016  0.1103 -0.1207
  145SAPE   H4R15944   5.232  -0.407  10.725 -2.3060  2.1060 -2.3721
  145SAPE   H4S15945   5.346  -0.278  10.784 -2.1451 -0.4394  1.6828
  145SAPE   C2515946   5.419  -0.394  10.628 -0.5016 -0.3731  0.6638
  145SAPE   H5R15947   5.514  -0.340  10.620  1.1881 -2.5670  3.6476
  145SAPE   C2615948   5.420  -0.511  10.564 -0.3380  0.1618  0.2740
  145SAPE   H6R15949   5.514  -0.558  10.529 -1.6905 -1.3880 -1.4924
  145SAPE   C2715950   5.301  -0.608  10.552  0.2893 -0.6515 -0.5881
  145SAPE   H7R15951   5.205  -0.554  10.534  0.6539  0.5950  0.9826
  145SAPE   H7S15952   5.282  -0.672  10.642  2.7346 -1.8358 -0.8326
  145SAPE   C2815953   5.317  -0.706  10.439 -0.8011 -0.3039  0.1878
  145SAPE   H8R15954   5.359  -0.798  10.481  1.3404  0.7281  0.4693
  145SAPE   C2915955   5.310  -0.689  10.304  0.6591  0.6165  0.1939
  145SAPE   H9R15956   5.327  -0.778  10.241 -2.1724  1.0622 -1.3329
  145SAPE  C21015957   5.287  -0.560  10.232 -0.4694 -0.0741 -0.5780
  145SAPE  H10R15958   5.268  -0.478  10.304 -1.1227 -0.4604 -0.2959
  145SAPE  H10S15959   5.202  -0.568  10.160  2.0124 -1.4545 -3.5914
  145SAPE  C21115960   5.414  -0.519  10.152  0.0260 -0.2174 -0.8123
  145SAPE  H11R15961   5.511  -0.522  10.203 -0.6734  0.7938  0.6120
  145SAPE  C21215962   5.412  -0.499  10.012  0.2486 -0.1305 -0.0586
  145SAPE  H12R15963   5.505  -0.469   9.961  1.4815 -2.0967  0.9260
  145SAPE  C21315964   5.289  -0.501   9.917  0.2587 -0.9230 -0.5276
  145SAPE  H13R15965   5.191  -0.515   9.968 -1.1233 -0.2185 -2.8385
  145SAPE  H13S15966   5.304  -0.587   9.848  1.0328 -1.5627  0.4168
  145SAPE  C21415967   5.268  -0.370   9.833 -0.7093  0.8615 -0.7121
  145SAPE  H14R15968   5.272  -0.274   9.886 -0.2415  1.3801 -1.6673
  145SAPE  C21515969   5.245  -0.363   9.698 -0.2682 -0.5946 -0.2581
  145SAPE  H15R15970   5.236  -0.259   9.662  0.2729 -0.7033 -0.7114
  145SAPE  C21615971   5.237  -0.467   9.592  0.1093  0.0495 -0.6958
  145SAPE  H16R15972   5.271  -0.568   9.624  0.8292  0.1533 -1.1125
  145SAPE  H16S15973   5.302  -0.436   9.507  0.2714 -0.5687 -0.8009
  145SAPE  C21715974   5.084  -0.474   9.550  0.3560 -0.0736 -0.7099
  145SAPE  H17R15975   5.032  -0.529   9.631  0.6793 -0.9801 -1.1024
  145SAPE  H17S15976   5.077  -0.527   9.452  0.2400  2.2599 -2.0437
  145SAPE  C21815977   5.011  -0.347   9.504 -0.2221  0.9390 -0.3154
  145SAPE  H18R15978   5.060  -0.315   9.409  0.2309 -2.0796 -1.1921
  145SAPE  H18S15979   5.029  -0.263   9.574 -0.0323  0.8323 -0.2346
  145SAPE  C21915980   4.864  -0.371   9.481  0.4106 -0.3355 -0.4731
  145SAPE  H19R15981   4.827  -0.398   9.582 -0.6149 -0.6321 -0.9072
  145SAPE  H19S15982   4.850  -0.456   9.411 -0.9416  0.0655 -0.7226
  145SAPE  C22015983   4.783  -0.249   9.443  0.6468  0.5014 -0.0592
  145SAPE  H20R15984   4.676  -0.279   9.435 -0.1221  2.4114  1.8962
  145SAPE  H20S15985   4.815  -0.200   9.349  2.1064 -0.9756 -0.3723
  145SAPE  H20T15986   4.775  -0.173   9.525  0.7679 -0.0333  0.4581
  145SAPE   C3315987   4.891   0.503  10.082 -0.2886 -0.1172 -0.1735
  145SAPE   H3X15988   4.851   0.605  10.102  3.1152  2.3184 -4.1164
  145SAPE   H3Y15989   4.808   0.429  10.089 -2.0214  1.6381 -1.1671
  145SAPE   C3415990   4.966   0.506   9.945  0.5216 -0.2560 -0.0432
  145SAPE   H4X15991   4.996   0.401   9.923  0.2696 -0.2197 -0.5665
  145SAPE   H4Y15992   5.057   0.568   9.957  0.6934 -0.9188  3.0332
  145SAPE   C3515993   4.874   0.568   9.832 -0.5680 -0.3766 -0.5457
  145SAPE   H5X15994   4.834   0.667   9.861  0.6581 -0.2150  0.7346
  145SAPE   H5Y15995   4.792   0.495   9.820 -1.2910  0.6378 -2.1626
  145SAPE   C3615996   4.953   0.576   9.699 -0.6934  0.2154  0.1482
  145SAPE   H6X15997   5.003   0.479   9.682  0.9623  0.7998  1.3960
  145SAPE   H6Y15998   5.035   0.650   9.712 -1.7560  1.3414  0.7149
  145SAPE   C3715999   4.869   0.605   9.574  0.2685  0.2578 -0.2715
  145SAPE   H7X16000   4.808   0.697   9.567 -0.7919 -0.5446 -2.6752
  145SAPE   H7Y16001   4.795   0.525   9.551  1.8511 -0.7513 -2.2443
  145SAPE   C3816002   4.949   0.608   9.447 -0.8084  0.6580 -0.1399
  145SAPE   H8X16003   5.011   0.515   9.441 -0.0019  1.1245  0.7154
  145SAPE   H8Y16004   5.017   0.696   9.447  2.0742 -1.2876 -3.4058
  145SAPE   C3916005   4.859   0.619   9.318  0.3298 -0.2492 -0.2311
  145SAPE   H9X16006   4.800   0.712   9.327 -0.9704 -1.0610  0.0048
  145SAPE   H9Y16007   4.784   0.538   9.329  1.0667 -0.8951  0.1377
  145SAPE  C31016008   4.930   0.625   9.182  0.4085 -0.4599  0.3231
  145SAPE  H10X16009   4.995   0.536   9.175 -0.0281 -0.9321  1.7370
  145SAPE  H10Y16010   4.996   0.715   9.183 -0.7902  0.4746  1.8191
  145SAPE  C31116011   4.839   0.651   9.060 -0.6131  0.8495 -0.4818
  145SAPE  H11X16012   4.797   0.754   9.063  0.6568  1.4745 -2.4229
  145SAPE  H11Y16013   4.747   0.589   9.059  0.0754 -0.2182 -2.2112
  145SAPE  C31216014   4.919   0.648   8.929 -0.0725 -0.1753 -0.7174
  145SAPE  H12X16015   4.963   0.547   8.912  0.8229  0.1466 -0.3601
  145SAPE  H12Y16016   5.010   0.712   8.935 -0.5393  0.3699  3.0195
  145SAPE  C31316017   4.841   0.693   8.804 -0.1389 -0.3425  0.1734
  145SAPE  H13X16018   4.811   0.799   8.821 -3.8827 -1.5027  1.7379
  145SAPE  H13Y16019   4.747   0.634   8.805  0.4093 -1.2204  0.5506
  145SAPE  C31416020   4.917   0.673   8.671  0.0345 -0.4009 -1.1605
  145SAPE  H14X16021   4.950   0.568   8.653  1.7522 -0.3670  1.3017
  145SAPE  H14Y16022   5.011   0.732   8.669  0.8038 -1.5326 -0.0735
  145SAPE  C31516023   4.825   0.710   8.555 -0.7761 -0.4795  0.0952
  145SAPE  H15X16024   4.791   0.816   8.563 -1.2973 -0.6895  0.6867
  145SAPE  H15Y16025   4.734   0.646   8.560 -1.1304 -0.1902 -1.8483
  145SAPE  C31616026   4.893   0.698   8.421  0.1076 -0.3060  0.0432
  145SAPE  H16X16027   4.928   0.593   8.417  0.8356 -0.1327  1.4610
  145SAPE  H16Y16028   4.977   0.767   8.397 -0.1474 -0.3385 -1.0324
  145SAPE  C31716029   4.793   0.700   8.304 -0.2486 -0.9213  0.2058
  145SAPE  H17X16030   4.736   0.796   8.305 -1.1535 -1.4347  1.4063
  145SAPE  H17Y16031   4.716   0.620   8.318 -1.4730  0.1660 -0.0974
  145SAPE  C31816032   4.857   0.684   8.170 -0.2406 -0.5570 -0.3220
  145SAPE  H18X16033   4.787   0.679   8.084 -0.7466 -1.3542  0.1327
  145SAPE  H18Y16034   4.898   0.582   8.159  1.2706  0.2630 -3.2891
  145SAPE  H18Z16035   4.942   0.754   8.155 -1.4544  0.8897 -0.7438
  146SAPE     N16036   2.903   2.501  11.049 -0.3903 -0.7402 -0.5694
  146SAPE   HN116037   2.815   2.468  11.004 -0.3354  0.4762 -1.6338
  146SAPE   HN216038   2.864   2.553  11.130  0.3592 -2.4661  0.9619
  146SAPE   HN316039   2.957   2.569  10.992 -1.6028  0.7303 -0.0342
  146SAPE   C1216040   2.986   2.374  11.088  0.0085  0.0396  0.1941
  146SAPE  H12A16041   2.998   2.320  10.991 -0.3658 -0.3057  0.3392
  146SAPE  H12B16042   2.920   2.306  11.147 -1.5721 -0.5465 -2.1317
  146SAPE   C1116043   3.123   2.404  11.141 -0.4305 -0.6031 -0.1203
  146SAPE  H11A16044   3.171   2.309  11.173  0.1582 -0.0194  0.7928
  146SAPE  H11B16045   3.119   2.470  11.231  0.0859  0.1754 -0.6574
  146SAPE     P16046   3.285   2.598  11.054  0.4849 -0.0111  0.0394
  146SAPE   O1316047   3.221   2.688  11.154 -0.1262 -0.1363  0.7760
  146SAPE   O1416048   3.414   2.551  11.095 -0.7404 -0.6562 -0.1245
  146SAPE   O1216049   3.194   2.472  11.036 -0.3032  0.1610  0.4540
  146SAPE   O1116050   3.286   2.673  10.915  0.7422 -0.2848  0.6709
  146SAPE    C116051   3.279   2.601  10.787 -0.4987 -0.2118  0.0714
  146SAPE    HA16052   3.186   2.542  10.772 -1.2186  0.2298  2.4526
  146SAPE    HB16053   3.284   2.680  10.709  1.2151  2.4213  2.6178
  146SAPE    C216054   3.396   2.502  10.753 -0.2476  0.1088  0.3638
  146SAPE    HS16055   3.403   2.427  10.834  2.2860 -0.1009  0.0274
  146SAPE   O2116056   3.526   2.576  10.737  0.2133  0.2737  0.5420
  146SAPE   C2116057   3.641   2.501  10.763  0.8571  0.1221  0.3210
  146SAPE   O2216058   3.636   2.382  10.786  0.6379  0.2928 -0.0730
  146SAPE   C2216059   3.764   2.580  10.718 -0.0174  0.0838  0.5989
  146SAPE   H2R16060   3.734   2.649  10.636 -0.3795  0.3361  0.9356
  146SAPE   H2S16061   3.781   2.648  10.804  1.2775  0.2605  0.2237
  146SAPE    C316062   3.355   2.422  10.616 -0.4340 -0.6242 -0.5979
  146SAPE    HX16063   3.264   2.364  10.643 -1.1103  0.0201 -1.4618
  146SAPE    HY16064   3.439   2.351  10.599  0.5812 -0.7178  3.6791
  146SAPE   O3116065   3.320   2.507  10.508 -0.4378 -0.5549 -0.2130
  146SAPE   C3116066   3.396   2.508  10.402  0.7485  0.4732 -0.2008
  146SAPE   O3216067   3.510   2.481  10.392  0.3369 -0.0793 -0.2101
  146SAPE   C3216068   3.321   2.582  10.291  0.3065  0.1121 -0.1152
  146SAPE   H2X16069   3.366   2.683  10.286  0.1886  0.1323 -0.9334
  146SAPE   H2Y16070   3.213   2.597  10.311  0.6898 -0.0585  2.2990
  146SAPE   C2316071   3.885   2.496  10.674 -0.4512 -0.9174  1.1298
  146SAPE   H3R16072   3.922   2.422  10.748  1.8512 -1.9820 -0.9254
  146SAPE   H3S16073   3.956   2.576  10.644 -1.6871 -0.4035 -0.5555
  146SAPE   C2416074   3.856   2.419  10.539  0.5653 -0.1455 -0.6974
  146SAPE   H4R16075   3.809   2.495  10.473 -0.1956 -2.1071 -2.5420
  146SAPE   H4S16076   3.774   2.347  10.561 -2.9022  2.8442 -2.6917
  146SAPE   C2516077   3.969   2.340  10.481 -0.0873 -0.2059  0.0970
  146SAPE   H5R16078   4.040   2.295  10.551 -1.9449 -0.4583  1.9128
  146SAPE   C2616079   3.986   2.313  10.349 -0.1015 -0.0745  0.2205
  146SAPE   H6R16080   4.067   2.242  10.328 -0.5452 -0.0935 -1.6278
  146SAPE   C2716081   3.894   2.350  10.229 -0.4312 -0.3452 -1.5244
  146SAPE   H7R16082   3.822   2.422  10.273  1.9909  0.0243  2.3396
  146SAPE   H7S16083   3.826   2.269  10.194 -1.5141  0.3794 -1.1438
  146SAPE   C2816084   3.964   2.425  10.114  0.4991 -0.5669  0.3529
  146SAPE   H8R16085   4.041   2.500  10.141  1.3201 -1.1958 -0.1686
  146SAPE   C2916086   3.933   2.409   9.985 -0.1865  0.5425  0.2632
  146SAPE   H9R16087   4.006   2.462   9.923  1.9717  0.6454  2.7516
  146SAPE  C21016088   3.826   2.321   9.929  0.4027 -0.2538  0.2410
  146SAPE  H10R16089   3.752   2.312  10.011  0.3838 -0.0744  0.2433
  146SAPE  H10S16090   3.855   2.214   9.920 -0.7116 -0.5706  0.2796
  146SAPE  C21116091   3.772   2.367   9.795  0.0004  0.4618 -0.7057
  146SAPE  H11R16092   3.734   2.470   9.791 -2.5906 -0.4816 -2.1968
  146SAPE  C21216093   3.777   2.289   9.687  0.4821  0.8185  0.0583
  146SAPE  H12R16094   3.733   2.322   9.592 -0.8551 -0.4821  0.1818
  146SAPE  C21316095   3.838   2.146   9.674  0.5083 -0.1228  0.2240
  146SAPE  H13R16096   3.769   2.068   9.713  1.4964 -1.6748 -1.0058
  146SAPE  H13S16097   3.921   2.129   9.745  0.7982 -1.1228 -0.3386
  146SAPE  C21416098   3.900   2.105   9.545 -0.4761  0.1719  0.4256
  146SAPE  H14R16099   4.009   2.094   9.551 -0.5381 -0.6563  0.2209
  146SAPE  C21516100   3.847   2.087   9.422 -0.0156  0.1247  0.0675
  146SAPE  H15R16101   3.907   2.061   9.333 -0.8093  0.3760 -0.5533
  146SAPE  C21616102   3.704   2.116   9.375 -0.0569  0.0278 -0.2077
  146SAPE  H16R16103   3.641   2.152   9.459 -0.9429 -1.0983 -0.3664
  146SAPE  H16S16104   3.663   2.017   9.345  0.9432 -1.4105  2.8095
  146SAPE  C21716105   3.697   2.211   9.255 -0.5031 -0.1262  0.5597
  146SAPE  H17R16106   3.765   2.182   9.172 -0.6356 -0.1865  0.4739
  146SAPE  H17S16107   3.736   2.313   9.276  0.3782  0.0337 -1.6049
  146SAPE  C21816108   3.553   2.228   9.199  0.3158 -0.1231 -0.4302
  146SAPE  H18R16109   3.495   2.290   9.271 -1.5738  0.3788 -2.3096
  146SAPE  H18S16110   3.501   2.131   9.185 -2.9959  1.2702  1.1112
  146SAPE  C21916111   3.552   2.306   9.068  0.3378 -0.7394 -0.2341
  146SAPE  H19R16112   3.601   2.236   8.997  3.9534 -0.3253  1.5834
  146SAPE  H19S16113   3.615   2.396   9.081 -0.5157  0.0393 -1.2754
  146SAPE  C22016114   3.413   2.342   9.019 -0.7758  0.1513 -0.2206
  146SAPE  H20R16115   3.423   2.387   8.918 -1.3246 -0.6868 -0.6593
  146SAPE  H20S16116   3.357   2.415   9.081 -0.1335  2.0849 -1.8219
  146SAPE  H20T16117   3.354   2.249   9.004 -0.2655 -0.0924 -0.7227
  146SAPE   C3316118   3.345   2.527  10.148 -0.1088  0.2595  0.1675
  146SAPE   H3X16119   3.280   2.440  10.126 -0.7484 -0.2288  3.4793
  146SAPE   H3Y16120   3.449   2.488  10.140  0.3732  1.3400  0.9596
  146SAPE   C3416121   3.341   2.623  10.030  0.0448 -0.2680 -0.4568
  146SAPE   H4X16122   3.379   2.573   9.938 -0.2733 -0.2195 -0.6129
  146SAPE   H4Y16123   3.412   2.707  10.047 -1.6761  1.2301 -0.3537
  146SAPE   C3516124   3.198   2.679  10.006  0.3738  0.0207 -0.0149
  146SAPE   H5X16125   3.167   2.754  10.082 -0.3488  1.1670 -1.3779
  146SAPE   H5Y16126   3.134   2.588  10.011  2.0598 -1.3548 -1.8638
  146SAPE   C3616127   3.182   2.745   9.866 -0.4604  0.5305  0.1410
  146SAPE   H6X16128   3.160   2.669   9.788 -0.4942  0.6442  0.0405
  146SAPE   H6Y16129   3.273   2.800   9.834 -1.3109  0.3649 -2.7508
  146SAPE   C3716130   3.052   2.834   9.857 -0.4207 -0.2180  0.2444
  146SAPE   H7X16131   3.073   2.933   9.904 -1.7760 -0.5618  1.6762
  146SAPE   H7Y16132   2.969   2.786   9.915 -0.0130  0.0405  1.0524
  146SAPE   C3816133   2.993   2.853   9.721 -0.7351  0.0704 -0.1445
  146SAPE   H8X16134   2.908   2.924   9.727 -0.6998  0.0101  3.8430
  146SAPE   H8Y16135   2.962   2.754   9.680 -1.6529  0.1878  0.2318
  146SAPE   C3916136   3.095   2.907   9.615 -0.1174  0.0713 -0.3182
  146SAPE   H9X16137   3.161   2.823   9.584 -0.6153 -2.0852  3.7928
  146SAPE   H9Y16138   3.154   2.982   9.671 -0.0519 -0.0769 -0.1847
  146SAPE  C31016139   3.033   2.965   9.491  0.0271  0.0603  0.5453
  146SAPE  H10X16140   2.975   3.058   9.509 -2.3713 -1.0381 -0.9764
  146SAPE  H10Y16141   2.960   2.895   9.445  0.0741  1.3584 -1.6419
  146SAPE  C31116142   3.143   2.997   9.381 -0.2801 -0.0953  0.7490
  146SAPE  H11X16143   3.196   2.904   9.349  3.0239  1.3564  1.5375
  146SAPE  H11Y16144   3.228   3.054   9.423  0.4348 -0.0490 -0.6828
  146SAPE  C31216145   3.097   3.089   9.270 -0.4374  0.1308 -0.3474
  146SAPE  H12X16146   3.073   3.190   9.312  1.5906  1.1355 -1.4385
  146SAPE  H12Y16147   3.014   3.044   9.211  2.8480 -3.4977 -2.5930
  146SAPE  C31316148   3.197   3.108   9.161 -0.3617  0.0743  0.2807
  146SAPE  H13X16149   3.191   3.024   9.089  2.5726  1.1646 -1.4457
  146SAPE  H13Y16150   3.303   3.113   9.195 -0.2538  2.3540 -0.2225
  146SAPE  C31416151   3.179   3.232   9.072  0.0598  0.3592 -0.6052
  146SAPE  H14X16152   3.182   3.322   9.136  3.0165 -0.4805  0.5910
  146SAPE  H14Y16153   3.076   3.227   9.029 -1.4410 -0.3657  2.7361
  146SAPE  C31516154   3.275   3.242   8.963 -0.7514 -0.3874 -0.0501
  146SAPE  H15X16155   3.287   3.146   8.908 -1.3060 -0.4326 -0.0997
  146SAPE  H15Y16156   3.375   3.260   9.009 -0.7290  0.4908 -0.4245
  146SAPE  C31616157   3.244   3.362   8.865  0.0580  0.0979  0.7658
  146SAPE  H16X16158   3.242   3.458   8.921  0.6146  0.2561  0.5197
  146SAPE  H16Y16159   3.149   3.346   8.810 -0.0358 -1.3488  1.3146
  146SAPE  C31716160   3.359   3.374   8.770 -0.6518 -0.1218 -0.3712
  146SAPE  H17X16161   3.370   3.293   8.694  0.0863 -0.0031 -0.3998
  146SAPE  H17Y16162   3.451   3.381   8.833 -0.7977  0.0401 -0.1770
  146SAPE  C31816163   3.356   3.492   8.683 -0.0992  0.0073  0.0564
  146SAPE  H18X16164   3.283   3.473   8.602 -0.1511  0.3176  0.0282
  146SAPE  H18Y16165   3.453   3.501   8.629  0.1525 -0.8293  0.3651
  146SAPE  H18Z16166   3.343   3.589   8.735 -0.1049 -0.8330  1.6841
  147SAPE     N16167   4.108   5.802  11.207 -0.6663  0.2646  0.2601
  147SAPE   HN116168   4.098   5.905  11.198 -1.0808  0.2481  0.5139
  147SAPE   HN216169   4.070   5.758  11.293  0.4796 -3.2700 -0.8210
  147SAPE   HN316170   4.205   5.765  11.195 -0.2794  0.4456  2.4443
  147SAPE   C1216171   4.013   5.762  11.102 -0.7391 -0.1855  0.0993
  147SAPE  H12A16172   3.975   5.665  11.142 -0.3102 -0.4909 -0.2315
  147SAPE  H12B16173   4.061   5.739  11.005 -2.2623  1.4417 -1.0856
  147SAPE   C1116174   3.894   5.858  11.107 -0.2817 -0.1063 -0.0942
  147SAPE  H11A16175   3.830   5.849  11.197 -0.5655 -2.1464 -0.4686
  147SAPE  H11B16176   3.828   5.848  11.018 -0.0095 -3.2174 -0.0315
  147SAPE     P16177   3.897   6.138  11.076  0.0020  0.2334 -0.0876
  147SAPE   O1316178   3.775   6.158  11.158 -0.0434 -0.0303  0.1805
  147SAPE   O1416179   4.000   6.238  11.091  0.4137 -0.3349  0.0791
  147SAPE   O1216180   3.957   5.992  11.107  0.3241 -0.6363  0.0148
  147SAPE   O1116181   3.852   6.120  10.921 -0.6356 -0.5239 -0.1471
  147SAPE    C116182   3.942   6.069  10.831  0.8358  0.4933  0.2023
  147SAPE    HA16183   4.030   6.137  10.840  0.8490  0.3075  1.8743
  147SAPE    HB16184   3.970   5.967  10.865 -1.8946 -1.3731 -2.6509
  147SAPE    C216185   3.880   6.054  10.693 -0.3738 -0.3321  0.0977
  147SAPE    HS16186   3.957   6.016  10.622 -0.9659 -0.2021 -0.6234
  147SAPE   O2116187   3.835   6.179  10.648 -0.3540 -0.9417  0.2940
  147SAPE   C2116188   3.931   6.261  10.612 -0.7641 -0.1624 -0.0823
  147SAPE   O2216189   4.048   6.222  10.613  0.0756  0.2307  0.1041
  147SAPE   C2216190   3.887   6.397  10.565 -0.1983  0.3970 -0.0049
  147SAPE   H2R16191   3.779   6.401  10.588 -0.2753 -0.9453 -0.0590
  147SAPE   H2S16192   3.942   6.475  10.621 -0.4936 -1.1209  2.5270
  147SAPE    C316193   3.757   5.960  10.697 -0.3051 -0.0146 -0.3203
  147SAPE    HX16194   3.672   6.026  10.723  0.2229  1.6396 -2.5474
  147SAPE    HY16195   3.772   5.895  10.787  0.2051 -1.6061 -1.5074
  147SAPE   O3116196   3.742   5.883  10.577 -0.6107 -1.1215  0.1861
  147SAPE   C3116197   3.627   5.823  10.558 -0.2284 -0.5366 -0.1524
  147SAPE   O3216198   3.520   5.857  10.606  0.1422  0.6970  0.2331
  147SAPE   C3216199   3.642   5.698  10.466 -0.4395  0.0379 -1.0378
  147SAPE   H2X16200   3.547   5.641  10.474 -0.6919  0.4879 -0.8253
  147SAPE   H2Y16201   3.722   5.629  10.503 -2.2138 -1.2547  0.5837
  147SAPE   C2316202   3.910   6.431  10.407 -0.1941  1.5919  0.0647
  147SAPE   H3R16203   3.862   6.347  10.352  2.1322 -0.0483  0.3777
  147SAPE   H3S16204   4.018   6.416  10.382  0.3037  0.5399  2.5359
  147SAPE   C2416205   3.848   6.560  10.363  0.2943  0.1795  0.1150
  147SAPE   H4R16206   3.875   6.634  10.442  1.4135 -1.8858  1.7755
  147SAPE   H4S16207   3.738   6.548  10.367  0.0193  0.7125 -3.4093
  147SAPE   C2516208   3.885   6.600  10.220  0.8161 -0.1526 -0.1406
  147SAPE   H5R16209   3.879   6.511  10.155  1.4127 -1.5455  1.6341
  147SAPE   C2616210   3.907   6.720  10.175 -0.6421 -1.1339  0.4390
  147SAPE   H6R16211   3.949   6.732  10.074 -1.4202  2.0098  0.3615
  147SAPE   C2716212   3.889   6.848  10.251 -0.1417  0.7543  0.6941
  147SAPE   H7R16213   3.987   6.897  10.264  0.3869  0.3426 -1.3120
  147SAPE   H7S16214   3.863   6.820  10.355 -1.0638  0.0583  0.2972
  147SAPE   C2816215   3.776   6.934  10.198 -0.7195 -0.4735  0.3819
  147SAPE   H8R16216   3.694   6.873  10.156  0.8214 -2.6574  0.4093
  147SAPE   C2916217   3.780   7.069  10.177  0.2353 -0.2965 -1.0296
  147SAPE   H9R16218   3.693   7.121  10.133 -0.1547  1.5722  1.7045
  147SAPE  C21016219   3.891   7.167  10.211  1.1882 -0.6155 -0.0239
  147SAPE  H10R16220   3.925   7.211  10.115  0.2090 -0.2169 -0.1918
  147SAPE  H10S16221   3.973   7.103  10.252  0.1329 -1.7067  0.4401
  147SAPE  C21116222   3.853   7.282  10.304  0.1606  0.3527 -0.5511
  147SAPE  H11R16223   3.801   7.251  10.396  1.5347 -0.3806  0.0142
  147SAPE  C21216224   3.869   7.413  10.295  0.0817  0.2377  0.8131
  147SAPE  H12R16225   3.814   7.479  10.363 -0.3471  0.2268  0.4802
  147SAPE  C21316226   3.932   7.479  10.180  0.4958  0.2417  0.7999
  147SAPE  H13R16227   3.898   7.585  10.178 -0.9057 -0.2021  0.5033
  147SAPE  H13S16228   3.884   7.439  10.089 -0.5791  2.5962  0.2587
  147SAPE  C21416229   4.083   7.462  10.168  0.0061  0.1980  0.5141
  147SAPE  H14R16230   4.132   7.412  10.252 -1.4074 -1.0059  0.6675
  147SAPE  C21516231   4.151   7.513  10.070 -0.8481 -0.7847 -0.5618
  147SAPE  H15R16232   4.260   7.499  10.069 -0.7733 -0.7202  1.8458
  147SAPE  C21616233   4.096   7.586   9.952 -0.3393 -0.1661  0.0246
  147SAPE  H16R16234   4.156   7.675   9.925  1.0518 -1.2758 -0.6725
  147SAPE  H16S16235   3.987   7.609   9.960  0.0178  1.1392  1.5400
  147SAPE  C21716236   4.102   7.503   9.826  0.4340  0.2789 -0.1566
  147SAPE  H17R16237   4.046   7.410   9.847  1.0315  0.0967  0.6794
  147SAPE  H17S16238   4.206   7.479   9.793  1.0110 -1.7899  2.7661
  147SAPE  C21816239   4.030   7.575   9.708 -0.2600 -0.6056 -0.2366
  147SAPE  H18R16240   4.086   7.670   9.693  1.2162 -1.5043 -0.6191
  147SAPE  H18S16241   3.925   7.602   9.734 -0.1228 -1.1288  0.9127
  147SAPE  C21916242   4.049   7.491   9.584 -0.2725  1.0645  0.6067
  147SAPE  H19R16243   4.146   7.438   9.586 -1.5537 -1.4495  0.5481
  147SAPE  H19S16244   4.052   7.561   9.498  1.7397  1.7526  1.1936
  147SAPE  C22016245   3.936   7.391   9.576  0.3702 -0.6270 -0.1107
  147SAPE  H20R16246   3.945   7.322   9.490  2.3611  0.0082 -0.4672
  147SAPE  H20S16247   3.837   7.441   9.579  0.7970  0.2412 -0.0466
  147SAPE  H20T16248   3.927   7.318   9.659 -0.2484 -0.6848 -0.2237
  147SAPE   C3316249   3.673   5.722  10.325  0.0705  0.6632  0.1997
  147SAPE   H3X16250   3.594   5.792  10.292 -0.9198 -0.3885  0.2803
  147SAPE   H3Y16251   3.649   5.628  10.271  1.1863  1.2209 -1.3517
  147SAPE   C3416252   3.813   5.765  10.289 -0.0366 -1.0032  0.3152
  147SAPE   H4X16253   3.896   5.728  10.353  0.0836 -0.7174  0.3271
  147SAPE   H4Y16254   3.813   5.876  10.291  0.9781 -0.9620 -0.5360
  147SAPE   C3516255   3.834   5.733  10.139 -0.7618 -1.0177 -0.3430
  147SAPE   H5X16256   3.749   5.771  10.079 -0.3928  0.8089  0.2427
  147SAPE   H5Y16257   3.837   5.622  10.133  0.1642 -0.9821 -0.7382
  147SAPE   C3616258   3.962   5.779  10.070  0.3335 -0.4102  0.6496
  147SAPE   H6X16259   4.043   5.725  10.124  0.4829  0.5244  1.3831
  147SAPE   H6Y16260   3.977   5.889  10.068  0.6761 -0.4582  0.5447
  147SAPE   C3716261   3.955   5.736   9.923 -0.3019 -0.3570 -0.0024
  147SAPE   H7X16262   3.866   5.788   9.881  1.5855  2.2821 -1.0120
  147SAPE   H7Y16263   3.945   5.626   9.917 -0.2569 -0.4407  1.2975
  147SAPE   C3816264   4.068   5.799   9.840 -0.4881 -0.2790  0.3322
  147SAPE   H8X16265   4.166   5.782   9.889 -0.0445 -0.2561 -0.5220
  147SAPE   H8Y16266   4.051   5.904   9.809  0.1775 -0.7908 -1.9995
  147SAPE   C3916267   4.066   5.733   9.697  0.0595  0.6424  0.1053
  147SAPE   H9X16268   3.969   5.694   9.661  0.3279 -1.3003  1.3722
  147SAPE   H9Y16269   4.128   5.642   9.711 -0.2608  0.6256  1.5374
  147SAPE  C31016270   4.151   5.811   9.591 -0.3013  0.2374 -0.6531
  147SAPE  H10X16271   4.258   5.819   9.619 -0.0336 -0.3520 -1.4416
  147SAPE  H10Y16272   4.104   5.911   9.597 -1.2963 -0.3056  1.4612
  147SAPE  C31116273   4.152   5.751   9.445  0.3101 -0.5723  0.1126
  147SAPE  H11X16274   4.157   5.641   9.457 -1.4271 -0.7341 -0.3938
  147SAPE  H11Y16275   4.223   5.809   9.382  1.9335  2.1153  4.0118
  147SAPE  C31216276   4.013   5.776   9.378 -0.4735  0.2189 -0.5979
  147SAPE  H12X16277   4.000   5.885   9.361 -0.1366  0.4607  0.6583
  147SAPE  H12Y16278   3.936   5.738   9.448 -1.1097 -0.2418 -1.5233
  147SAPE  C31316279   4.008   5.705   9.234  0.1920 -0.0227 -0.1121
  147SAPE  H13X16280   3.904   5.722   9.199 -0.3207 -0.5553  1.0985
  147SAPE  H13Y16281   4.038   5.599   9.252  2.2909  0.8578  2.0580
  147SAPE  C31416282   4.093   5.776   9.130 -0.5379  0.6850 -0.0655
  147SAPE  H14X16283   4.201   5.779   9.159 -0.2110 -1.8788 -0.7250
  147SAPE  H14Y16284   4.061   5.879   9.107  2.7380  2.1880  1.4883
  147SAPE  C31516285   4.086   5.708   8.997  0.3388  0.7465  1.0379
  147SAPE  H15X16286   4.121   5.603   8.993 -1.4873  0.1133  0.5698
  147SAPE  H15Y16287   4.153   5.765   8.930 -2.5749  3.0345 -0.1824
  147SAPE  C31616288   3.947   5.710   8.924 -0.2446  0.3630 -0.1193
  147SAPE  H16X16289   3.886   5.802   8.938  2.1063  2.6025 -3.1678
  147SAPE  H16Y16290   3.880   5.631   8.966 -0.6667  0.0298 -1.3507
  147SAPE  C31716291   3.947   5.704   8.770 -0.7671  0.7003 -0.0628
  147SAPE  H17X16292   3.852   5.665   8.728 -1.2832  0.2338  1.4820
  147SAPE  H17Y16293   4.032   5.640   8.741 -1.4936  0.1090 -0.9235
  147SAPE  C31816294   3.974   5.836   8.710 -0.1557 -0.1834  0.6530
  147SAPE  H18X16295   3.994   5.827   8.601 -0.1044 -0.1952  0.6643
  147SAPE  H18Y16296   4.062   5.888   8.754  0.9465  0.2568 -1.8915
  147SAPE  H18Z16297   3.882   5.897   8.724  0.5246  0.7394  1.1992
  148SAPE     N16298   6.029   0.732  10.999 -0.1235 -0.4757  0.1620
  148SAPE   HN116299   6.086   0.787  10.932 -0.6028 -0.8171 -0.5375
  148SAPE   HN216300   6.009   0.796  11.079  1.1478 -1.3487  1.2243
  148SAPE   HN316301   6.076   0.648  11.037  0.4197  0.5212  1.7950
  148SAPE   C1216302   5.899   0.689  10.933 -0.0940  0.1184 -0.3724
  148SAPE  H12A16303   5.837   0.780  10.924  0.3160  0.5937  1.2933
  148SAPE  H12B16304   5.843   0.624  11.004  0.0203  0.2470 -0.1627
  148SAPE   C1116305   5.918   0.609  10.801  0.0966 -0.0378 -0.5297
  148SAPE  H11A16306   5.953   0.671  10.715 -0.5445  1.3991  0.2158
  148SAPE  H11B16307   5.815   0.570  10.787 -0.1205 -0.4873  1.9451
  148SAPE     P16308   6.136   0.487  10.747  0.3569 -0.0918  0.1658
  148SAPE   O1316309   6.215   0.597  10.795  0.3400 -0.1510 -0.4184
  148SAPE   O1416310   6.191   0.357  10.764 -0.2553  0.2402  0.0738
  148SAPE   O1216311   6.001   0.496  10.825 -0.2782  0.0281 -1.1761
  148SAPE   O1116312   6.120   0.517  10.599  0.0156  0.5457 -0.4645
  148SAPE    C116313   6.029   0.454  10.512  0.6325  0.0983  0.0145
  148SAPE    HA16314   5.927   0.437  10.553  0.9441  0.1178  0.8216
  148SAPE    HB16315   6.012   0.522  10.426 -3.4134  0.0415  0.5804
  148SAPE    C216316   6.084   0.317  10.454  0.2281  0.0288 -0.2393
  148SAPE    HS16317   6.195   0.327  10.458  0.4122 -1.0540 -1.6703
  148SAPE   O2116318   6.054   0.298  10.314  0.3987 -0.2574 -0.1951
  148SAPE   C2116319   5.931   0.266  10.281  0.0390 -0.6782  0.1393
  148SAPE   O2216320   5.835   0.284  10.353  0.2949  0.5720  0.2370
  148SAPE   C2216321   5.926   0.206  10.140 -0.0745 -0.2285 -0.1738
  148SAPE   H2R16322   6.025   0.219  10.093 -0.5163 -1.8757 -1.6721
  148SAPE   H2S16323   5.916   0.095  10.143 -1.1148 -0.1463 -0.1147
  148SAPE    C316324   6.034   0.196  10.535  0.0642  0.1164  0.0391
  148SAPE    HX16325   5.927   0.212  10.561  0.4884  1.7291  0.8994
  148SAPE    HY16326   6.095   0.202  10.628  0.6326  1.3698 -0.3997
  148SAPE   O3116327   6.063   0.075  10.459  0.1379  0.6174 -0.2761
  148SAPE   C3116328   6.187   0.023  10.472 -0.2794 -0.1046 -0.2134
  148SAPE   O3216329   6.278   0.080  10.531 -0.1227 -0.1411 -0.3204
  148SAPE   C3216330   6.204  -0.118  10.405  1.0383 -0.5299  0.0875
  148SAPE   H2X16331   6.165  -0.185  10.484 -1.4671  0.3395 -0.3120
  148SAPE   H2Y16332   6.310  -0.144  10.385  1.5114 -0.4933  2.3764
  148SAPE   C2316333   5.812   0.267  10.058 -0.5295  0.0869  0.1476
  148SAPE   H3R16334   5.795   0.371  10.091 -1.2129  0.4315 -1.2155
  148SAPE   H3S16335   5.718   0.210  10.075 -0.6818  0.0713 -0.6757
  148SAPE   C2416336   5.832   0.249   9.905  0.3495  0.1212  0.6382
  148SAPE   H4R16337   5.738   0.273   9.851 -0.4224 -1.2497  1.3474
  148SAPE   H4S16338   5.857   0.142   9.897  1.1390  0.3648 -0.4750
  148SAPE   C2516339   5.938   0.337   9.849 -0.7432 -0.0018  0.7712
  148SAPE   H5R16340   6.017   0.362   9.921  1.6932  0.1179 -1.7485
  148SAPE   C2616341   5.954   0.373   9.717 -0.7319  0.3220 -0.1655
  148SAPE   H6R16342   6.046   0.425   9.686  0.3827 -2.9129 -2.7707
  148SAPE   C2716343   5.864   0.329   9.606  0.5078  0.6054  0.0766
  148SAPE   H7R16344   5.758   0.349   9.635 -0.3362 -0.3954 -2.1027
  148SAPE   H7S16345   5.863   0.219   9.591 -2.1731  0.4759  0.7477
  148SAPE   C2816346   5.900   0.401   9.482 -0.7178 -0.2847  0.6113
  148SAPE   H8R16347   5.978   0.478   9.486 -0.9586  0.5726 -4.5827
  148SAPE   C2916348   5.849   0.381   9.358 -0.6296 -0.4712 -0.3673
  148SAPE   H9R16349   5.883   0.447   9.277  1.2566  0.5735  1.1580
  148SAPE  C21016350   5.752   0.277   9.326  0.4049 -0.7432  0.0303
  148SAPE  H10R16351   5.715   0.235   9.422  0.5314 -0.7528  0.0759
  148SAPE  H10S16352   5.821   0.201   9.282  1.5823  0.9315 -1.1581
  148SAPE  C21116353   5.644   0.314   9.223 -0.5675  0.5666 -0.0119
  148SAPE  H11R16354   5.541   0.282   9.246 -0.1778 -0.4018  0.4612
  148SAPE  C21216355   5.671   0.360   9.097 -0.3338 -0.1184  0.5190
  148SAPE  H12R16356   5.594   0.377   9.020 -0.9593  1.7999  1.5065
  148SAPE  C21316357   5.811   0.375   9.037 -0.0364  0.0152  0.0206
  148SAPE  H13R16358   5.888   0.315   9.090  0.2245 -0.4348 -0.8532
  148SAPE  H13S16359   5.835   0.482   9.053  0.0017  0.6120 -3.2995
  148SAPE  C21416360   5.809   0.334   8.892  0.8804  0.3868 -0.1352
  148SAPE  H14R16361   5.778   0.419   8.830 -1.5961 -1.2048 -1.2139
  148SAPE  C21516362   5.835   0.211   8.845 -0.0910  0.6628  1.1725
  148SAPE  H15R16363   5.829   0.190   8.737  0.7832 -4.1689  1.8539
  148SAPE  C21616364   5.874   0.089   8.925 -0.3196  0.3463  0.0423
  148SAPE  H16R16365   5.786   0.073   8.991  0.7577  0.8587  1.6609
  148SAPE  H16S16366   5.951   0.112   9.002  0.2267  3.4746 -1.2860
  148SAPE  C21716367   5.896  -0.040   8.845 -0.2734 -0.6820  0.5733
  148SAPE  H17R16368   5.992  -0.028   8.791 -0.2003 -3.4300 -0.0731
  148SAPE  H17S16369   5.819  -0.045   8.765 -0.6439 -1.9834  0.9921
  148SAPE  C21816370   5.909  -0.166   8.921 -0.0676  0.5438 -0.4816
  148SAPE  H18R16371   5.815  -0.182   8.979  0.2343  0.5193  0.0005
  148SAPE  H18S16372   5.989  -0.141   8.993  3.3813 -0.6247 -3.5664
  148SAPE  C21916373   5.964  -0.292   8.843  0.2533 -0.6136 -0.6128
  148SAPE  H19R16374   6.052  -0.263   8.781 -0.8009 -1.9650 -2.8754
  148SAPE  H19S16375   5.888  -0.325   8.769  0.2592 -0.0915 -0.8523
  148SAPE  C22016376   5.997  -0.401   8.941  0.7549  0.2383  1.0294
  148SAPE  H20R16377   5.906  -0.437   8.993 -0.2546 -0.6861 -1.2846
  148SAPE  H20S16378   6.065  -0.372   9.025  0.8663  0.7838  0.7558
  148SAPE  H20T16379   6.038  -0.490   8.890 -0.4009 -0.0507  0.5962
  148SAPE   C3316380   6.117  -0.128  10.276 -0.1586 -0.2802  0.2329
  148SAPE   H3X16381   6.029  -0.060  10.284  0.8789  1.1334 -0.0585
  148SAPE   H3Y16382   6.072  -0.228  10.262 -0.2131  0.0490 -2.3744
  148SAPE   C3416383   6.198  -0.092  10.148  0.7240 -0.3931 -1.1257
  148SAPE   H4X16384   6.279  -0.167  10.147 -1.5803 -3.1259  0.0472
  148SAPE   H4Y16385   6.233   0.012  10.163 -1.6775  0.2572  0.7766
  148SAPE   C3516386   6.119  -0.104  10.018  0.0445 -0.2336  0.3387
  148SAPE   H5X16387   6.017  -0.065  10.001 -0.2634 -1.0311  0.3079
  148SAPE   H5Y16388   6.116  -0.211   9.988  1.3409  0.1908 -1.5189
  148SAPE   C3616389   6.207  -0.042   9.910  0.4918  0.4542  0.2494
  148SAPE   H6X16390   6.313  -0.056   9.942  0.2219  0.3102  1.0906
  148SAPE   H6Y16391   6.200   0.069   9.915  0.5014  0.5197 -0.8047
  148SAPE   C3716392   6.182  -0.083   9.761 -0.4928 -1.0023 -0.3513
  148SAPE   H7X16393   6.157  -0.188   9.736  0.7403 -1.0883 -1.3415
  148SAPE   H7Y16394   6.275  -0.063   9.704 -0.1409  1.1695  0.8716
  148SAPE   C3816395   6.062  -0.007   9.701 -0.0638 -0.1794 -0.5215
  148SAPE   H8X16396   6.080   0.103   9.708 -0.4254 -0.2004  1.3075
  148SAPE   H8Y16397   5.979  -0.020   9.774 -1.4950  1.2121 -1.8333
  148SAPE   C3916398   6.035  -0.058   9.558  0.2904  0.4749 -0.1459
  148SAPE   H9X16399   5.928  -0.034   9.541  0.0413  0.6725  1.4950
  148SAPE   H9Y16400   6.044  -0.169   9.547  1.8553  0.4711  0.8189
  148SAPE  C31016401   6.128  -0.005   9.451  0.3034  0.0249  0.1318
  148SAPE  H10X16402   6.236  -0.026   9.467  0.3836  1.3516  1.5461
  148SAPE  H10Y16403   6.114   0.105   9.450 -1.3780 -0.1636 -1.4688
  148SAPE  C31116404   6.105  -0.059   9.309  0.1267 -0.0084 -0.4374
  148SAPE  H11X16405   5.999  -0.034   9.288  0.1311 -1.3122 -2.2955
  148SAPE  H11Y16406   6.101  -0.170   9.318  1.5871  0.0443  1.5281
  148SAPE  C31216407   6.192  -0.026   9.195 -0.0459 -0.5120  0.1775
  148SAPE  H12X16408   6.167  -0.076   9.099 -3.3201  1.1787 -0.0096
  148SAPE  H12Y16409   6.297  -0.051   9.223  0.3688 -0.5740 -1.3698
  148SAPE  C31316410   6.199   0.130   9.167  0.1403 -0.2247  0.3827
  148SAPE  H13X16411   6.268   0.177   9.240 -0.3460  2.7296 -0.8970
  148SAPE  H13Y16412   6.102   0.182   9.179  0.5112  0.1284  2.0219
  148SAPE  C31416413   6.244   0.171   9.028 -0.5162  0.1910  0.0403
  148SAPE  H14X16414   6.189   0.096   8.967 -0.8004  0.5490 -0.1401
  148SAPE  H14Y16415   6.353   0.158   9.044 -0.7038  0.1560  1.4958
  148SAPE  C31516416   6.215   0.318   8.983 -0.7886 -0.4279  0.8405
  148SAPE  H15X16417   6.291   0.376   9.039  0.2788  0.0832 -1.0639
  148SAPE  H15Y16418   6.113   0.351   9.014 -1.3346 -1.0307 -0.2683
  148SAPE  C31616419   6.233   0.333   8.830 -0.1684 -0.0610  0.4849
  148SAPE  H16X16420   6.144   0.312   8.766  1.9004 -3.0720 -1.6473
  148SAPE  H16Y16421   6.302   0.250   8.806  0.2007  0.1016  0.9755
  148SAPE  C31716422   6.292   0.469   8.785  0.3631 -0.2566  0.6897
  148SAPE  H17X16423   6.393   0.485   8.829 -0.8616  0.1491  3.6181
  148SAPE  H17Y16424   6.237   0.551   8.835 -0.0342  0.4985 -0.9349
  148SAPE  C31816425   6.305   0.499   8.636 -0.4779 -1.0438  0.6322
  148SAPE  H18X16426   6.206   0.509   8.588  0.2859 -0.4239 -0.8927
  148SAPE  H18Y16427   6.366   0.416   8.594  1.7305  0.1339  1.3164
  148SAPE  H18Z16428   6.363   0.592   8.621 -1.5779 -0.0146  2.4365
  149SAPE     N16429   2.722   3.526  11.583  0.7595  0.0063 -0.0198
  149SAPE   HN116430   2.779   3.439  11.581 -2.2442 -2.1640  0.4290
  149SAPE   HN216431   2.787   3.606  11.572 -1.4252  2.0547  1.0815
  149SAPE   HN316432   2.670   3.531  11.674  0.0916 -0.9376 -0.3328
  149SAPE   C1216433   2.632   3.526  11.469  0.4394 -0.7166  0.3940
  149SAPE  H12A16434   2.588   3.628  11.468 -3.7366 -2.3196 -1.0898
  149SAPE  H12B16435   2.543   3.465  11.497 -0.6036 -0.2144 -1.6197
  149SAPE   C1116436   2.694   3.498  11.334  0.0803  0.5558  0.0254
  149SAPE  H11A16437   2.774   3.573  11.320  0.4965  0.3991  1.4024
  149SAPE  H11B16438   2.614   3.510  11.257 -1.1033 -2.4709  0.6248
  149SAPE     P16439   2.850   3.337  11.215 -0.1125  0.2899  0.3051
  149SAPE   O1316440   2.948   3.446  11.230 -0.1353  0.0926  0.0592
  149SAPE   O1416441   2.894   3.190  11.212 -0.6347 -0.7338  0.0836
  149SAPE   O1216442   2.736   3.362  11.323  0.0531  0.2217 -0.2875
  149SAPE   O1116443   2.762   3.367  11.083  0.2538 -0.1699  0.4024
  149SAPE    C116444   2.642   3.299  11.061 -0.5218 -0.3911  0.2313
  149SAPE    HA16445   2.616   3.217  11.131 -3.1970 -0.5690 -0.8527
  149SAPE    HB16446   2.559   3.374  11.059  0.2573  0.5739  1.6804
  149SAPE    C216447   2.649   3.223  10.929 -0.1358 -0.0128 -0.6279
  149SAPE    HS16448   2.720   3.138  10.933 -0.2548 -0.0570  1.3587
  149SAPE   O2116449   2.679   3.315  10.824  0.0424 -0.5824  0.0909
  149SAPE   C2116450   2.805   3.329  10.786  0.3586 -0.2444 -0.3439
  149SAPE   O2216451   2.894   3.259  10.823 -0.3626 -0.5406 -0.3337
  149SAPE   C2216452   2.815   3.434  10.678 -0.0141 -0.1089  0.2948
  149SAPE   H2R16453   2.746   3.517  10.702 -0.5278 -0.3093 -0.4505
  149SAPE   H2S16454   2.912   3.486  10.666 -0.9153  1.0940 -2.5425
  149SAPE    C316455   2.515   3.149  10.903  0.3521  0.4830  1.1461
  149SAPE    HX16456   2.440   3.231  10.895 -0.9546 -0.4463  3.0750
  149SAPE    HY16457   2.494   3.090  10.995  0.7389 -0.4758  0.6264
  149SAPE   O3116458   2.516   3.055  10.785  0.0377  0.1285 -0.5747
  149SAPE   C3116459   2.508   3.106  10.666  0.0378 -0.4703  0.2515
  149SAPE   O3216460   2.468   3.217  10.638 -0.1569  0.7758  0.3782
  149SAPE   C3216461   2.560   2.991  10.573  0.2159  0.4712  0.2689
  149SAPE   H2X16462   2.472   2.923  10.565  0.5759  0.0223  0.1194
  149SAPE   H2Y16463   2.636   2.924  10.620 -1.8686 -1.2711  1.3557
  149SAPE   C2316464   2.775   3.390  10.534  0.2335  0.0668 -0.6247
  149SAPE   H3R16465   2.761   3.489  10.484 -0.0484  0.8099  0.8870
  149SAPE   H3S16466   2.679   3.335  10.536  0.8704 -1.0491  0.0395
  149SAPE   C2416467   2.891   3.324  10.464  0.3662 -0.6458  0.1752
  149SAPE   H4R16468   2.948   3.247  10.519  1.0765  0.7037  1.3903
  149SAPE   H4S16469   2.958   3.411  10.444  0.7494 -0.8402  0.6044
  149SAPE   C2516470   2.861   3.279  10.325  0.1571  0.1735 -0.0443
  149SAPE   H5R16471   2.816   3.179  10.322 -0.1011  0.2845  0.0799
  149SAPE   C2616472   2.872   3.343  10.209  0.1693 -0.1651  0.7850
  149SAPE   H6R16473   2.828   3.285  10.126 -0.8353 -0.9970  1.8714
  149SAPE   C2716474   2.919   3.485  10.182  0.1949 -0.0291  0.1699
  149SAPE   H7R16475   2.974   3.528  10.269 -0.2697 -0.0556  0.4814
  149SAPE   H7S16476   2.830   3.552  10.178  0.0694 -0.1918  0.2321
  149SAPE   C2816477   3.007   3.496  10.054 -0.6367  0.2090  0.5918
  149SAPE   H8R16478   3.116   3.511  10.066 -0.2845 -0.7422 -1.1073
  149SAPE   C2916479   2.959   3.481   9.930  0.2953 -0.1102  0.3880
  149SAPE   H9R16480   3.021   3.481   9.839  1.2040 -0.3111  0.9927
  149SAPE  C21016481   2.819   3.457   9.890  0.2191  0.4435  0.1434
  149SAPE  H10R16482   2.778   3.526   9.814  2.4199  1.2899 -0.3552
  149SAPE  H10S16483   2.752   3.460   9.979  0.5811  2.1875  0.3761
  149SAPE  C21116484   2.808   3.313   9.835  0.3784 -0.0564 -0.6787
  149SAPE  H11R16485   2.796   3.244   9.920  2.4619  0.6589  0.2655
  149SAPE  C21216486   2.829   3.269   9.715  0.0408 -0.5818  0.7939
  149SAPE  H12R16487   2.808   3.162   9.698  1.7873 -0.7677 -0.5431
  149SAPE  C21316488   2.858   3.350   9.584  0.4365  0.2931  0.0360
  149SAPE  H13R16489   2.956   3.319   9.540 -0.0548 -1.2881  0.0107
  149SAPE  H13S16490   2.874   3.458   9.605  0.2809  0.4569 -0.6551
  149SAPE  C21416491   2.752   3.323   9.480  1.2488  0.6937 -0.0209
  149SAPE  H14R16492   2.707   3.223   9.475  0.3357  1.1063 -0.1910
  149SAPE  C21516493   2.713   3.409   9.382  0.3046 -0.4238  0.1810
  149SAPE  H15R16494   2.636   3.386   9.307 -0.6498  0.7494  0.7614
  149SAPE  C21616495   2.765   3.550   9.346 -0.1647  0.1103 -0.2613
  149SAPE  H16R16496   2.824   3.595   9.428  0.3370  2.5431 -1.8645
  149SAPE  H16S16497   2.672   3.609   9.332 -0.2093 -0.1519 -1.1369
  149SAPE  C21716498   2.837   3.549   9.212  0.5596  0.6832  0.7689
  149SAPE  H17R16499   2.771   3.507   9.132  0.0719 -1.9646  2.4578
  149SAPE  H17S16500   2.928   3.486   9.216 -0.3785 -0.7655  0.3226
  149SAPE  C21816501   2.875   3.693   9.176 -0.6399 -0.2199  0.3182
  149SAPE  H18R16502   2.953   3.718   9.251 -0.1607 -0.1797 -0.1911
  149SAPE  H18S16503   2.785   3.758   9.189 -0.7715 -0.4585  0.6032
  149SAPE  C21916504   2.920   3.702   9.035 -0.3574 -0.0431  0.5865
  149SAPE  H19R16505   2.932   3.812   9.019  0.4103 -0.1613  0.3056
  149SAPE  H19S16506   2.848   3.656   8.965  2.0573 -0.9306 -1.4451
  149SAPE  C22016507   3.057   3.637   9.011 -0.0433  0.5984  0.4710
  149SAPE  H20R16508   3.091   3.646   8.906 -3.6924  0.2206 -0.8973
  149SAPE  H20S16509   3.046   3.530   9.040  0.2782 -0.4035 -2.7222
  149SAPE  H20T16510   3.138   3.680   9.074  0.4041  0.7545 -0.2033
  149SAPE   C3316511   2.618   3.044  10.439  0.0406 -0.1411  0.0989
  149SAPE   H3X16512   2.727   3.060  10.453  0.2865 -0.4260 -1.4140
  149SAPE   H3Y16513   2.583   3.146  10.412  1.7991 -0.0037 -1.8845
  149SAPE   C3416514   2.582   2.963  10.314  0.2693 -0.4863 -0.2425
  149SAPE   H4X16515   2.475   2.936  10.304  0.0919  0.1463 -0.0591
  149SAPE   H4Y16516   2.637   2.866  10.323  0.5595 -0.4366 -1.2994
  149SAPE   C3516517   2.624   3.027  10.180  0.3345 -0.4133  0.4749
  149SAPE   H5X16518   2.731   3.054  10.185  0.5260 -0.7542 -1.2375
  149SAPE   H5Y16519   2.558   3.116  10.170 -0.8045 -0.8659  2.9996
  149SAPE   C3616520   2.596   2.926  10.067 -0.4499 -0.3574  1.0390
  149SAPE   H6X16521   2.495   2.881  10.081  0.1405 -2.0970  0.0474
  149SAPE   H6Y16522   2.675   2.849  10.059 -0.2020  0.1058 -2.0195
  149SAPE   C3716523   2.610   2.984   9.928 -0.1860 -0.4636  0.2937
  149SAPE   H7X16524   2.717   3.003   9.907 -0.1277 -1.8136 -0.7562
  149SAPE   H7Y16525   2.568   3.086   9.919  0.2435 -0.4161 -1.6787
  149SAPE   C3816526   2.547   2.889   9.832  0.2034 -0.3803  0.1528
  149SAPE   H8X16527   2.440   2.882   9.862  0.2903  1.2731  0.9740
  149SAPE   H8Y16528   2.592   2.789   9.852  1.4897  0.4935  1.8571
  149SAPE   C3916529   2.591   2.916   9.687 -0.2908 -0.2842 -0.2103
  149SAPE   H9X16530   2.562   2.825   9.629 -1.2326  1.2051 -2.2323
  149SAPE   H9Y16531   2.699   2.939   9.691 -0.6789  1.5568  3.0970
  149SAPE  C31016532   2.521   3.030   9.608 -0.0090  0.8234  1.4980
  149SAPE  H10X16533   2.579   3.123   9.623  0.4742  1.5227 -3.0719
  149SAPE  H10Y16534   2.415   3.044   9.639  0.2303  0.7469  2.3586
  149SAPE  C31116535   2.524   3.013   9.454 -0.2310  0.5764 -0.2158
  149SAPE  H11X16536   2.487   2.913   9.425  1.2377  0.0859 -0.4740
  149SAPE  H11Y16537   2.625   3.025   9.409  0.9805 -3.2752  1.0811
  149SAPE  C31216538   2.434   3.111   9.385  0.4398  0.2000  0.0827
  149SAPE  H12X16539   2.476   3.212   9.404 -1.0913  1.0146 -0.7515
  149SAPE  H12Y16540   2.337   3.095   9.436  0.2543  0.3685 -0.2107
  149SAPE  C31316541   2.430   3.091   9.240  0.1392 -0.1430  0.4764
  149SAPE  H13X16542   2.371   3.000   9.219 -0.6467  0.5746 -0.5236
  149SAPE  H13Y16543   2.537   3.090   9.208  0.2650 -0.8170  0.9010
  149SAPE  C31416544   2.367   3.215   9.175 -0.0355 -0.0853  0.4618
  149SAPE  H14X16545   2.434   3.302   9.188 -0.1789  0.1576 -0.3671
  149SAPE  H14Y16546   2.266   3.235   9.215 -0.6743 -1.2196 -0.5095
  149SAPE  C31516547   2.363   3.194   9.020 -0.2445  0.4324 -0.6773
  149SAPE  H15X16548   2.295   3.106   9.012 -1.3266  0.5253  4.2657
  149SAPE  H15Y16549   2.466   3.178   8.981 -0.5284  1.3308 -1.8481
  149SAPE  C31616550   2.316   3.321   8.953 -0.5347 -0.1447 -0.0300
  149SAPE  H16X16551   2.394   3.400   8.967 -0.5185  0.0009 -0.9074
  149SAPE  H16Y16552   2.215   3.354   8.987 -0.0933  0.1202  1.0762
  149SAPE  C31716553   2.303   3.313   8.798 -0.3698  0.1369 -0.2579
  149SAPE  H17X16554   2.372   3.236   8.757 -2.0116 -0.2661 -2.4379
  149SAPE  H17Y16555   2.328   3.411   8.753 -2.7011  1.4380  1.0623
  149SAPE  C31816556   2.165   3.274   8.763 -0.0121  0.9015  0.2135
  149SAPE  H18X16557   2.153   3.166   8.784  3.6925  0.7115  2.2548
  149SAPE  H18Y16558   2.139   3.293   8.657  0.9520 -2.1277 -0.6548
  149SAPE  H18Z16559   2.086   3.333   8.813 -1.4778 -1.3150  0.6117
  150SAPE     N16560   4.081   2.373  11.206  0.3520 -0.3279 -0.0759
  150SAPE   HN116561   4.126   2.288  11.167 -1.3101  0.2552 -3.6995
  150SAPE   HN216562   4.035   2.339  11.293 -1.1637 -0.2973 -0.8211
  150SAPE   HN316563   4.008   2.411  11.143  1.2488  1.5017 -0.0760
  150SAPE   C1216564   4.179   2.478  11.247 -0.3721 -0.2041  0.0004
  150SAPE  H12A16565   4.249   2.433  11.321 -3.7878 -1.3474  2.8725
  150SAPE  H12B16566   4.123   2.560  11.297 -0.2720 -1.5773  2.5910
  150SAPE   C1116567   4.260   2.521  11.127  0.0700 -0.5454  0.0612
  150SAPE  H11A16568   4.344   2.587  11.157  0.0621 -0.0629 -0.9439
  150SAPE  H11B16569   4.202   2.589  11.061  0.8909 -1.2490 -1.4524
  150SAPE     P16570   4.444   2.372  11.016  0.1509 -0.5262 -0.2581
  150SAPE   O1316571   4.506   2.348  11.147  0.4552 -0.2979  0.2933
  150SAPE   O1416572   4.442   2.257  10.930  0.0897 -0.3028  0.0331
  150SAPE   O1216573   4.293   2.414  11.045 -0.3044  0.7696 -0.1914
  150SAPE   O1116574   4.521   2.492  10.949 -0.5763  0.0537  0.0209
  150SAPE    C116575   4.453   2.569  10.850  0.6103  0.2904  0.7918
  150SAPE    HA16576   4.357   2.611  10.890  2.5805  2.7250  3.3756
  150SAPE    HB16577   4.519   2.652  10.817 -1.4744  1.5300 -0.5338
  150SAPE    C216578   4.425   2.492  10.709 -0.5044  0.3880  0.6164
  150SAPE    HS16579   4.359   2.405  10.727 -0.4839 -0.4058 -2.6056
  150SAPE   O2116580   4.555   2.439  10.663 -0.2347  0.3555 -0.4885
  150SAPE   C2116581   4.557   2.310  10.631  0.5049  0.0375 -0.3027
  150SAPE   O2216582   4.462   2.230  10.630 -0.1148  0.1202  0.4156
  150SAPE   C2216583   4.700   2.280  10.576  0.0318  0.4897  0.1623
  150SAPE   H2R16584   4.771   2.355  10.618 -0.8167 -0.0808  2.8300
  150SAPE   H2S16585   4.735   2.180  10.611 -1.5847  0.6570  2.4856
  150SAPE    C316586   4.360   2.576  10.597  0.0884  0.3544 -0.8275
  150SAPE    HX16587   4.431   2.657  10.570 -0.8851  1.6464  0.3023
  150SAPE    HY16588   4.276   2.627  10.649 -1.1982 -2.4234 -0.0253
  150SAPE   O3116589   4.320   2.493  10.483 -0.1460  0.4574 -0.5049
  150SAPE   C3116590   4.383   2.513  10.364  0.4383  0.1425 -0.2723
  150SAPE   O3216591   4.441   2.618  10.338  0.0599 -0.3592  0.3834
  150SAPE   C3216592   4.354   2.397  10.272 -0.1498 -0.0763  0.0323
  150SAPE   H2X16593   4.257   2.347  10.294  0.8086 -1.6592  0.9285
  150SAPE   H2Y16594   4.427   2.327  10.319 -0.2201  0.5902  1.1667
  150SAPE   C2316595   4.706   2.291  10.421  0.1647 -0.2759  0.4134
  150SAPE   H3R16596   4.678   2.396  10.398 -0.6055 -0.3158  1.1048
  150SAPE   H3S16597   4.621   2.229  10.385  1.0370 -0.7219 -0.9522
  150SAPE   C2416598   4.840   2.246  10.368  0.3369  0.1275  0.1941
  150SAPE   H4R16599   4.850   2.137  10.388  1.7909  0.1700 -0.2145
  150SAPE   H4S16600   4.913   2.303  10.429  0.0603  0.5744  0.1121
  150SAPE   C2516601   4.851   2.295  10.227  0.3252  0.0133  0.3738
  150SAPE   H5R16602   4.839   2.403  10.210 -0.3748 -0.1181  0.0267
  150SAPE   C2616603   4.874   2.217  10.124 -1.3676 -0.4710  0.2181
  150SAPE   H6R16604   4.859   2.255  10.022  0.3634 -1.0899 -0.2878
  150SAPE   C2716605   4.903   2.066  10.139 -0.3226 -0.9401 -0.2524
  150SAPE   H7R16606   4.809   2.014  10.169 -0.8232 -1.1781 -2.1247
  150SAPE   H7S16607   4.973   2.040  10.221 -1.3517 -1.0049  0.6375
  150SAPE   C2816608   4.949   2.009  10.007  0.0456  0.3910 -0.2126
  150SAPE   H8R16609   4.879   1.958   9.939 -0.5157 -0.4340  0.9596
  150SAPE   C2916610   5.073   1.992   9.970  0.6394 -0.3701  0.3017
  150SAPE   H9R16611   5.089   1.965   9.865  0.5679 -0.1568  0.2343
  150SAPE  C21016612   5.188   2.051  10.050  0.1438  0.3408  0.3902
  150SAPE  H10R16613   5.191   2.021  10.157  4.0987 -1.2063  0.0005
  150SAPE  H10S16614   5.178   2.161  10.045  0.3207  0.3382 -0.2338
  150SAPE  C21116615   5.325   2.023   9.993  0.2509  0.5881  0.2173
  150SAPE  H11R16616   5.368   1.923  10.012  0.0353 -0.0385 -2.2279
  150SAPE  C21216617   5.402   2.104   9.921  0.0888  0.3264 -0.0939
  150SAPE  H12R16618   5.497   2.059   9.890 -0.5828 -1.1045 -0.1518
  150SAPE  C21316619   5.374   2.251   9.877  0.3338 -0.3271  0.9721
  150SAPE  H13R16620   5.313   2.307   9.951  0.0389 -0.5398  0.8914
  150SAPE  H13S16621   5.318   2.244   9.781  2.5159 -2.3932 -0.2647
  150SAPE  C21416622   5.507   2.327   9.851 -0.7523 -0.3523 -0.3095
  150SAPE  H14R16623   5.546   2.380   9.939 -2.8641 -0.1028  0.5419
  150SAPE  C21516624   5.571   2.341   9.733 -0.1195  0.4151 -0.3397
  150SAPE  H15R16625   5.668   2.392   9.734  0.7449 -1.1714 -0.0658
  150SAPE  C21616626   5.538   2.283   9.599  0.2828 -0.2909  0.0981
  150SAPE  H16R16627   5.462   2.202   9.601  1.7323 -1.7013  0.2551
  150SAPE  H16S16628   5.626   2.235   9.551 -1.0086 -0.3489 -2.4276
  150SAPE  C21716629   5.493   2.388   9.494  0.3087 -0.2275 -0.3129
  150SAPE  H17R16630   5.550   2.483   9.505 -1.6050  0.8520  0.9197
  150SAPE  H17S16631   5.387   2.419   9.509  0.1365 -0.7750 -0.3622
  150SAPE  C21816632   5.515   2.349   9.348  0.1933 -0.8887  0.4050
  150SAPE  H18R16633   5.619   2.318   9.327  0.3355  0.2174 -0.6179
  150SAPE  H18S16634   5.510   2.442   9.287  0.3348 -1.2198 -0.1172
  150SAPE  C21916635   5.412   2.262   9.283 -0.3684  0.3869  0.3263
  150SAPE  H19R16636   5.421   2.262   9.172 -0.3815 -3.9862  0.1230
  150SAPE  H19S16637   5.315   2.310   9.305 -0.9843 -0.5565 -0.2432
  150SAPE  C22016638   5.411   2.115   9.320 -0.1390  0.6954  0.4256
  150SAPE  H20R16639   5.407   2.056   9.226  0.9701 -1.3725  1.6093
  150SAPE  H20S16640   5.317   2.088   9.374 -1.4319  0.8714 -1.6164
  150SAPE  H20T16641   5.499   2.086   9.382  0.6885 -0.7123 -1.3336
  150SAPE   C3316642   4.382   2.436  10.124 -0.0020  0.2908 -0.1547
  150SAPE   H3X16643   4.467   2.506  10.127  0.0154  0.2584  2.9437
  150SAPE   H3Y16644   4.293   2.487  10.079  0.5091  2.0905  0.8005
  150SAPE   C3416645   4.436   2.326  10.034 -0.3700 -0.7020  0.5724
  150SAPE   H4X16646   4.365   2.241  10.031 -0.4736 -0.6028 -1.5622
  150SAPE   H4Y16647   4.530   2.289  10.079 -0.6513  1.8193  3.5501
  150SAPE   C3516648   4.476   2.381   9.901  0.1034 -0.3938 -0.0883
  150SAPE   H5X16649   4.548   2.316   9.847  1.5715 -0.3393  1.7113
  150SAPE   H5Y16650   4.527   2.479   9.917  0.7169 -0.6985 -0.1248
  150SAPE   C3616651   4.348   2.404   9.816 -0.2100 -0.7446  0.3397
  150SAPE   H6X16652   4.315   2.505   9.848 -0.8519 -0.0426 -2.2872
  150SAPE   H6Y16653   4.266   2.333   9.841 -0.8942 -1.1845 -2.7670
  150SAPE   C3716654   4.371   2.400   9.661  0.8849  0.3883 -0.3351
  150SAPE   H7X16655   4.280   2.435   9.609  1.1584 -1.3866 -2.1337
  150SAPE   H7Y16656   4.373   2.293   9.630 -0.4020  0.5329 -0.9837
  150SAPE   C3816657   4.498   2.477   9.627  0.0170 -1.3054 -0.0364
  150SAPE   H8X16658   4.582   2.440   9.690 -0.0097  0.3211  1.0310
  150SAPE   H8Y16659   4.481   2.585   9.648  1.0062 -0.8616 -1.3783
  150SAPE   C3916660   4.545   2.457   9.481  0.8533  0.1155  0.9160
  150SAPE   H9X16661   4.563   2.350   9.460 -0.3892 -0.0097  0.4209
  150SAPE   H9Y16662   4.637   2.519   9.467 -1.1606  2.9390 -1.2355
  150SAPE  C31016663   4.450   2.515   9.373  0.0424  0.2629 -0.0282
  150SAPE  H10X16664   4.441   2.623   9.396  0.2735  0.7297 -1.9690
  150SAPE  H10Y16665   4.356   2.456   9.383  1.5099 -2.0611  0.9201
  150SAPE  C31116666   4.493   2.524   9.220  0.3682 -0.2831 -0.1285
  150SAPE  H11X16667   4.582   2.590   9.206 -0.3948  1.0220  0.8709
  150SAPE  H11Y16668   4.404   2.573   9.175 -0.5352 -0.1300  1.6950
  150SAPE  C31216669   4.527   2.395   9.145 -0.6781 -0.0656 -0.6482
  150SAPE  H12X16670   4.566   2.325   9.223  1.1663 -1.4662 -2.6957
  150SAPE  H12Y16671   4.610   2.408   9.073 -0.1076  0.7506  0.1287
  150SAPE  C31316672   4.411   2.330   9.075  0.1760 -0.2138 -0.2565
  150SAPE  H13X16673   4.438   2.241   9.015 -0.0186 -0.5271  0.1121
  150SAPE  H13Y16674   4.369   2.399   8.999  0.8697  1.1415  0.5497
  150SAPE  C31416675   4.302   2.278   9.170  0.2957  0.7746 -0.5963
  150SAPE  H14X16676   4.343   2.260   9.271 -0.9442  0.2401 -0.1674
  150SAPE  H14Y16677   4.276   2.176   9.134  1.2226  0.2783  0.1072
  150SAPE  C31516678   4.177   2.366   9.190 -0.7965  0.2368 -0.4050
  150SAPE  H15X16679   4.194   2.470   9.156  1.4262  0.5058  1.3251
  150SAPE  H15Y16680   4.150   2.367   9.298 -0.9002 -0.7905 -0.4031
  150SAPE  C31616681   4.048   2.321   9.122 -0.3155 -0.2114 -0.9694
  150SAPE  H16X16682   3.967   2.394   9.144  1.1022  1.3283 -0.7163
  150SAPE  H16Y16683   4.024   2.220   9.162  0.9947 -0.0481  0.2844
  150SAPE  C31716684   4.055   2.313   8.965 -0.3488 -0.2581 -0.2054
  150SAPE  H17X16685   3.952   2.286   8.934 -1.5105  1.0785  2.1942
  150SAPE  H17Y16686   4.126   2.230   8.949  0.3708  0.6014 -1.6487
  150SAPE  C31816687   4.098   2.430   8.880 -0.2837  0.5360 -0.2259
  150SAPE  H18X16688   4.200   2.466   8.906  0.2954 -2.0840  1.4573
  150SAPE  H18Y16689   4.030   2.516   8.900 -1.2560 -0.1814 -0.4098
  150SAPE  H18Z16690   4.098   2.407   8.772 -1.4388  0.4559 -0.2209
  151SAPE     N16691   0.097   0.951  11.094 -0.7015  0.1382  0.0864
  151SAPE   HN116692   0.164   0.954  11.013  2.0451 -0.1891  2.1948
  151SAPE   HN216693   0.162   0.959  11.175 -1.0501  2.4116  0.2268
  151SAPE   HN316694   0.028   0.874  11.100 -0.7154  0.1975  0.7096
  151SAPE   C1216695   0.016   1.083  11.105 -0.2127  0.3530  0.3027
  151SAPE  H12A16696   0.051   1.138  11.195  0.0763 -0.1071  0.4765
  151SAPE  H12B16697  -0.088   1.055  11.130 -0.4780 -0.5718 -1.6638
  151SAPE   C1116698   0.024   1.164  10.970 -0.3960 -0.9454 -0.6955
  151SAPE  H11A16699  -0.040   1.255  10.979  0.4889 -0.4255  0.6904
  151SAPE  H11B16700  -0.011   1.102  10.885 -0.1441 -1.0480 -0.7244
  151SAPE     P16701   0.248   1.138  10.835 -0.4118  0.0296 -0.0547
  151SAPE   O1316702   0.371   1.218  10.813 -0.1413  0.4776 -0.0294
  151SAPE   O1416703   0.270   0.995  10.862 -0.7730 -0.6409 -0.5034
  151SAPE   O1216704   0.163   1.206  10.948  0.6120 -0.0992  1.0782
  151SAPE   O1116705   0.155   1.160  10.712  0.4481 -0.0825  0.3350
  151SAPE    C116706   0.134   1.292  10.656  0.7601  0.1348 -0.1787
  151SAPE    HA16707   0.192   1.375  10.703  3.2174 -0.5429 -1.8253
  151SAPE    HB16708   0.157   1.283  10.548  0.8303  0.3704 -0.1828
  151SAPE    C216709  -0.016   1.324  10.669 -0.7226 -0.2776  0.3650
  151SAPE    HS16710  -0.035   1.307  10.777 -3.9663  1.4353  0.1583
  151SAPE   O2116711  -0.094   1.234  10.591 -0.1317  0.0552  0.0197
  151SAPE   C2116712  -0.221   1.233  10.620  0.1759 -1.1316  0.1736
  151SAPE   O2216713  -0.276   1.268  10.722 -0.0562 -0.1490 -0.0410
  151SAPE   C2216714  -0.295   1.176  10.500 -0.5566  0.1809  0.3038
  151SAPE   H2R16715  -0.253   1.211  10.403 -0.9550 -3.0405 -1.1552
  151SAPE   H2S16716  -0.272   1.068  10.496  1.0567  0.5058 -0.1718
  151SAPE    C316717  -0.043   1.470  10.635  0.0197 -0.6327 -0.2252
  151SAPE    HX16718   0.009   1.533  10.710 -1.0694 -1.6928  1.5158
  151SAPE    HY16719  -0.149   1.493  10.657  0.6107  1.2153  0.9162
  151SAPE   O3116720   0.007   1.495  10.500 -0.1621  0.6458 -0.0125
  151SAPE   C3116721  -0.085   1.510  10.404 -0.3110 -0.4111 -0.3309
  151SAPE   O3216722  -0.203   1.537  10.424  0.3805 -0.5458 -0.4713
  151SAPE   C3216723  -0.014   1.519  10.268  0.1115  1.0635 -0.1506
  151SAPE   H2X16724   0.079   1.458  10.264 -0.6777 -0.1110 -3.3951
  151SAPE   H2Y16725   0.013   1.626  10.255 -1.6160  1.3733 -1.5590
  151SAPE   C2316726  -0.448   1.202  10.509  0.4631 -0.0831 -0.0358
  151SAPE   H3R16727  -0.485   1.300  10.547  0.2672 -0.5413  0.9870
  151SAPE   H3S16728  -0.482   1.130  10.586 -1.1805 -0.6807 -1.2817
  151SAPE   C2416729  -0.520   1.175  10.367  0.7879 -0.2946  0.0443
  151SAPE   H4R16730  -0.477   1.256  10.306  0.3351  0.7881  1.1140
  151SAPE   H4S16731  -0.630   1.186  10.383  0.5580 -0.9355 -0.9959
  151SAPE   C2516732  -0.503   1.034  10.318  0.3189 -0.7962 -1.1270
  151SAPE   H5R16733  -0.479   0.968  10.403  1.0451  1.8337  0.8330
  151SAPE   C2616734  -0.485   1.001  10.189 -0.5480  0.2429 -0.7445
  151SAPE   H6R16735  -0.480   0.893  10.171  1.2699 -0.2441  2.0293
  151SAPE   C2716736  -0.475   1.087  10.063 -0.0277  0.2793 -0.0367
  151SAPE   H7R16737  -0.372   1.070  10.023  1.0236  1.1510  2.1203
  151SAPE   H7S16738  -0.478   1.196  10.087 -1.1127 -0.2810  2.7452
  151SAPE   C2816739  -0.587   1.062   9.970  0.3933  0.5448 -0.6552
  151SAPE   H8R16740  -0.686   1.100  10.001 -1.2354 -3.1508 -0.8168
  151SAPE   C2916741  -0.574   1.008   9.853  0.7526  0.3108 -0.1152
  151SAPE   H9R16742  -0.666   0.995   9.794 -2.3553  2.7747  3.6411
  151SAPE  C21016743  -0.452   0.947   9.784 -0.3883 -1.3945 -0.3076
  151SAPE  H10R16744  -0.493   0.876   9.710  0.2123 -0.4513 -1.5850
  151SAPE  H10S16745  -0.383   0.889   9.848 -0.4290 -1.7828 -0.6126
  151SAPE  C21116746  -0.383   1.055   9.701  0.0445  0.7859  0.5635
  151SAPE  H11R16747  -0.304   1.116   9.748  2.0435  0.2157 -1.8390
  151SAPE  C21216748  -0.407   1.063   9.569  0.3493 -0.4116 -0.4058
  151SAPE  H12R16749  -0.360   1.143   9.510 -0.3270  1.2723  1.2344
  151SAPE  C21316750  -0.507   0.979   9.486 -0.6894 -0.5035 -0.2652
  151SAPE  H13R16751  -0.587   0.933   9.549 -0.6509  1.1507  1.0691
  151SAPE  H13S16752  -0.451   0.894   9.442  0.5507  0.0116  0.2784
  151SAPE  C21416753  -0.578   1.053   9.377 -0.7565 -0.5483  0.6046
  151SAPE  H14R16754  -0.685   1.071   9.392 -1.3980 -3.3949 -0.0214
  151SAPE  C21516755  -0.518   1.088   9.262  0.6863 -0.5534  0.6764
  151SAPE  H15R16756  -0.582   1.119   9.177  2.1405 -0.8211 -0.5592
  151SAPE  C21616757  -0.381   1.059   9.211  0.3873 -0.0629  0.0544
  151SAPE  H16R16758  -0.312   1.066   9.299 -0.3510 -2.0086  0.8428
  151SAPE  H16S16759  -0.337   1.137   9.146 -0.9218  0.3667 -0.3422
  151SAPE  C21716760  -0.364   0.924   9.150  0.3152  0.3840 -0.2880
  151SAPE  H17R16761  -0.409   0.925   9.049 -1.1196 -1.1523  0.2993
  151SAPE  H17S16762  -0.411   0.848   9.215  1.0820 -0.5051 -0.7582
  151SAPE  C21816763  -0.218   0.887   9.160 -0.5132 -0.1829 -0.1326
  151SAPE  H18R16764  -0.181   0.868   9.263 -0.4827 -0.1227 -0.1331
  151SAPE  H18S16765  -0.169   0.976   9.116 -2.2929  0.6501 -0.5527
  151SAPE  C21916766  -0.176   0.763   9.081 -0.3125  0.3359  1.0672
  151SAPE  H19R16767  -0.255   0.687   9.099 -0.7929  0.7233  0.6177
  151SAPE  H19S16768  -0.078   0.716   9.104 -0.9646 -1.6923 -0.0265
  151SAPE  C22016769  -0.177   0.775   8.931  0.5267 -0.0907  1.2226
  151SAPE  H20R16770  -0.157   0.678   8.880 -1.5224 -0.2379  0.5948
  151SAPE  H20S16771  -0.112   0.859   8.899  2.1244 -0.3751  3.4992
  151SAPE  H20T16772  -0.281   0.803   8.904  0.2714 -1.8146  0.2885
  151SAPE   C3316773  -0.106   1.459  10.161  0.1292  0.2834  0.0067
  151SAPE   H3X16774  -0.189   1.530  10.143  1.2492  1.7340  0.3870
  151SAPE   H3Y16775  -0.132   1.359  10.202  3.7647 -0.7494  0.1554
  151SAPE   C3416776  -0.027   1.447  10.031  0.0760  0.5908 -0.2145
  151SAPE   H4X16777   0.057   1.374  10.036  0.6289  1.0583 -1.9961
  151SAPE   H4Y16778   0.024   1.541  10.003 -0.6333  0.8039 -0.8267
  151SAPE   C3516779  -0.110   1.398   9.908 -0.2157  0.0753 -0.0638
  151SAPE   H5X16780  -0.180   1.476   9.871  0.2892  1.1371  1.1397
  151SAPE   H5Y16781  -0.164   1.306   9.938 -0.7530 -0.0483 -1.3282
  151SAPE   C3616782  -0.022   1.378   9.780  0.2324  0.9144  0.3133
  151SAPE   H6X16783   0.044   1.291   9.802  1.3496  1.2357 -1.5934
  151SAPE   H6Y16784   0.042   1.464   9.752  0.6580  0.1038 -1.3363
  151SAPE   C3716785  -0.095   1.334   9.655  0.1775  0.3130  0.4420
  151SAPE   H7X16786  -0.172   1.410   9.631  0.8275 -0.0604 -3.5552
  151SAPE   H7Y16787  -0.139   1.235   9.680  2.4382 -0.3420  2.2663
  151SAPE   C3816788  -0.006   1.321   9.531 -0.4456  0.4114 -0.4603
  151SAPE   H8X16789   0.091   1.275   9.558 -1.1055  1.3056  4.3820
  151SAPE   H8Y16790   0.031   1.415   9.483  2.3147 -0.0785  0.5044
  151SAPE   C3916791  -0.074   1.242   9.415 -0.1100  0.2656  0.1674
  151SAPE   H9X16792  -0.157   1.298   9.367 -0.0981 -1.1155 -1.5628
  151SAPE   H9Y16793  -0.103   1.150   9.468  1.4168  1.3703  3.1662
  151SAPE  C31016794   0.017   1.192   9.295 -0.2538 -0.1115 -0.8255
  151SAPE  H10X16795  -0.036   1.099   9.265  0.3438 -0.6240 -0.3312
  151SAPE  H10Y16796   0.116   1.165   9.339 -1.0545 -0.9607  0.5371
  151SAPE  C31116797   0.039   1.288   9.172 -0.1809 -0.3945  0.0503
  151SAPE  H11X16798   0.098   1.233   9.096 -3.4413  1.0010 -3.8363
  151SAPE  H11Y16799   0.098   1.376   9.207  0.7603 -0.6176 -0.9111
  151SAPE  C31216800  -0.094   1.317   9.108  0.2593 -0.1119 -0.4626
  151SAPE  H12X16801  -0.177   1.346   9.177 -0.7623 -2.1676 -0.7391
  151SAPE  H12Y16802  -0.135   1.220   9.074 -2.1678  0.0930  1.5746
  151SAPE  C31316803  -0.091   1.417   8.994  0.4986 -0.6781  0.0676
  151SAPE  H13X16804  -0.026   1.390   8.908  0.9101 -2.5029  0.9042
  151SAPE  H13Y16805  -0.056   1.513   9.037 -1.7754 -0.2174  1.0209
  151SAPE  C31416806  -0.230   1.448   8.930 -0.6948 -0.4414 -0.0563
  151SAPE  H14X16807  -0.297   1.458   9.019 -2.1976 -2.1096 -0.9312
  151SAPE  H14Y16808  -0.273   1.358   8.882 -0.9745 -1.2491  1.6115
  151SAPE  C31516809  -0.223   1.568   8.846  0.2766  0.1545 -0.3008
  151SAPE  H15X16810  -0.138   1.634   8.874 -1.6404  2.2087  1.0258
  151SAPE  H15Y16811  -0.316   1.624   8.870  0.1527 -0.9456  2.0843
  151SAPE  C31616812  -0.208   1.534   8.698  0.2728 -0.1855 -0.2787
  151SAPE  H16X16813  -0.145   1.444   8.683  0.0936  0.1506 -4.1470
  151SAPE  H16Y16814  -0.164   1.624   8.649 -0.4067  0.0862 -0.3983
  151SAPE  C31716815  -0.343   1.516   8.620 -0.0081 -0.1174 -1.1106
  151SAPE  H17X16816  -0.419   1.592   8.647  1.0629 -0.2326  2.8083
  151SAPE  H17Y16817  -0.397   1.427   8.658  0.0413  0.2604 -0.1270
  151SAPE  C31816818  -0.320   1.490   8.471  0.2740  0.1221 -0.5053
  151SAPE  H18X16819  -0.411   1.458   8.417 -2.2296  0.5303  3.1623
  151SAPE  H18Y16820  -0.258   1.398   8.472  0.0934 -0.0164 -1.2401
  151SAPE  H18Z16821  -0.264   1.566   8.412  0.3688  0.6521  0.2532
  152SAPE     N16822   1.951   0.743  10.758  0.3002 -0.0360  0.7061
  152SAPE   HN116823   1.935   0.831  10.705 -2.0371 -1.0070 -0.3053
  152SAPE   HN216824   1.858   0.698  10.767 -1.8963  4.2130  2.4454
  152SAPE   HN316825   1.992   0.770  10.850 -1.0938  1.9900  0.8026
  152SAPE   C1216826   2.044   0.669  10.669  0.5077 -0.3148  0.1394
  152SAPE  H12A16827   2.138   0.728  10.670  1.2406 -1.4533 -0.0079
  152SAPE  H12B16828   2.004   0.673  10.565  1.1006 -0.0970 -0.0843
  152SAPE   C1116829   2.077   0.527  10.723  0.2223  0.5571 -0.6292
  152SAPE  H11A16830   2.141   0.468  10.653  0.7780  0.2352  0.1429
  152SAPE  H11B16831   1.988   0.460  10.725  1.9392 -1.8561 -1.4270
  152SAPE     P16832   2.262   0.581  10.891  0.1712 -0.5427  0.1629
  152SAPE   O1316833   2.245   0.727  10.885 -0.3792  0.1606  0.4806
  152SAPE   O1416834   2.298   0.534  11.025  0.6032 -0.0688  0.2673
  152SAPE   O1216835   2.127   0.531  10.852  0.2669 -0.0141  0.0596
  152SAPE   O1116836   2.358   0.524  10.787 -0.5608  0.6653 -0.4921
  152SAPE    C116837   2.470   0.596  10.736 -0.5756 -0.2705 -0.3571
  152SAPE    HA16838   2.482   0.695  10.784 -0.1509 -0.6293  0.2920
  152SAPE    HB16839   2.564   0.544  10.767  0.1755  1.6705  0.8473
  152SAPE    C216840   2.465   0.599  10.581 -0.0593 -0.1130 -0.0821
  152SAPE    HS16841   2.376   0.658  10.549 -1.6046 -0.3307  3.3663
  152SAPE   O2116842   2.467   0.459  10.533  0.1308  0.2117 -0.3903
  152SAPE   C2116843   2.370   0.431  10.451  0.6185  0.3006 -0.4020
  152SAPE   O2216844   2.282   0.503  10.407 -0.7588  0.5370  0.4243
  152SAPE   C2216845   2.403   0.297  10.390 -0.2548 -0.3537  0.0500
  152SAPE   H2R16846   2.509   0.268  10.408  0.2687  0.0013 -2.1839
  152SAPE   H2S16847   2.326   0.231  10.434 -1.7706  1.7376  0.6867
  152SAPE    C316848   2.584   0.676  10.520  0.6855 -0.0323 -0.0840
  152SAPE    HX16849   2.681   0.627  10.544  1.4132  2.0672  1.5045
  152SAPE    HY16850   2.591   0.773  10.572 -0.8791 -0.0387  0.1718
  152SAPE   O3116851   2.575   0.684  10.376 -0.0852  0.8943 -0.4163
  152SAPE   C3116852   2.525   0.794  10.326  0.0787  0.4337 -0.3627
  152SAPE   O3216853   2.484   0.896  10.381  0.4759 -0.5496  0.1564
  152SAPE   C3216854   2.547   0.779  10.169  0.2509 -0.4831  0.2455
  152SAPE   H2X16855   2.490   0.685  10.155  0.4832 -1.1565  3.2421
  152SAPE   H2Y16856   2.653   0.757  10.145 -0.0251  0.0740 -1.6968
  152SAPE   C2316857   2.402   0.296  10.238 -0.0893 -0.9245  0.0197
  152SAPE   H3R16858   2.312   0.352  10.207 -0.8236 -0.9751  1.9041
  152SAPE   H3S16859   2.386   0.189  10.210  1.1106 -2.0122  2.9950
  152SAPE   C2416860   2.528   0.365  10.180  0.0967  0.4567  0.5025
  152SAPE   H4R16861   2.616   0.305  10.210 -0.8677 -2.2577 -1.6639
  152SAPE   H4S16862   2.541   0.462  10.233  2.3780 -0.0572  1.0014
  152SAPE   C2516863   2.522   0.385  10.027  0.7103 -0.2961 -0.6574
  152SAPE   H5R16864   2.474   0.482  10.006  0.5208 -0.3469 -0.4568
  152SAPE   C2616865   2.556   0.295   9.930 -0.2750  0.2734 -0.8564
  152SAPE   H6R16866   2.556   0.324   9.824  1.1921 -1.0700 -1.2639
  152SAPE   C2716867   2.606   0.155   9.957  0.7835 -0.0160 -0.0918
  152SAPE   H7R16868   2.525   0.090   9.996 -0.3436  1.6637  0.4122
  152SAPE   H7S16869   2.683   0.166  10.036  1.6741 -1.4643 -0.6994
  152SAPE   C2816870   2.672   0.088   9.839  0.2918 -0.0620  0.1933
  152SAPE   H8R16871   2.781   0.078   9.847  0.5003 -0.8068 -2.4821
  152SAPE   C2916872   2.609   0.042   9.728  0.0876  0.2111  0.6434
  152SAPE   H9R16873   2.672  -0.006   9.652 -1.3625  0.5379 -0.8287
  152SAPE  C21016874   2.453   0.050   9.699 -0.1291  0.6411 -0.8394
  152SAPE  H10R16875   2.404   0.039   9.798  1.0102 -0.9039 -0.4085
  152SAPE  H10S16876   2.424  -0.040   9.641  2.7836 -1.0343  0.1080
  152SAPE  C21116877   2.387   0.168   9.642 -0.3312  0.1042 -0.1250
  152SAPE  H11R16878   2.353   0.238   9.720 -2.4854  0.6157 -1.4370
  152SAPE  C21216879   2.377   0.201   9.512  0.1424  0.2736 -0.0442
  152SAPE  H12R16880   2.325   0.291   9.475  0.6978 -0.9864 -4.3667
  152SAPE  C21316881   2.437   0.111   9.399 -0.3921 -0.2414 -0.3006
  152SAPE  H13R16882   2.502   0.035   9.447  1.8134  0.4025 -2.0766
  152SAPE  H13S16883   2.509   0.175   9.343  0.2127 -0.1532  0.5535
  152SAPE  C21416884   2.331   0.058   9.310  0.9039  0.9985  0.4565
  152SAPE  H14R16885   2.238   0.023   9.358  1.8266  1.3872  2.6354
  152SAPE  C21516886   2.328   0.059   9.177 -0.5830  0.7200 -0.4698
  152SAPE  H15R16887   2.240   0.013   9.129 -1.0332 -0.6294  1.5102
  152SAPE  C21616888   2.432   0.115   9.084  0.4277 -0.7588 -0.5241
  152SAPE  H16R16889   2.499   0.180   9.145  0.8026 -0.9404 -0.7344
  152SAPE  H16S16890   2.390   0.176   9.001 -2.1680  2.2035  2.6821
  152SAPE  C21716891   2.516   0.008   9.018 -0.6587  0.7151  0.4338
  152SAPE  H17R16892   2.562  -0.060   9.093 -0.3322  0.1959 -0.2304
  152SAPE  H17S16893   2.591   0.071   8.965 -2.7704  3.0395 -0.0008
  152SAPE  C21816894   2.453  -0.084   8.915  0.3328 -0.1506  0.3794
  152SAPE  H18R16895   2.363  -0.134   8.957  0.8307  0.1774  1.8860
  152SAPE  H18S16896   2.530  -0.160   8.890 -0.9586 -0.9844 -1.3520
  152SAPE  C21916897   2.407  -0.024   8.776  0.9100 -0.7490  0.2562
  152SAPE  H19R16898   2.426  -0.108   8.706 -1.7026 -1.3237  0.1372
  152SAPE  H19S16899   2.483   0.052   8.750  0.9223 -0.2693  1.6083
  152SAPE  C22016900   2.263   0.022   8.783 -0.0745  0.6805 -0.4697
  152SAPE  H20R16901   2.203  -0.068   8.811 -0.1941 -0.5190 -4.0209
  152SAPE  H20S16902   2.224   0.054   8.684  1.8935  2.0765 -0.8496
  152SAPE  H20T16903   2.253   0.101   8.860 -1.8244  1.0485 -1.0462
  152SAPE   C3316904   2.494   0.883  10.072 -0.2669 -0.5359  0.2115
  152SAPE   H3X16905   2.532   0.985  10.092  0.3916 -0.4503 -1.3590
  152SAPE   H3Y16906   2.386   0.907  10.067 -0.6309 -1.7221  1.5575
  152SAPE   C3416907   2.539   0.858   9.923 -0.3277 -0.9151  0.0090
  152SAPE   H4X16908   2.642   0.816   9.926 -0.0280 -0.1738  0.6400
  152SAPE   H4Y16909   2.535   0.960   9.878 -0.3488 -0.6498  0.6005
  152SAPE   C3516910   2.450   0.761   9.851 -0.6074  0.7773 -0.2833
  152SAPE   H5X16911   2.345   0.793   9.870  0.0318  1.9223  1.5873
  152SAPE   H5Y16912   2.466   0.655   9.878  0.1135  1.2674  1.3149
  152SAPE   C3616913   2.494   0.761   9.704 -0.4831 -0.7998  0.7406
  152SAPE   H6X16914   2.604   0.747   9.699 -0.5725 -1.1880 -0.4804
  152SAPE   H6Y16915   2.470   0.864   9.669  0.5102 -0.6660  0.4220
  152SAPE   C3716916   2.417   0.661   9.616  0.5658 -0.3271  0.1757
  152SAPE   H7X16917   2.318   0.708   9.600 -1.0538 -3.4508  0.1511
  152SAPE   H7Y16918   2.404   0.569   9.678  2.0005 -0.0543  0.9309
  152SAPE   C3816919   2.486   0.632   9.487  0.0006 -0.6388 -0.5684
  152SAPE   H8X16920   2.571   0.569   9.520  0.5897  0.4071 -0.0237
  152SAPE   H8Y16921   2.532   0.720   9.435  0.2351 -0.3124  0.1794
  152SAPE   C3916922   2.397   0.556   9.390 -0.3800 -0.1352  0.0062
  152SAPE   H9X16923   2.305   0.612   9.363 -1.0561 -0.9106  0.6759
  152SAPE   H9Y16924   2.342   0.483   9.454 -2.7453  1.9298  0.4884
  152SAPE  C31016925   2.455   0.480   9.270 -0.1091 -0.5687  0.5350
  152SAPE  H10X16926   2.377   0.413   9.228  0.2583 -0.8963  0.3641
  152SAPE  H10Y16927   2.527   0.403   9.306 -1.0089 -0.8210  1.8611
  152SAPE  C31116928   2.509   0.569   9.159  0.3614  0.5576  0.2487
  152SAPE  H11X16929   2.580   0.648   9.190  1.9321  0.7337 -3.3722
  152SAPE  H11Y16930   2.422   0.625   9.118  0.0669  0.1680  0.3280
  152SAPE  C31216931   2.580   0.491   9.040 -0.5070 -0.4769  0.1357
  152SAPE  H12X16932   2.513   0.411   8.999 -1.4814 -0.2561  1.2603
  152SAPE  H12Y16933   2.676   0.447   9.075 -0.0154 -0.5221 -1.2163
  152SAPE  C31316934   2.610   0.583   8.923  0.2975  0.1012  0.4562
  152SAPE  H13X16935   2.693   0.649   8.955 -0.4446  0.5342  1.5343
  152SAPE  H13Y16936   2.529   0.648   8.883  0.2649 -0.1498  0.0976
  152SAPE  C31416937   2.655   0.503   8.799  0.4610  0.8012 -0.5055
  152SAPE  H14X16938   2.731   0.432   8.839  1.0457  0.3619 -2.3095
  152SAPE  H14Y16939   2.707   0.570   8.728  0.2108 -1.1892 -2.6986
  152SAPE  C31516940   2.536   0.434   8.739 -0.3586  0.5017  0.4136
  152SAPE  H15X16941   2.447   0.499   8.756 -0.5594  0.3106  0.1035
  152SAPE  H15Y16942   2.520   0.341   8.797  1.1289  0.9947  1.6748
  152SAPE  C31616943   2.548   0.413   8.591 -0.0880 -0.0271 -0.1450
  152SAPE  H16X16944   2.639   0.354   8.565  0.3164  1.7900 -3.3755
  152SAPE  H16Y16945   2.548   0.516   8.550  0.5689  1.2877  2.9075
  152SAPE  C31716946   2.429   0.350   8.526  0.3498 -0.1084 -0.5553
  152SAPE  H17X16947   2.343   0.420   8.539 -2.1163 -3.0377  0.0212
  152SAPE  H17Y16948   2.397   0.257   8.577 -1.9264  0.4323 -0.8570
  152SAPE  C31816949   2.437   0.321   8.377  0.4286 -0.3562  0.5301
  152SAPE  H18X16950   2.376   0.230   8.364  1.7433 -0.8718 -2.8767
  152SAPE  H18Y16951   2.537   0.302   8.333 -1.0663  0.0122 -3.4217
  152SAPE  H18Z16952   2.381   0.398   8.319 -3.4499 -3.4378 -0.2797
  153SAPE     N16953   1.183   0.299  11.402 -0.1892  0.8037  0.9341
  153SAPE   HN116954   1.202   0.325  11.501 -0.3706  0.1000  1.1619
  153SAPE   HN216955   1.250   0.345  11.336 -1.1940 -0.2616 -0.9065
  153SAPE   HN316956   1.086   0.320  11.370 -0.1118  0.3673  0.3960
  153SAPE   C1216957   1.212   0.150  11.384 -0.4606 -0.1988  0.1858
  153SAPE  H12A16958   1.119   0.091  11.400 -1.5785  1.6495  0.9424
  153SAPE  H12B16959   1.294   0.117  11.452  3.3520  1.8993 -2.9685
  153SAPE   C1116960   1.254   0.118  11.238  0.0508  0.0790 -0.1846
  153SAPE  H11A16961   1.167   0.138  11.172  0.9973  1.3478 -1.0976
  153SAPE  H11B16962   1.267   0.007  11.235 -2.3316 -0.3313  1.2114
  153SAPE     P16963   1.461   0.120  11.090 -0.6035  0.4767 -0.0532
  153SAPE   O1316964   1.569   0.210  11.042  0.0007  0.8205 -0.4196
  153SAPE   O1416965   1.512  -0.003  11.163 -0.2055  0.0624 -0.1243
  153SAPE   O1216966   1.367   0.198  11.198 -0.3062 -0.2085  0.4631
  153SAPE   O1116967   1.364   0.069  10.976 -0.2902 -0.0724 -0.3679
  153SAPE    C116968   1.311   0.155  10.875 -0.0301 -0.9101 -0.3165
  153SAPE    HA16969   1.201   0.167  10.890 -0.2082 -3.4441  0.8547
  153SAPE    HB16970   1.361   0.254  10.868  1.1243 -1.5487 -1.6064
  153SAPE    C216971   1.328   0.101  10.728 -0.0127 -0.6009 -0.6324
  153SAPE    HS16972   1.279   0.174  10.660 -0.0907  0.6376  0.7151
  153SAPE   O2116973   1.260  -0.028  10.724  0.2067  0.3009  0.3254
  153SAPE   C2116974   1.196  -0.057  10.611  0.6947  0.0930  0.5381
  153SAPE   O2216975   1.173   0.027  10.519 -0.3116  0.4041 -0.1196
  153SAPE   C2216976   1.145  -0.207  10.625 -0.0429  0.1700  0.3040
  153SAPE   H2R16977   1.237  -0.263  10.650  0.5802  2.0486  2.6142
  153SAPE   H2S16978   1.060  -0.211  10.697 -0.1048  1.7905  0.3513
  153SAPE    C316979   1.479   0.092  10.701 -0.6391 -0.9354  0.1298
  153SAPE    HX16980   1.539   0.029  10.770  0.1234 -0.1332  0.2172
  153SAPE    HY16981   1.514   0.196  10.716 -4.4302  0.2004  2.8064
  153SAPE   O3116982   1.493   0.040  10.565  0.5863 -0.2676 -0.1474
  153SAPE   C3116983   1.531  -0.088  10.553 -0.0363  0.0014 -0.3321
  153SAPE   O3216984   1.556  -0.162  10.649  0.9067  0.2916 -0.0350
  153SAPE   C3216985   1.559  -0.121  10.407 -0.6926 -0.0755  0.7012
  153SAPE   H2X16986   1.640  -0.054  10.373 -0.0355 -1.0014  0.3932
  153SAPE   H2Y16987   1.468  -0.110  10.344  0.4232  1.1694 -0.7788
  153SAPE   C2316988   1.095  -0.266  10.492 -0.0303 -0.4636 -0.1935
  153SAPE   H3R16989   1.021  -0.193  10.454 -1.0686 -1.4241 -0.0689
  153SAPE   H3S16990   1.031  -0.355  10.513 -2.3909  0.8746 -1.3674
  153SAPE   C2416991   1.210  -0.296  10.393  0.2848 -0.2050  0.1645
  153SAPE   H4R16992   1.283  -0.368  10.435  2.1492  1.3887 -0.1970
  153SAPE   H4S16993   1.263  -0.200  10.374 -0.0415 -0.2792 -1.1683
  153SAPE   C2516994   1.155  -0.345  10.265  0.3303 -0.2281  0.8663
  153SAPE   H5R16995   1.103  -0.441  10.274  2.5674 -1.7515 -1.1583
  153SAPE   C2616996   1.162  -0.288  10.141 -0.2491  1.7214 -0.5106
  153SAPE   H6R16997   1.112  -0.337  10.057 -1.1010 -1.5065  1.6622
  153SAPE   C2716998   1.227  -0.154  10.117  0.5547  0.5503 -0.2563
  153SAPE   H7R16999   1.240  -0.136  10.008 -3.0541  0.6450 -0.7752
  153SAPE   H7S17000   1.324  -0.165  10.171  1.2264 -1.2026 -1.7341
  153SAPE   C2817001   1.162  -0.027  10.171 -0.3442 -0.1338  0.1231
  153SAPE   H8R17002   1.179  -0.015  10.279 -2.2468  0.1584  0.4312
  153SAPE   C2917003   1.086   0.065  10.107  0.0489 -0.5819  0.9191
  153SAPE   H9R17004   1.051   0.156  10.158 -0.0498  0.1688 -0.4361
  153SAPE  C21017005   1.044   0.051   9.963 -0.2598 -0.0102  0.0441
  153SAPE  H10R17006   0.937   0.023   9.960 -0.2017 -0.4770  1.3678
  153SAPE  H10S17007   1.107  -0.028   9.917  0.9142  0.5140  0.6986
  153SAPE  C21117008   1.051   0.191   9.898 -0.3418  0.4866 -0.1104
  153SAPE  H11R17009   1.006   0.265   9.965 -1.5332 -0.7456  0.5138
  153SAPE  C21217010   1.100   0.232   9.777 -0.5464 -0.0134  0.0248
  153SAPE  H12R17011   1.102   0.340   9.757  2.1012  0.6100  2.8073
  153SAPE  C21317012   1.171   0.140   9.677  0.0702 -0.2743  0.1860
  153SAPE  H13R17013   1.191   0.192   9.582 -0.9999 -2.0086 -1.0495
  153SAPE  H13S17014   1.095   0.068   9.642 -1.0567  1.3333 -0.8052
  153SAPE  C21417015   1.297   0.072   9.724  0.2648 -0.7631  0.7280
  153SAPE  H14R17016   1.359   0.137   9.788 -3.0923  3.2014  0.3439
  153SAPE  C21517017   1.334  -0.056   9.699 -0.2050  0.0414  0.1444
  153SAPE  H15R17018   1.427  -0.089   9.749 -1.3355 -1.5648  1.2860
  153SAPE  C21617019   1.280  -0.165   9.614 -0.2188  0.0373  0.1288
  153SAPE  H16R17020   1.347  -0.190   9.529 -1.1421  0.8328 -0.8702
  153SAPE  H16S17021   1.187  -0.128   9.566  0.5566  0.1667 -1.3209
  153SAPE  C21717022   1.251  -0.293   9.688 -0.1770  0.3538 -0.3562
  153SAPE  H17R17023   1.181  -0.262   9.769 -1.2246  1.3195 -1.5794
  153SAPE  H17S17024   1.345  -0.330   9.735  0.3695  1.7753 -0.2871
  153SAPE  C21817025   1.194  -0.410   9.608  0.9512  0.3552 -0.0373
  153SAPE  H18R17026   1.093  -0.386   9.568 -0.3558 -2.9604  0.9895
  153SAPE  H18S17027   1.176  -0.498   9.672  0.6352  0.5950  0.2070
  153SAPE  C21917028   1.296  -0.459   9.500  0.0716  0.2304  0.1638
  153SAPE  H19R17029   1.374  -0.513   9.558 -1.1279 -0.4582  1.1802
  153SAPE  H19S17030   1.339  -0.373   9.445 -0.2030  0.1049 -0.2533
  153SAPE  C22017031   1.251  -0.570   9.403 -0.4363 -0.2779  0.1808
  153SAPE  H20R17032   1.195  -0.646   9.461 -0.5336  0.7403  1.4524
  153SAPE  H20S17033   1.336  -0.615   9.347 -0.9494 -0.7281 -0.2509
  153SAPE  H20T17034   1.175  -0.534   9.330  0.7708  1.1895 -0.3984
  153SAPE   C3317035   1.616  -0.265  10.385 -0.3499 -0.7160  0.6521
  153SAPE   H3X17036   1.557  -0.334  10.449  0.1838 -0.4803  1.4204
  153SAPE   H3Y17037   1.725  -0.277  10.407  0.7435  1.6201 -2.7531
  153SAPE   C3417038   1.588  -0.314  10.237 -0.4471 -0.5063 -0.7141
  153SAPE   H4X17039   1.672  -0.275  10.176 -0.6470 -1.2927 -1.5087
  153SAPE   H4Y17040   1.494  -0.271  10.197 -0.4932  0.8691  0.7717
  153SAPE   C3517041   1.576  -0.467  10.228 -1.1108  0.6519  0.2167
  153SAPE   H5X17042   1.506  -0.494  10.310  0.3613 -0.1229  1.2805
  153SAPE   H5Y17043   1.674  -0.508  10.261 -0.7236  1.8790  0.6461
  153SAPE   C3617044   1.534  -0.505  10.087 -0.0204 -0.4925 -0.0828
  153SAPE   H6X17045   1.473  -0.423  10.045 -0.6297  1.1163  3.6271
  153SAPE   H6Y17046   1.484  -0.604  10.093  1.8793 -1.6518 -1.9362
  153SAPE   C3717047   1.645  -0.537   9.989 -0.4670 -0.3904 -0.1846
  153SAPE   H7X17048   1.716  -0.616  10.021  0.8502  1.1589  0.8884
  153SAPE   H7Y17049   1.712  -0.448   9.989 -1.1573  0.4266 -5.2888
  153SAPE   C3817050   1.585  -0.558   9.846  0.3055  0.3995  0.6444
  153SAPE   H8X17051   1.535  -0.462   9.823 -0.4134  0.1836  1.2671
  153SAPE   H8Y17052   1.502  -0.631   9.851 -1.0119  1.8579  0.6025
  153SAPE   C3917053   1.683  -0.610   9.738  0.1617  0.0550 -0.5258
  153SAPE   H9X17054   1.711  -0.714   9.764  0.6426  0.1903 -0.4916
  153SAPE   H9Y17055   1.777  -0.551   9.735  1.5761 -1.9842  0.6215
  153SAPE  C31017056   1.627  -0.605   9.598  0.0047  0.3575 -0.7285
  153SAPE  H10X17057   1.587  -0.504   9.575 -1.1821  0.2524  0.7531
  153SAPE  H10Y17058   1.544  -0.678   9.585  1.0780 -1.1304  0.4033
  153SAPE  C31117059   1.736  -0.646   9.503  0.3012 -0.7426  0.8797
  153SAPE  H11X17060   1.789  -0.733   9.547 -1.2216 -1.4418  1.4043
  153SAPE  H11Y17061   1.805  -0.559   9.508  0.1547 -0.4820 -0.9376
  153SAPE  C31217062   1.682  -0.673   9.367  0.1884 -0.2476 -0.0132
  153SAPE  H12X17063   1.614  -0.590   9.338 -0.5751 -0.2123  1.7140
  153SAPE  H12Y17064   1.627  -0.770   9.370 -1.3902  0.6008  3.1593
  153SAPE  C31317065   1.796  -0.680   9.263  0.1648 -0.8298  0.3878
  153SAPE  H13X17066   1.855  -0.769   9.292  0.9459  0.0718  1.7042
  153SAPE  H13Y17067   1.855  -0.587   9.279  0.7183 -1.2923  1.0814
  153SAPE  C31417068   1.744  -0.693   9.118 -0.6601  0.3239  0.6983
  153SAPE  H14X17069   1.663  -0.769   9.127  1.4776 -2.1191  0.3861
  153SAPE  H14Y17070   1.814  -0.739   9.045 -0.4319  0.7309  0.6573
  153SAPE  C31517071   1.684  -0.567   9.052  0.7259 -0.6184  0.3193
  153SAPE  H15X17072   1.765  -0.491   9.044  0.2726 -0.3602 -3.8825
  153SAPE  H15Y17073   1.594  -0.534   9.107  0.8857  1.0508 -0.3746
  153SAPE  C31617074   1.647  -0.589   8.903  0.1300  0.1796  0.1976
  153SAPE  H16X17075   1.575  -0.674   8.901 -1.5305  1.5196 -1.8944
  153SAPE  H16Y17076   1.742  -0.608   8.849 -0.9700 -2.2153 -1.0630
  153SAPE  C31717077   1.567  -0.481   8.829 -0.1576  0.3218  0.0266
  153SAPE  H17X17078   1.572  -0.500   8.719  0.3481  0.7347 -0.0248
  153SAPE  H17Y17079   1.616  -0.381   8.832  2.1496 -0.7169 -0.4444
  153SAPE  C31817080   1.419  -0.473   8.866 -0.3164 -0.7543  0.6882
  153SAPE  H18X17081   1.380  -0.369   8.868  3.6844  0.9542  1.3045
  153SAPE  H18Y17082   1.398  -0.508   8.969 -3.5665 -0.4468  0.2138
  153SAPE  H18Z17083   1.351  -0.520   8.793 -1.6775  2.5372 -0.3424
  154SAPE     N17084   4.244   2.104  10.833  0.1307  0.3939  0.5834
  154SAPE   HN117085   4.222   2.038  10.910 -3.4518  2.1607  1.2704
  154SAPE   HN217086   4.246   2.055  10.741 -0.2551  0.2192  0.6704
  154SAPE   HN317087   4.329   2.160  10.854 -0.2731  1.4508 -0.4735
  154SAPE   C1217088   4.124   2.195  10.827 -0.1439  0.0927 -0.2893
  154SAPE  H12A17089   4.157   2.272  10.754 -0.9327 -0.3734 -1.1494
  154SAPE  H12B17090   4.124   2.242  10.927 -1.4861 -0.0932 -0.1892
  154SAPE   C1117091   3.988   2.124  10.794  0.1241 -0.1311  0.5313
  154SAPE  H11A17092   3.981   2.081  10.692  0.7436  0.4970  0.2121
  154SAPE  H11B17093   3.907   2.199  10.806 -0.9412 -1.3371  1.0641
  154SAPE     P17094   3.845   1.923  10.894  0.2589 -0.3000 -0.0138
  154SAPE   O1317095   3.893   1.791  10.929  0.4669  0.1536 -0.4030
  154SAPE   O1417096   3.749   1.984  10.984 -0.0599  0.0093 -0.9778
  154SAPE   O1217097   3.972   2.014  10.879 -0.1998 -0.1677 -0.2576
  154SAPE   O1117098   3.773   1.906  10.751 -0.2258  0.0162  0.1708
  154SAPE    C117099   3.666   1.983  10.704 -0.4954  0.3150  0.8745
  154SAPE    HA17100   3.648   2.071  10.770  0.1508 -0.0937  1.6073
  154SAPE    HB17101   3.695   2.037  10.611  0.6235 -1.6091  0.0415
  154SAPE    C217102   3.536   1.901  10.672 -0.1328  0.3777  0.6042
  154SAPE    HS17103   3.496   1.843  10.758 -0.1436  1.4337  1.3253
  154SAPE   O2117104   3.564   1.820  10.559  0.6676  0.8336 -0.2885
  154SAPE   C2117105   3.618   1.702  10.592 -0.4264 -0.6133  0.5522
  154SAPE   O2217106   3.609   1.644  10.697 -0.4870 -0.8089 -0.3379
  154SAPE   C2217107   3.687   1.641  10.469 -0.8177 -0.2802 -0.4538
  154SAPE   H2R17108   3.780   1.598  10.512 -0.1675  1.8694  0.4855
  154SAPE   H2S17109   3.631   1.555  10.428  0.6186 -0.7790 -1.4289
  154SAPE    C317110   3.419   2.004  10.621 -0.1288  0.1662  0.4361
  154SAPE    HX17111   3.399   2.068  10.710 -1.6759 -0.6964  0.7340
  154SAPE    HY17112   3.333   1.942  10.590  0.9641 -1.6518  0.8668
  154SAPE   O3117113   3.469   2.089  10.512 -0.6478 -0.8530 -0.2721
  154SAPE   C3117114   3.421   2.076  10.393  0.0675 -0.1418 -0.0049
  154SAPE   O3217115   3.323   2.010  10.359  0.0468 -0.2833 -0.6914
  154SAPE   C3217116   3.487   2.182  10.309 -0.4818  0.2472 -0.4033
  154SAPE   H2X17117   3.548   2.246  10.376 -0.7839 -0.4935  0.5962
  154SAPE   H2Y17118   3.414   2.254  10.265 -0.6647 -1.9725 -4.1926
  154SAPE   C2317119   3.734   1.737  10.360  0.2046 -0.1123  0.1334
  154SAPE   H3R17120   3.827   1.792  10.387 -0.2472  1.0312 -0.5164
  154SAPE   H3S17121   3.653   1.813  10.358  0.1337 -0.1663  0.8465
  154SAPE   C2417122   3.741   1.683  10.215  0.0082 -0.4296  0.2402
  154SAPE   H4R17123   3.739   1.773  10.149  0.8244 -1.7473 -1.6623
  154SAPE   H4S17124   3.651   1.624  10.188  0.6027 -1.2323 -0.0375
  154SAPE   C2517125   3.865   1.602  10.186 -0.4519 -0.4684 -0.0955
  154SAPE   H5R17126   3.926   1.578  10.274  3.3096 -1.6875 -2.7799
  154SAPE   C2617127   3.922   1.585  10.061 -0.5022 -0.3894  0.0267
  154SAPE   H6R17128   4.015   1.525  10.054 -1.2001 -1.3312 -3.5971
  154SAPE   C2717129   3.889   1.637   9.926  0.6613  0.0451 -0.6817
  154SAPE   H7R17130   3.819   1.723   9.931  0.7873  0.2820 -2.3097
  154SAPE   H7S17131   3.844   1.557   9.863 -1.2313  1.5068 -1.2726
  154SAPE   C2817132   4.007   1.697   9.859  0.0583 -0.0140 -0.5509
  154SAPE   H8R17133   4.086   1.737   9.924  1.3648 -2.6404 -0.4280
  154SAPE   C2917134   4.023   1.691   9.727 -0.7830 -0.1195 -0.1136
  154SAPE   H9R17135   4.114   1.740   9.689 -0.8367 -0.3501 -0.5368
  154SAPE  C21017136   3.932   1.641   9.614  0.3838 -0.6169 -0.3817
  154SAPE  H10R17137   3.833   1.680   9.644  0.0132 -1.3189 -0.6790
  154SAPE  H10S17138   3.931   1.531   9.602 -1.0672 -0.4807 -1.7757
  154SAPE  C21117139   3.972   1.705   9.484 -0.1214  0.3130 -0.5061
  154SAPE  H11R17140   4.068   1.756   9.468  0.4935 -1.0225 -1.2216
  154SAPE  C21217141   3.882   1.724   9.386 -0.2432 -0.1693  0.2105
  154SAPE  H12R17142   3.910   1.792   9.304 -0.8120  0.7137  0.7291
  154SAPE  C21317143   3.739   1.680   9.375 -0.1698 -0.4507  0.3616
  154SAPE  H13R17144   3.689   1.779   9.378  2.3564  1.0882 -2.3705
  154SAPE  H13S17145   3.699   1.627   9.463 -4.2247  0.0634 -0.9461
  154SAPE  C21417146   3.705   1.604   9.250  0.5833  0.6618 -0.7142
  154SAPE  H14R17147   3.778   1.523   9.238 -0.8179 -1.0712  1.6260
  154SAPE  C21517148   3.588   1.629   9.182  0.1318 -0.6059  0.3190
  154SAPE  H15R17149   3.574   1.568   9.092 -1.2186  0.2903 -0.0999
  154SAPE  C21617150   3.487   1.742   9.204  0.0803 -0.5792 -0.7609
  154SAPE  H16R17151   3.437   1.760   9.106  0.4262  3.0935 -0.4020
  154SAPE  H16S17152   3.536   1.835   9.242 -2.0799 -1.0776  3.9627
  154SAPE  C21717153   3.368   1.712   9.294 -0.3224  0.3360 -0.6112
  154SAPE  H17R17154   3.301   1.801   9.292 -0.1069  0.4905 -1.0623
  154SAPE  H17S17155   3.405   1.712   9.399  1.0955 -1.3395 -1.0579
  154SAPE  C21817156   3.277   1.592   9.248  0.0086  0.4325  0.2282
  154SAPE  H18R17157   3.285   1.586   9.137 -2.0543  1.9257 -0.0694
  154SAPE  H18S17158   3.174   1.627   9.268 -0.0393  0.6020 -0.2924
  154SAPE  C21917159   3.305   1.463   9.314 -0.2207 -0.0607 -0.2221
  154SAPE  H19R17160   3.342   1.474   9.419  2.1046  1.4325 -1.1224
  154SAPE  H19S17161   3.385   1.414   9.255 -0.1095 -1.0641  0.7294
  154SAPE  C22017162   3.185   1.371   9.314 -0.0124  0.6109 -0.6718
  154SAPE  H20R17163   3.204   1.285   9.382 -0.5920  1.7579  1.0124
  154SAPE  H20S17164   3.165   1.333   9.212 -0.7667  1.1751 -0.7489
  154SAPE  H20T17165   3.097   1.430   9.348  0.5370  0.1342  1.7700
  154SAPE   C3317166   3.571   2.134  10.192  0.0636 -0.3045  0.2207
  154SAPE   H3X17167   3.646   2.054  10.210  0.1348 -0.1765  0.5053
  154SAPE   H3Y17168   3.622   2.228  10.160  0.0621 -0.0168  1.0359
  154SAPE   C3417169   3.477   2.097  10.071  0.0247 -0.4033 -0.3829
  154SAPE   H4X17170   3.405   2.179  10.052 -0.8047 -0.7267  1.1549
  154SAPE   H4Y17171   3.417   2.009  10.102 -0.8639 -0.1641 -1.3655
  154SAPE   C3517172   3.562   2.073   9.945 -0.3811  0.7517  0.9819
  154SAPE   H5X17173   3.637   1.998   9.977 -0.7562  0.4930  1.2687
  154SAPE   H5Y17174   3.602   2.169   9.905 -3.7501  1.8519 -0.0708
  154SAPE   C3617175   3.486   2.019   9.819 -0.0497  0.2429 -0.9825
  154SAPE   H6X17176   3.407   1.949   9.851  0.9675 -0.7920 -0.6805
  154SAPE   H6Y17177   3.555   1.952   9.764  0.9083  0.1601  0.2580
  154SAPE   C3717178   3.422   2.134   9.733 -0.6038  0.2116  0.2796
  154SAPE   H7X17179   3.503   2.205   9.705 -1.1390 -0.2006 -2.5954
  154SAPE   H7Y17180   3.352   2.188   9.801  0.8116  2.5174  0.0305
  154SAPE   C3817181   3.339   2.073   9.614  0.4286  0.4253 -0.0842
  154SAPE   H8X17182   3.254   2.034   9.675  2.3780  0.6906  3.0657
  154SAPE   H8Y17183   3.390   1.987   9.566  2.3195  1.6484 -0.3787
  154SAPE   C3917184   3.307   2.175   9.509  0.6552 -0.5989  0.0914
  154SAPE   H9X17185   3.396   2.230   9.472 -1.6319  3.0620 -0.4276
  154SAPE   H9Y17186   3.232   2.242   9.557  0.5051 -0.5094 -0.2640
  154SAPE  C31017187   3.241   2.097   9.390  0.6744 -0.3239 -0.3425
  154SAPE  H10X17188   3.163   2.024   9.422 -0.5377  0.4632 -1.4120
  154SAPE  H10Y17189   3.331   2.048   9.348  2.5198  1.3097  1.4881
  154SAPE  C31117190   3.172   2.173   9.280  0.0964  0.1946  0.2528
  154SAPE  H11X17191   3.224   2.267   9.251  0.0821  0.8717  2.2356
  154SAPE  H11Y17192   3.076   2.210   9.320 -0.1117 -1.3764  1.2987
  154SAPE  C31217193   3.156   2.091   9.153  0.5873  0.0376 -0.4528
  154SAPE  H12X17194   3.127   1.989   9.186  1.0197  0.2803  0.6927
  154SAPE  H12Y17195   3.258   2.086   9.109  1.7312  0.4341  1.9801
  154SAPE  C31317196   3.057   2.164   9.059 -0.1894  0.6997  0.2986
  154SAPE  H13X17197   3.085   2.269   9.035 -0.2298  0.2618 -1.8877
  154SAPE  H13Y17198   2.956   2.170   9.103 -1.5605 -0.9884 -2.3764
  154SAPE  C31417199   3.047   2.085   8.935 -0.3028 -0.4519  0.6323
  154SAPE  H14X17200   2.979   2.000   8.957 -2.0626  1.3183  2.3963
  154SAPE  H14Y17201   3.145   2.034   8.919 -0.2184 -0.4483  1.1195
  154SAPE  C31517202   2.998   2.163   8.813 -0.7621 -0.5840 -0.0011
  154SAPE  H15X17203   2.894   2.203   8.819 -0.3580  0.3627  1.1797
  154SAPE  H15Y17204   3.004   2.094   8.726 -0.9999 -2.2775  1.2621
  154SAPE  C31617205   3.094   2.280   8.762  0.0927  0.4160 -0.0785
  154SAPE  H16X17206   3.198   2.243   8.755 -0.5396 -1.6129  0.4370
  154SAPE  H16Y17207   3.098   2.362   8.836  0.7764 -0.8398  1.3190
  154SAPE  C31717208   3.046   2.339   8.628 -0.3452 -0.7006  0.1430
  154SAPE  H17X17209   2.946   2.376   8.657 -0.2564 -0.4328  0.1206
  154SAPE  H17Y17210   3.033   2.256   8.555  1.6481  1.0072 -2.3927
  154SAPE  C31817211   3.131   2.446   8.572  0.0091 -0.0652  0.0068
  154SAPE  H18X17212   3.234   2.416   8.542  0.2471  1.9619 -1.3123
  154SAPE  H18Y17213   3.140   2.531   8.642  1.2628  0.8984 -1.2712
  154SAPE  H18Z17214   3.091   2.484   8.476 -1.4114 -0.8561  0.2528
  155SAPE     N17215   2.262   2.191  11.197  0.2780  0.2350 -0.6328
  155SAPE   HN117216   2.324   2.244  11.262 -0.1974 -1.6242  1.4459
  155SAPE   HN217217   2.205   2.129  11.257  0.4956 -0.8642 -1.5254
  155SAPE   HN317218   2.328   2.121  11.156  2.2481  1.4760  0.2659
  155SAPE   C1217219   2.187   2.288  11.111  0.2933  0.0616 -0.3091
  155SAPE  H12A17220   2.086   2.296  11.159  0.1632  2.1392 -0.8188
  155SAPE  H12B17221   2.174   2.252  11.007 -1.1812  1.0338 -0.4985
  155SAPE   C1117222   2.259   2.424  11.099  0.0438  0.3660  1.0089
  155SAPE  H11A17223   2.267   2.475  11.197  2.4377  1.5663  0.2667
  155SAPE  H11B17224   2.195   2.485  11.032  0.2277 -0.3547  0.1549
  155SAPE     P17225   2.514   2.487  11.085 -0.4534 -0.4063 -0.1156
  155SAPE   O1317226   2.524   2.466  11.229 -0.3486  0.3292  0.2697
  155SAPE   O1417227   2.636   2.445  11.006 -0.0057 -0.8608 -0.9649
  155SAPE   O1217228   2.386   2.394  11.040  0.0746  0.6559  0.1683
  155SAPE   O1117229   2.469   2.634  11.064  0.3819 -0.0488 -0.3024
  155SAPE    C117230   2.430   2.685  10.938  0.8870 -0.3489  0.7959
  155SAPE    HA17231   2.355   2.624  10.883  2.0079 -0.7450 -0.3472
  155SAPE    HB17232   2.376   2.781  10.953  0.4610 -0.5161  0.3789
  155SAPE    C217233   2.543   2.717  10.834 -0.3677 -0.3781 -0.6341
  155SAPE    HS17234   2.507   2.796  10.765  1.9981 -0.9196 -2.6498
  155SAPE   O2117235   2.589   2.595  10.766 -0.4060  0.2923 -0.1490
  155SAPE   C2117236   2.523   2.571  10.647  0.1780  0.1572  0.6687
  155SAPE   O2217237   2.427   2.633  10.607  0.7586  0.2602 -0.3124
  155SAPE   C2217238   2.591   2.447  10.576 -0.1574 -0.4696  0.1945
  155SAPE   H2R17239   2.589   2.362  10.648  1.8903  1.4638  2.7403
  155SAPE   H2S17240   2.531   2.431  10.484 -0.7976  1.4840  0.2325
  155SAPE    C317241   2.662   2.787  10.914 -0.3345  0.6158  0.1191
  155SAPE    HX17242   2.710   2.713  10.981 -0.6054  0.9716  0.7096
  155SAPE    HY17243   2.619   2.860  10.984  1.3754  1.0422  0.7768
  155SAPE   O3117244   2.749   2.865  10.828  0.3664 -0.2693 -0.5580
  155SAPE   C3117245   2.868   2.808  10.795  0.0963  0.0563 -0.0904
  155SAPE   O3217246   2.906   2.694  10.823 -0.3577 -0.5657 -0.3006
  155SAPE   C3217247   2.941   2.901  10.692 -0.0082 -0.5767  0.1902
  155SAPE   H2X17248   3.015   2.956  10.753 -1.5808  1.0592  0.7147
  155SAPE   H2Y17249   2.869   2.977  10.655  0.0486 -0.2729  0.6965
  155SAPE   C2317250   2.744   2.477  10.533  0.5307  0.1875  0.9030
  155SAPE   H3R17251   2.774   2.387  10.476 -1.3194  0.8745 -1.3239
  155SAPE   H3S17252   2.809   2.488  10.622  0.3269  0.4691  1.0184
  155SAPE   C2417253   2.752   2.605  10.444  0.0148  0.0623  0.2462
  155SAPE   H4R17254   2.861   2.615  10.427  0.7213 -3.9913  1.2743
  155SAPE   H4S17255   2.718   2.692  10.504 -0.9927  0.0288 -0.2554
  155SAPE   C2517256   2.692   2.603  10.304 -0.4215  0.6708 -0.2109
  155SAPE   H5R17257   2.585   2.627  10.309 -0.3817  0.6052  1.4304
  155SAPE   C2617258   2.765   2.576  10.188  0.1921  0.6459 -0.2360
  155SAPE   H6R17259   2.719   2.588  10.089  1.2708  1.7992 -0.6234
  155SAPE   C2717260   2.918   2.543  10.185  0.2309  0.3331  0.1783
  155SAPE   H7R17261   2.978   2.620  10.237 -1.6897  2.1836 -0.1896
  155SAPE   H7S17262   2.957   2.555  10.081 -0.2671  0.8954  0.0475
  155SAPE   C2817263   2.944   2.403  10.239 -0.6049 -0.3123  0.2249
  155SAPE   H8R17264   2.936   2.384  10.347 -0.0152 -1.4011  0.0861
  155SAPE   C2917265   2.982   2.291  10.171 -0.3664  0.4121  0.7649
  155SAPE   H9R17266   2.999   2.198  10.227 -0.8877 -0.4843 -0.5056
  155SAPE  C21017267   3.004   2.286  10.027 -0.3848 -0.2196 -0.1684
  155SAPE  H10R17268   3.092   2.223  10.004 -0.8891 -0.9567 -0.1130
  155SAPE  H10S17269   3.040   2.386   9.993 -0.0444 -0.6864 -1.2217
  155SAPE  C21117270   2.867   2.249   9.957  0.4926 -0.8091 -0.7121
  155SAPE  H11R17271   2.809   2.163   9.994 -3.6318  2.2908  0.7416
  155SAPE  C21217272   2.806   2.323   9.862  0.3216 -0.9734  0.0682
  155SAPE  H12R17273   2.712   2.289   9.816  1.0153  1.2086 -3.3071
  155SAPE  C21317274   2.859   2.447   9.791 -0.3778  0.1538 -0.1577
  155SAPE  H13R17275   2.948   2.419   9.731 -0.2649  0.0206  0.0681
  155SAPE  H13S17276   2.894   2.522   9.865  0.5107  0.5642 -0.9842
  155SAPE  C21417277   2.756   2.524   9.711 -0.5462 -0.0439  0.5613
  155SAPE  H14R17278   2.747   2.623   9.757 -0.7223 -0.5480  1.6329
  155SAPE  C21517279   2.683   2.487   9.604  0.8105 -0.9775 -0.4213
  155SAPE  H15R17280   2.622   2.563   9.553 -0.1276 -1.5019 -0.1149
  155SAPE  C21617281   2.679   2.353   9.535 -0.1307 -0.5454  0.6757
  155SAPE  H16R17282   2.591   2.295   9.567  0.4377 -1.4397  0.6470
  155SAPE  H16S17283   2.767   2.289   9.556  1.4694  1.3367  0.0901
  155SAPE  C21717284   2.675   2.376   9.382  0.2935  0.9401  0.0029
  155SAPE  H17R17285   2.584   2.431   9.349  2.0592  2.2141 -3.1515
  155SAPE  H17S17286   2.674   2.276   9.334  0.9926  1.0558 -0.2613
  155SAPE  C21817287   2.792   2.450   9.321  0.3982 -0.0200 -0.1476
  155SAPE  H18R17288   2.883   2.426   9.380 -0.2513 -0.4939  0.6853
  155SAPE  H18S17289   2.780   2.559   9.341  1.7287  0.1146  0.0033
  155SAPE  C21917290   2.816   2.443   9.171  0.4421 -0.5900  0.1811
  155SAPE  H19R17291   2.731   2.481   9.110  0.3065 -0.5133  0.4148
  155SAPE  H19S17292   2.823   2.339   9.131 -2.7861 -1.1783  0.8117
  155SAPE  C22017293   2.944   2.519   9.126  0.3374  0.3842 -0.1018
  155SAPE  H20R17294   2.958   2.619   9.172  0.5725 -0.3263  1.4513
  155SAPE  H20S17295   2.933   2.530   9.016  1.2881 -0.3289 -0.2781
  155SAPE  H20T17296   3.028   2.454   9.160 -1.7828 -2.0255  0.8491
  155SAPE   C3317297   3.014   2.822  10.580  1.4234 -0.7065 -0.2287
  155SAPE   H3X17298   2.947   2.807  10.493  0.9528  2.4625 -0.5062
  155SAPE   H3Y17299   3.034   2.717  10.611 -0.8257 -1.2108 -0.2976
  155SAPE   C3417300   3.138   2.880  10.527 -0.1322  0.1292  0.5333
  155SAPE   H4X17301   3.201   2.807  10.472  0.6638  0.7214  0.6277
  155SAPE   H4Y17302   3.216   2.897  10.604  1.1865 -0.1396 -0.6820
  155SAPE   C3517303   3.116   2.999  10.427 -0.2217  0.4359 -0.2005
  155SAPE   H5X17304   3.119   3.100  10.473  0.1638  0.4637 -0.2869
  155SAPE   H5Y17305   3.016   2.973  10.386 -0.6301  0.9994  0.4072
  155SAPE   C3617306   3.225   2.990  10.319 -0.7577  0.5736 -1.2237
  155SAPE   H6X17307   3.228   2.886  10.280 -4.4287 -0.3593  0.5749
  155SAPE   H6Y17308   3.323   3.023  10.362 -2.0881  1.0926  1.6253
  155SAPE   C3717309   3.190   3.072  10.199 -0.1596  0.1271 -0.1125
  155SAPE   H7X17310   3.161   3.176  10.224 -1.5523 -0.3425  0.2675
  155SAPE   H7Y17311   3.106   3.012  10.158 -1.7021  1.9950  0.1736
  155SAPE   C3817312   3.296   3.075  10.087 -0.5414  0.4007  0.5825
  155SAPE   H8X17313   3.316   2.977  10.039 -1.5645  1.2575 -1.7386
  155SAPE   H8Y17314   3.393   3.113  10.126  0.1863  0.4830 -1.2145
  155SAPE   C3917315   3.240   3.170   9.978  0.3759  0.1763 -0.5002
  155SAPE   H9X17316   3.235   3.269  10.029 -1.0307 -0.0642 -0.1338
  155SAPE   H9Y17317   3.132   3.147   9.967  0.4420  0.6378 -2.3485
  155SAPE  C31017318   3.319   3.165   9.845 -0.4071 -0.3185  0.1417
  155SAPE  H10X17319   3.295   3.075   9.785  1.4082 -1.6624  1.3064
  155SAPE  H10Y17320   3.427   3.170   9.870 -0.3983 -0.0355  0.0511
  155SAPE  C31117321   3.293   3.293   9.747 -0.0766 -0.4837 -0.2311
  155SAPE  H11X17322   3.238   3.370   9.805 -0.0901 -0.8167  0.2065
  155SAPE  H11Y17323   3.232   3.263   9.659 -1.0921  2.3150 -0.5690
  155SAPE  C31217324   3.412   3.368   9.686  0.3521  0.4514  0.2276
  155SAPE  H12X17325   3.488   3.401   9.760  1.3100 -2.1817  0.5027
  155SAPE  H12Y17326   3.376   3.458   9.631  3.6197  1.3098 -0.7714
  155SAPE  C31317327   3.487   3.278   9.576  0.2629 -1.1215  0.2615
  155SAPE  H13X17328   3.508   3.180   9.623  0.8550 -1.4112 -0.5803
  155SAPE  H13Y17329   3.590   3.316   9.564  0.0032 -0.9478 -1.7154
  155SAPE  C31417330   3.424   3.263   9.433 -0.0179  0.7093  0.5641
  155SAPE  H14X17331   3.315   3.266   9.455 -0.1908  2.3697 -0.3345
  155SAPE  H14Y17332   3.457   3.165   9.394  4.2698  2.2243 -0.1008
  155SAPE  C31517333   3.452   3.383   9.338 -0.1349  0.6997  0.1739
  155SAPE  H15X17334   3.407   3.478   9.373  1.3632  1.6014 -0.2226
  155SAPE  H15Y17335   3.402   3.351   9.244  1.7240 -3.7444  0.4881
  155SAPE  C31617336   3.600   3.415   9.324 -0.2185 -0.3953  0.4332
  155SAPE  H16X17337   3.668   3.333   9.293 -0.0874 -0.7230  1.5712
  155SAPE  H16Y17338   3.643   3.464   9.414 -1.6887  0.2190  0.8275
  155SAPE  C31717339   3.610   3.521   9.213 -0.2008  0.5900 -0.8195
  155SAPE  H17X17340   3.713   3.564   9.211 -0.1800  0.8651  1.8640
  155SAPE  H17Y17341   3.545   3.605   9.247  0.6071 -0.0078  2.5477
  155SAPE  C31817342   3.576   3.472   9.074 -0.5016 -0.4470  0.2804
  155SAPE  H18X17343   3.632   3.383   9.038  0.6792  0.6073 -0.6015
  155SAPE  H18Y17344   3.624   3.545   9.005 -1.4951 -0.7092 -0.7048
  155SAPE  H18Z17345   3.468   3.453   9.059 -0.4002  0.7508 -2.4898
  156SAPE     N17346   2.192   6.481  11.005 -0.2310  0.4794 -0.4826
  156SAPE   HN117347   2.220   6.538  11.088  0.7128  0.5213 -0.8132
  156SAPE   HN217348   2.113   6.424  11.042  0.0855  0.7420  0.6568
  156SAPE   HN317349   2.271   6.419  10.976 -0.6768  0.1963 -1.1038
  156SAPE   C1217350   2.133   6.561  10.893  0.8926  0.3075 -0.1241
  156SAPE  H12A17351   2.204   6.575  10.809  2.0502  1.6018  1.0139
  156SAPE  H12B17352   2.112   6.660  10.938  0.9243 -1.3653  4.0013
  156SAPE   C1117353   2.004   6.483  10.841 -0.8199 -0.4189 -0.6875
  156SAPE  H11A17354   2.037   6.379  10.824  0.5569 -0.1429  0.1215
  156SAPE  H11B17355   1.977   6.527  10.743 -2.0594  2.3285  0.7549
  156SAPE     P17356   1.858   6.368  11.017 -0.2528 -0.2167  0.2084
  156SAPE   O1317357   1.980   6.347  11.093  0.4683 -0.0430 -0.4376
  156SAPE   O1417358   1.735   6.397  11.096 -0.0338  0.9626 -0.1773
  156SAPE   O1217359   1.888   6.492  10.927  1.5757 -0.5143  0.0281
  156SAPE   O1117360   1.818   6.256  10.908 -0.6774 -0.5015 -0.1971
  156SAPE    C117361   1.724   6.284  10.804 -0.0510 -0.5313  0.8210
  156SAPE    HA17362   1.624   6.304  10.849  0.3424  0.9950  1.0795
  156SAPE    HB17363   1.767   6.363  10.739  0.4807 -0.5006  1.2005
  156SAPE    C217364   1.723   6.172  10.692 -1.3047 -0.3630 -0.1541
  156SAPE    HS17365   1.707   6.227  10.597  1.9644  2.3694  0.6904
  156SAPE   O2117366   1.638   6.064  10.717  0.3590  0.3925  0.0752
  156SAPE   C2117367   1.518   6.067  10.658  0.8350 -0.1259  0.5441
  156SAPE   O2217368   1.490   6.133  10.558  0.0599  0.0367 -0.4053
  156SAPE   C2217369   1.420   5.982  10.723  0.1778  0.7930  0.4623
  156SAPE   H2R17370   1.368   6.036  10.805 -0.1545 -0.2033  0.9291
  156SAPE   H2S17371   1.349   5.958  10.641  0.0516 -0.5328  0.9268
  156SAPE    C317372   1.868   6.113  10.671 -0.0070  0.1264  0.3939
  156SAPE    HX17373   1.885   6.042  10.755  0.3798  1.5817  1.5974
  156SAPE    HY17374   1.929   6.206  10.672  0.6074 -0.1213 -2.8871
  156SAPE   O3117375   1.882   6.050  10.542 -0.0208 -0.1469 -0.6882
  156SAPE   C3117376   1.860   5.923  10.528  0.2283 -0.5369 -0.9929
  156SAPE   O3217377   1.825   5.848  10.619 -0.1584  0.5283 -0.0813
  156SAPE   C3217378   1.910   5.879  10.391  0.8611 -0.0101  0.7803
  156SAPE   H2X17379   1.975   5.793  10.418  0.3773 -0.2581  1.1863
  156SAPE   H2Y17380   1.974   5.952  10.338  2.0369 -1.0512  0.7132
  156SAPE   C2317381   1.480   5.854  10.771  0.5050 -0.9277  0.2296
  156SAPE   H3R17382   1.418   5.803  10.848  0.5864 -1.7087 -0.2116
  156SAPE   H3S17383   1.573   5.869  10.829  1.7015 -3.0636 -0.9706
  156SAPE   C2417384   1.529   5.749  10.667 -0.5094 -0.2881 -0.3677
  156SAPE   H4R17385   1.573   5.667  10.727  0.2972 -0.0787 -0.6609
  156SAPE   H4S17386   1.610   5.788  10.602  1.6403  0.2614  2.4931
  156SAPE   C2517387   1.420   5.685  10.585  0.4976  0.4573 -0.6296
  156SAPE   H5R17388   1.374   5.605  10.644  1.2486 -1.0695 -2.0062
  156SAPE   C2617389   1.390   5.696  10.455  0.0313 -0.4888 -0.0836
  156SAPE   H6R17390   1.304   5.635  10.425  0.4493 -1.0965 -0.0673
  156SAPE   C2717391   1.443   5.789  10.349 -0.4678  0.4608 -0.7985
  156SAPE   H7R17392   1.474   5.730  10.261 -0.6595 -0.5220 -0.2162
  156SAPE   H7S17393   1.534   5.842  10.382 -0.1646 -0.2777 -0.4286
  156SAPE   C2817394   1.326   5.874  10.314  0.1762  0.0654  0.6828
  156SAPE   H8R17395   1.290   5.920  10.407  0.5746  0.7423  0.5098
  156SAPE   C2917396   1.274   5.905  10.195  0.3654 -0.3524 -0.1343
  156SAPE   H9R17397   1.205   5.991  10.186  1.6578  0.7897  0.5261
  156SAPE  C21017398   1.329   5.848  10.063  0.2295  0.3897 -0.0128
  156SAPE  H10R17399   1.300   5.741  10.055 -1.8523  0.9730 -1.1036
  156SAPE  H10S17400   1.440   5.851  10.067  0.5543 -2.1226 -2.9666
  156SAPE  C21117401   1.284   5.912   9.935  0.1654 -0.1124  0.7308
  156SAPE  H11R17402   1.215   5.997   9.938  2.6828  2.1440 -0.8282
  156SAPE  C21217403   1.295   5.857   9.817  0.0851  0.4475  0.2955
  156SAPE  H12R17404   1.262   5.905   9.724 -1.2679  0.0402  0.5515
  156SAPE  C21317405   1.367   5.725   9.787  0.4165  0.3978  0.2496
  156SAPE  H13R17406   1.281   5.655   9.778 -0.4234  0.9938  2.7142
  156SAPE  H13S17407   1.422   5.681   9.874  0.0822 -2.7262 -1.0047
  156SAPE  C21417408   1.444   5.711   9.658 -0.5357  0.8926 -0.4829
  156SAPE  H14R17409   1.554   5.715   9.667 -0.1441 -2.7174 -2.0036
  156SAPE  C21517410   1.400   5.675   9.539 -0.0044 -0.5900 -0.0427
  156SAPE  H15R17411   1.485   5.682   9.468  1.6428  0.9365  1.9524
  156SAPE  C21617412   1.253   5.642   9.508 -0.2847 -0.3165  0.1435
  156SAPE  H16R17413   1.182   5.665   9.590  0.4152  2.1962  0.1171
  156SAPE  H16S17414   1.241   5.536   9.475 -0.9172  0.7982 -3.7702
  156SAPE  C21717415   1.199   5.730   9.388 -0.3114 -0.2744  0.7965
  156SAPE  H17R17416   1.225   5.833   9.421  0.7964 -0.4596  0.5515
  156SAPE  H17S17417   1.088   5.735   9.377 -0.3435 -0.2664  1.1106
  156SAPE  C21817418   1.249   5.689   9.247  0.2356  0.1771  0.9416
  156SAPE  H18R17419   1.360   5.688   9.251  0.3651 -2.9447 -0.8239
  156SAPE  H18S17420   1.213   5.772   9.182  1.1456  0.5324  0.8683
  156SAPE  C21917421   1.197   5.555   9.198  0.4221 -0.1001  0.2639
  156SAPE  H19R17422   1.097   5.572   9.152  0.0534  2.9836  1.9728
  156SAPE  H19S17423   1.176   5.494   9.288  0.9606 -0.5620  0.0851
  156SAPE  C22017424   1.299   5.480   9.111 -0.7902  0.0677 -0.1636
  156SAPE  H20R17425   1.308   5.514   9.005  0.0137 -1.0419 -0.4714
  156SAPE  H20S17426   1.286   5.370   9.099  1.7586 -0.2269 -0.6337
  156SAPE  H20T17427   1.396   5.489   9.164 -1.3212  1.1286  0.6701
  156SAPE   C3317428   1.798   5.825  10.297 -0.1572 -0.2910 -0.7916
  156SAPE   H3X17429   1.722   5.900  10.267 -1.8248 -0.5444  2.3888
  156SAPE   H3Y17430   1.737   5.745  10.345  1.2593 -1.7271 -1.2854
  156SAPE   C3417431   1.855   5.762  10.175 -0.2565 -0.0598 -0.4750
  156SAPE   H4X17432   1.907   5.667  10.203 -0.5903  1.0358  4.7638
  156SAPE   H4Y17433   1.933   5.832  10.138  0.2429 -0.2486  0.1934
  156SAPE   C3517434   1.751   5.751  10.058  0.0233 -0.0400  0.6463
  156SAPE   H5X17435   1.732   5.854  10.020 -0.4428 -0.4397 -0.2325
  156SAPE   H5Y17436   1.652   5.718  10.097 -1.6837  2.4550 -1.3020
  156SAPE   C3617437   1.804   5.669   9.938  0.2017  0.2049  0.3876
  156SAPE   H6X17438   1.714   5.650   9.876  0.8018 -2.3658  0.1794
  156SAPE   H6Y17439   1.831   5.565   9.965 -0.5023 -0.6906 -2.1118
  156SAPE   C3717440   1.899   5.751   9.846  0.0849  0.7292 -0.1641
  156SAPE   H7X17441   2.005   5.757   9.878  0.0897 -0.6729  0.1570
  156SAPE   H7Y17442   1.859   5.854   9.835  0.5768  0.9276 -0.1393
  156SAPE   C3817443   1.895   5.708   9.698  0.1704  0.1759 -0.4651
  156SAPE   H8X17444   1.792   5.726   9.659  0.8586  1.7473 -1.6374
  156SAPE   H8Y17445   1.912   5.598   9.701  0.1382  0.1783  1.3397
  156SAPE   C3917446   1.996   5.775   9.610 -0.6868 -0.2236  0.1314
  156SAPE   H9X17447   2.092   5.736   9.650 -1.2722  0.0418  1.8732
  156SAPE   H9Y17448   1.989   5.886   9.611 -1.7736 -0.2717  1.6804
  156SAPE  C31017449   1.971   5.737   9.462 -0.8332 -0.2873  0.3966
  156SAPE  H10X17450   1.877   5.789   9.435 -0.2872  1.7075  2.0608
  156SAPE  H10Y17451   1.951   5.628   9.448 -1.4915 -0.4570  2.3084
  156SAPE  C31117452   2.096   5.759   9.371  0.1614  0.2818 -0.2556
  156SAPE  H11X17453   2.185   5.710   9.416 -0.0852 -0.0533 -0.1277
  156SAPE  H11Y17454   2.118   5.866   9.390 -1.3475  0.2341  2.1989
  156SAPE  C31217455   2.068   5.721   9.225 -0.1761  0.0696  0.1594
  156SAPE  H12X17456   1.973   5.762   9.185 -0.4108 -0.9745 -0.3793
  156SAPE  H12Y17457   2.054   5.611   9.237 -3.3847  0.4049  0.2459
  156SAPE  C31317458   2.187   5.754   9.132 -0.4710  0.6642  0.0653
  156SAPE  H13X17459   2.271   5.687   9.161 -0.3158  0.3382 -1.1190
  156SAPE  H13Y17460   2.215   5.861   9.146  0.0135  0.7786 -1.6198
  156SAPE  C31417461   2.166   5.724   8.984  0.1753  0.0050  0.3951
  156SAPE  H14X17462   2.122   5.622   8.976 -0.2880  0.0811  1.7456
  156SAPE  H14Y17463   2.260   5.738   8.926  0.3915 -0.4691  0.6202
  156SAPE  C31517464   2.059   5.810   8.911 -0.2395  0.3784  0.4489
  156SAPE  H15X17465   2.016   5.886   8.980 -0.6347 -0.2420  0.8969
  156SAPE  H15Y17466   1.975   5.744   8.883  1.0041 -0.7530 -0.7274
  156SAPE  C31617467   2.110   5.870   8.777 -0.2792  0.2200 -0.0257
  156SAPE  H16X17468   2.147   5.796   8.704 -0.3098 -0.2774  0.4613
  156SAPE  H16Y17469   2.184   5.948   8.805 -1.7612  1.3041  1.0702
  156SAPE  C31717470   1.996   5.953   8.715  0.1351  0.3132  0.4074
  156SAPE  H17X17471   1.953   6.021   8.792  2.3417  1.4104  0.7403
  156SAPE  H17Y17472   1.918   5.883   8.677  0.6779  0.0503 -0.2253
  156SAPE  C31817473   2.042   6.028   8.588  0.0887  0.0290  0.1867
  156SAPE  H18X17474   1.949   6.062   8.537 -0.5987 -2.8756 -0.6753
  156SAPE  H18Y17475   2.107   5.961   8.528  0.8128  0.4730  0.4534
  156SAPE  H18Z17476   2.110   6.114   8.605 -1.1678  0.6951  2.1939
  157SAPE     N17477   1.480   6.443  11.110 -0.4869 -0.2066  0.5405
  157SAPE   HN117478   1.507   6.540  11.136  0.3851 -0.2709 -0.0652
  157SAPE   HN217479   1.415   6.402  11.180 -0.0074 -0.3804  0.8845
  157SAPE   HN317480   1.569   6.389  11.106  0.1069  0.7708  0.0326
  157SAPE   C1217481   1.412   6.456  10.971  0.0517 -0.3960 -0.2792
  157SAPE  H12A17482   1.487   6.469  10.890  1.2463 -0.7105  0.7284
  157SAPE  H12B17483   1.339   6.538  10.977 -1.8401 -2.0158 -0.2042
  157SAPE   C1117484   1.342   6.329  10.942 -0.5234  0.1909 -0.2401
  157SAPE  H11A17485   1.409   6.241  10.947 -1.4593 -0.5022  0.3494
  157SAPE  H11B17486   1.314   6.326  10.834  0.8179 -1.6861 -0.5845
  157SAPE     P17487   1.155   6.165  11.042  0.1128 -0.9077 -0.0377
  157SAPE   O1317488   1.242   6.075  11.118 -0.1340  0.4016  0.2973
  157SAPE   O1417489   1.015   6.190  11.083  0.0839 -0.2835 -0.1314
  157SAPE   O1217490   1.232   6.309  11.030 -0.2177  0.7999  0.1351
  157SAPE   O1117491   1.157   6.110  10.897  0.8893  0.0305  0.2240
  157SAPE    C117492   1.063   6.143  10.795  0.6030  0.6923 -0.1077
  157SAPE    HA17493   1.013   6.240  10.813 -3.1337 -0.3919 -3.3109
  157SAPE    HB17494   1.124   6.151  10.702  1.2367 -1.4417  0.0519
  157SAPE    C217495   0.953   6.029  10.763 -0.3420 -0.8443  0.0072
  157SAPE    HS17496   0.917   6.005  10.865 -1.6951  0.6362 -0.0806
  157SAPE   O2117497   1.004   5.922  10.684 -0.3275 -0.3625 -0.1323
  157SAPE   C2117498   0.928   5.815  10.681 -0.8695 -0.4814 -0.0683
  157SAPE   O2217499   0.829   5.806  10.752  0.3371  0.8588 -0.1169
  157SAPE   C2217500   0.971   5.713  10.578  0.2227 -0.3171 -0.3457
  157SAPE   H2R17501   1.046   5.651  10.631  0.1174 -0.1961 -0.0560
  157SAPE   H2S17502   0.879   5.656  10.555  0.7688 -1.2937 -0.1707
  157SAPE    C317503   0.826   6.103  10.705 -0.1291  0.1325 -0.0886
  157SAPE    HX17504   0.800   6.195  10.762 -1.1138 -0.3794  0.2978
  157SAPE    HY17505   0.741   6.033  10.705 -1.4240  1.5208 -2.8422
  157SAPE   O3117506   0.842   6.148  10.572  0.2044 -0.1993 -0.1551
  157SAPE   C3117507   0.765   6.098  10.482 -0.1774 -0.5176  0.8912
  157SAPE   O3217508   0.685   6.012  10.496  0.4760 -0.0301  0.2140
  157SAPE   C3217509   0.769   6.182  10.352  0.0248 -0.4055  0.3889
  157SAPE   H2X17510   0.820   6.278  10.373 -1.0530  0.4793 -0.8295
  157SAPE   H2Y17511   0.664   6.214  10.333 -0.0238 -1.2796 -0.9249
  157SAPE   C2317512   1.030   5.778  10.450  0.0060  0.2315  0.5285
  157SAPE   H3R17513   1.120   5.719  10.422 -0.9554 -0.8021 -0.4263
  157SAPE   H3S17514   1.059   5.883  10.472  0.4407  0.4712 -1.0516
  157SAPE   C2417515   0.925   5.775  10.346 -0.3919 -0.3998 -0.2803
  157SAPE   H4R17516   0.951   5.840  10.260 -2.1613  0.8361  0.0628
  157SAPE   H4S17517   0.841   5.839  10.379  0.0325  0.5882 -1.0535
  157SAPE   C2517518   0.884   5.646  10.288 -0.4624  0.1651  0.0570
  157SAPE   H5R17519   0.886   5.556  10.352 -1.7995 -0.5570 -0.8705
  157SAPE   C2617520   0.852   5.622  10.162 -0.6963  0.0470  1.1557
  157SAPE   H6R17521   0.825   5.518  10.137  1.7546 -0.6232  1.0077
  157SAPE   C2717522   0.849   5.720  10.049  0.2999  0.2256  0.6505
  157SAPE   H7R17523   0.863   5.828  10.072 -1.2042  1.6137 -3.7903
  157SAPE   H7S17524   0.744   5.715  10.012 -0.3507 -0.5279  2.4907
  157SAPE   C2817525   0.954   5.684   9.953 -0.2758  0.4570 -0.2789
  157SAPE   H8R17526   1.054   5.690   9.998  0.5091 -2.2515 -1.4599
  157SAPE   C2917527   0.948   5.640   9.822 -0.3578 -0.0093 -0.7920
  157SAPE   H9R17528   1.046   5.617   9.776  1.0828  1.7937  1.2141
  157SAPE  C21017529   0.821   5.617   9.740  0.1856 -0.4650  0.1548
  157SAPE  H10R17530   0.769   5.707   9.703 -2.1265 -1.6232  0.4364
  157SAPE  H10S17531   0.745   5.574   9.808 -0.4431  1.7286  0.9219
  157SAPE  C21117532   0.851   5.521   9.630  0.0704 -0.0309 -1.0136
  157SAPE  H11R17533   0.899   5.426   9.658  0.7659 -0.0902 -2.3339
  157SAPE  C21217534   0.820   5.536   9.502 -0.2877 -0.1617  0.9388
  157SAPE  H12R17535   0.846   5.458   9.429  0.9573  1.3112 -0.2550
  157SAPE  C21317536   0.746   5.656   9.445  0.4296  0.0153 -0.4585
  157SAPE  H13R17537   0.827   5.722   9.409  1.5945 -0.7493  0.6754
  157SAPE  H13S17538   0.689   5.707   9.526 -0.5739 -2.2318  0.3508
  157SAPE  C21417539   0.637   5.625   9.337 -0.5423  0.3596 -0.7015
  157SAPE  H14R17540   0.555   5.560   9.370 -0.2783 -0.3196 -1.3517
  157SAPE  C21517541   0.621   5.670   9.211  0.8586 -0.9002  0.9637
  157SAPE  H15R17542   0.531   5.632   9.161  0.9108  0.7251 -0.4684
  157SAPE  C21617543   0.713   5.759   9.135 -0.8418  0.1828 -0.9912
  157SAPE  H16R17544   0.800   5.780   9.201 -1.8515  0.8239  0.1670
  157SAPE  H16S17545   0.673   5.862   9.124  1.7770  1.2717 -1.0429
  157SAPE  C21717546   0.755   5.698   8.998  0.3162 -0.1352 -0.5149
  157SAPE  H17R17547   0.788   5.598   9.031  0.8284  0.6509  1.4916
  157SAPE  H17S17548   0.841   5.759   8.962  0.9103  0.7701  2.2135
  157SAPE  C21817549   0.646   5.681   8.893  0.7595  0.1973 -1.1037
  157SAPE  H18R17550   0.581   5.771   8.893 -0.2539 -0.5016  0.4031
  157SAPE  H18S17551   0.580   5.594   8.914  1.6567 -0.5981 -1.4845
  157SAPE  C21917552   0.707   5.664   8.759 -0.0446 -0.6276 -0.2686
  157SAPE  H19R17553   0.628   5.629   8.691 -0.6285  0.8218 -0.3715
  157SAPE  H19S17554   0.784   5.584   8.757  0.6460  0.0378 -1.0650
  157SAPE  C22017555   0.768   5.794   8.706 -0.2143  0.1709 -0.1750
  157SAPE  H20R17556   0.804   5.796   8.600  0.8985 -2.9258  0.0443
  157SAPE  H20S17557   0.831   5.848   8.779 -0.4504  0.8205 -0.4409
  157SAPE  H20T17558   0.684   5.867   8.702 -1.5855 -1.3307  0.1175
  157SAPE   C3317559   0.801   6.102  10.231  0.1266 -0.0320  0.5361
  157SAPE   H3X17560   0.723   6.023  10.231  0.2202 -0.2292 -2.1635
  157SAPE   H3Y17561   0.897   6.047  10.243  1.0132  1.4549  0.4018
  157SAPE   C3417562   0.796   6.171  10.094  0.6081 -0.4612  0.1405
  157SAPE   H4X17563   0.859   6.262  10.099 -0.6927  0.4048  3.3649
  157SAPE   H4Y17564   0.694   6.202  10.060  0.9347  0.5112  0.0114
  157SAPE   C3517565   0.852   6.077   9.986 -0.2068 -0.4529  0.7459
  157SAPE   H5X17566   0.787   5.989   9.972 -1.2841  0.3266  0.7377
  157SAPE   H5Y17567   0.956   6.044  10.009  1.0666  2.0729 -0.9022
  157SAPE   C3617568   0.840   6.152   9.848 -0.2309  0.5018 -0.0407
  157SAPE   H6X17569   0.916   6.234   9.841  0.1404  0.1416 -0.2640
  157SAPE   H6Y17570   0.746   6.211   9.845 -0.9552 -0.3961  2.5998
  157SAPE   C3717571   0.842   6.058   9.725  0.4097 -0.1768 -0.4592
  157SAPE   H7X17572   0.745   6.011   9.753  1.6217 -1.4321  1.9528
  157SAPE   H7Y17573   0.931   5.993   9.736  1.4779  0.4628 -4.0401
  157SAPE   C3817574   0.843   6.123   9.589 -0.2324 -0.2486  0.4944
  157SAPE   H8X17575   0.912   6.210   9.596 -0.3917 -0.1201  0.4568
  157SAPE   H8Y17576   0.739   6.159   9.575 -0.0675  0.3479  0.7738
  157SAPE   C3917577   0.873   6.034   9.470  0.7016 -0.0511 -0.3130
  157SAPE   H9X17578   0.817   5.938   9.469  1.1103 -0.3101  0.6986
  157SAPE   H9Y17579   0.981   6.013   9.484  0.5058  0.5851  2.8424
  157SAPE  C31017580   0.846   6.096   9.335 -0.6354 -0.2847  0.0401
  157SAPE  H10X17581   0.902   6.025   9.270  1.4512  0.5659  0.8084
  157SAPE  H10Y17582   0.905   6.190   9.333 -0.9011 -0.1097  0.3924
  157SAPE  C31117583   0.706   6.105   9.281  0.2178  0.2928 -0.0381
  157SAPE  H11X17584   0.647   6.184   9.333  0.8074  1.5831 -1.2600
  157SAPE  H11Y17585   0.662   6.005   9.303  1.6635 -0.4341 -0.3479
  157SAPE  C31217586   0.703   6.139   9.131 -0.3110  0.5956  0.4354
  157SAPE  H12X17587   0.597   6.128   9.099 -0.1653 -0.0763  0.1627
  157SAPE  H12Y17588   0.766   6.062   9.081  0.2662  0.1731  1.7679
  157SAPE  C31317589   0.764   6.275   9.094 -0.3538 -0.2901  0.2105
  157SAPE  H13X17590   0.863   6.283   9.143  0.9660 -1.6098 -2.0362
  157SAPE  H13Y17591   0.699   6.354   9.137 -1.3416 -1.2916  0.5912
  157SAPE  C31417592   0.784   6.291   8.944 -0.5918 -0.1781  0.2372
  157SAPE  H14X17593   0.840   6.203   8.904 -0.6142 -0.9665  1.8666
  157SAPE  H14Y17594   0.846   6.381   8.923 -0.8016  0.2452  1.3745
  157SAPE  C31517595   0.653   6.310   8.873  0.8536  0.9110 -0.0354
  157SAPE  H15X17596   0.637   6.412   8.834 -1.3998 -0.0713 -1.8764
  157SAPE  H15Y17597   0.572   6.277   8.942  3.3646 -0.9004  2.3073
  157SAPE  C31617598   0.647   6.213   8.751  0.4332 -0.3971  0.1975
  157SAPE  H16X17599   0.548   6.224   8.702  0.8318 -0.2528 -0.6018
  157SAPE  H16Y17600   0.640   6.111   8.795 -0.1020  0.0598  1.2096
  157SAPE  C31717601   0.743   6.236   8.635  0.0415 -0.1101 -0.0678
  157SAPE  H17X17602   0.849   6.241   8.667 -0.1026  0.0391  0.3956
  157SAPE  H17Y17603   0.728   6.329   8.577  0.4543 -0.0227 -0.0397
  157SAPE  C31817604   0.748   6.122   8.538 -0.2846  0.0344  0.2512
  157SAPE  H18X17605   0.647   6.097   8.498 -1.3031  0.3844  2.4874
  157SAPE  H18Y17606   0.795   6.029   8.577 -1.1005  0.0448  1.2821
  157SAPE  H18Z17607   0.813   6.155   8.454  1.3004 -2.8062  0.2402
  158SAPE     N17608   1.491   0.862  11.091  0.7528 -0.4398  0.3677
  158SAPE   HN117609   1.518   0.762  11.077 -0.0438 -0.3327 -2.9151
  158SAPE   HN217610   1.566   0.912  11.143  0.9252  0.8580 -1.0666
  158SAPE   HN317611   1.409   0.877  11.151  2.2155  1.9829  1.9085
  158SAPE   C1217612   1.476   0.924  10.952 -0.4483  0.2406 -0.1142
  158SAPE  H12A17613   1.452   1.032  10.964  3.1280  1.4920 -2.5061
  158SAPE  H12B17614   1.389   0.873  10.906 -0.8534  2.1680 -1.5947
  158SAPE   C1117615   1.610   0.906  10.877  0.9539 -0.8184  0.6598
  158SAPE  H11A17616   1.681   0.984  10.911 -0.7307  1.1225 -0.0231
  158SAPE  H11B17617   1.589   0.912  10.768  0.2570  2.1200  0.8602
  158SAPE     P17618   1.607   0.647  10.854  0.5847 -0.2057 -0.0361
  158SAPE   O1317619   1.713   0.556  10.810 -0.0924 -0.1807  0.3993
  158SAPE   O1417620   1.520   0.602  10.960  0.0426  0.8031 -0.2845
  158SAPE   O1217621   1.675   0.776  10.896 -0.9236 -0.2374 -0.0277
  158SAPE   O1117622   1.523   0.695  10.726 -0.3053  0.2969  0.4530
  158SAPE    C117623   1.402   0.625  10.681 -0.0843 -0.9130 -0.3429
  158SAPE    HA17624   1.406   0.514  10.680 -1.0137 -0.9689  0.0924
  158SAPE    HB17625   1.319   0.663  10.745  0.6194  1.4129 -0.7104
  158SAPE    C217626   1.366   0.675  10.535 -0.1229  0.2968  0.3858
  158SAPE    HS17627   1.259   0.651  10.518 -0.6424  2.2290  0.6842
  158SAPE   O2117628   1.441   0.608  10.439  0.1927 -0.4745 -0.0639
  158SAPE   C2117629   1.411   0.474  10.427 -0.5959  0.8948  0.3275
  158SAPE   O2217630   1.312   0.424  10.473  0.1982 -0.9441 -0.3520
  158SAPE   C2217631   1.517   0.401  10.353 -0.5432  0.1187  0.5328
  158SAPE   H2R17632   1.601   0.473  10.338 -1.4469  0.8685 -1.3241
  158SAPE   H2S17633   1.536   0.303  10.401 -2.1607  0.0093  1.0130
  158SAPE    C317634   1.377   0.831  10.517  0.3467 -0.1026 -0.0158
  158SAPE    HX17635   1.464   0.862  10.578  0.0181 -2.4412  1.7860
  158SAPE    HY17636   1.293   0.878  10.572  1.6106 -1.6409  3.5377
  158SAPE   O3117637   1.381   0.886  10.377 -0.7117  0.0444 -0.2578
  158SAPE   C3117638   1.498   0.863  10.320 -0.3469 -0.6390 -0.2933
  158SAPE   O3217639   1.598   0.819  10.375 -1.0399 -0.0895 -0.4684
  158SAPE   C3217640   1.473   0.887  10.168 -0.1572 -0.5650  0.1253
  158SAPE   H2X17641   1.457   0.997  10.155 -0.9110 -0.4095  2.0404
  158SAPE   H2Y17642   1.376   0.847  10.131 -0.5967  2.1516 -1.9877
  158SAPE   C2317643   1.455   0.369  10.216  0.0777  0.7182 -0.9482
  158SAPE   H3R17644   1.438   0.461  10.156 -1.2261  0.0895 -1.5711
  158SAPE   H3S17645   1.358   0.316  10.224  0.0193  0.2221 -3.8007
  158SAPE   C2417646   1.546   0.270  10.127  0.4446 -0.9547 -0.2559
  158SAPE   H4R17647   1.487   0.244  10.036  1.8405 -1.6768 -0.9899
  158SAPE   H4S17648   1.546   0.179  10.190 -0.7065  0.2178  1.5153
  158SAPE   C2517649   1.676   0.324  10.078  0.2962 -0.1741 -1.3039
  158SAPE   H5R17650   1.751   0.359  10.151  1.4610 -2.1031 -1.4849
  158SAPE   C2617651   1.716   0.329   9.947  0.2817  0.0993 -0.2428
  158SAPE   H6R17652   1.814   0.375   9.924 -0.8713  2.8216 -0.1178
  158SAPE   C2717653   1.636   0.275   9.830  0.0109 -0.6265  0.2835
  158SAPE   H7R17654   1.584   0.179   9.850  0.6286 -0.8449  0.8822
  158SAPE   H7S17655   1.708   0.251   9.749 -2.6484 -0.3266 -2.3336
  158SAPE   C2817656   1.528   0.377   9.786 -0.1862  0.3772  0.1547
  158SAPE   H8R17657   1.452   0.406   9.861  0.1066 -0.2352  0.7010
  158SAPE   C2917658   1.527   0.432   9.665  0.4040  0.2184  0.1103
  158SAPE   H9R17659   1.458   0.516   9.647 -0.3572 -0.6291 -1.0995
  158SAPE  C21017660   1.622   0.407   9.555  0.0481  0.6104 -0.3379
  158SAPE  H10R17661   1.726   0.413   9.595 -0.7852  0.3137  2.0374
  158SAPE  H10S17662   1.627   0.497   9.490  2.7247 -0.4041 -1.7076
  158SAPE  C21117663   1.613   0.277   9.479  0.1607 -0.1894 -0.0560
  158SAPE  H11R17664   1.652   0.198   9.545  2.5250  0.1056 -1.0166
  158SAPE  C21217665   1.569   0.253   9.358  0.0594  0.2395 -0.1274
  158SAPE  H12R17666   1.553   0.148   9.330 -0.0241  0.1046  0.4145
  158SAPE  C21317667   1.529   0.360   9.253  0.6407  0.5492  0.5706
  158SAPE  H13R17668   1.553   0.463   9.288  0.9911  0.6361  0.0805
  158SAPE  H13S17669   1.419   0.353   9.240  0.7865 -3.8008  0.1107
  158SAPE  C21417670   1.592   0.327   9.120  0.2879  0.2187 -0.0781
  158SAPE  H14R17671   1.696   0.296   9.131 -0.0515 -0.8423  0.2227
  158SAPE  C21517672   1.529   0.329   9.002  0.1073  1.1655 -0.3197
  158SAPE  H15R17673   1.597   0.294   8.923  3.9248  3.3998  1.6604
  158SAPE  C21617674   1.382   0.368   8.979  0.2430  0.5435  0.1641
  158SAPE  H16R17675   1.323   0.332   9.066  1.7509 -1.4328  0.4455
  158SAPE  H16S17676   1.335   0.306   8.900 -0.3601 -1.6134  2.1036
  158SAPE  C21717677   1.377   0.525   8.973 -0.1961 -0.0476  0.1857
  158SAPE  H17R17678   1.449   0.551   8.891 -0.6570 -1.0587 -0.5569
  158SAPE  H17S17679   1.413   0.571   9.067  0.8634 -0.2885 -0.0777
  158SAPE  C21817680   1.243   0.590   8.935  0.1531  0.3562  0.2156
  158SAPE  H18R17681   1.177   0.584   9.024  1.2026 -0.0055  0.9902
  158SAPE  H18S17682   1.211   0.534   8.845  0.4381  1.2538 -0.4564
  158SAPE  C21917683   1.259   0.734   8.897 -0.4170  0.2243 -0.0878
  158SAPE  H19R17684   1.341   0.747   8.824 -0.5048  2.2885  0.1051
  158SAPE  H19S17685   1.287   0.784   8.993 -0.1182  0.6143 -0.3734
  158SAPE  C22017686   1.132   0.787   8.828  0.4207 -0.2200  0.2019
  158SAPE  H20R17687   1.127   0.742   8.727  0.5326 -1.9289  0.9314
  158SAPE  H20S17688   1.114   0.897   8.823 -0.3976 -0.3834 -0.6262
  158SAPE  H20T17689   1.052   0.744   8.892  1.1478 -0.5301  0.9256
  158SAPE   C3317690   1.592   0.844  10.076  1.3701  0.3349 -0.0482
  158SAPE   H3X17691   1.599   0.734  10.089  1.7623  0.3455 -0.1419
  158SAPE   H3Y17692   1.687   0.895  10.104  0.2040  1.1228  2.8404
  158SAPE   C3417693   1.572   0.882   9.928 -0.2604 -0.3153  0.1968
  158SAPE   H4X17694   1.594   0.990   9.915  0.8115 -0.7517 -2.2563
  158SAPE   H4Y17695   1.466   0.855   9.909  0.2782 -0.7661 -2.6183
  158SAPE   C3517696   1.664   0.796   9.834 -0.2269 -0.4906 -0.1649
  158SAPE   H5X17697   1.668   0.689   9.861  1.4367 -0.6391 -0.8792
  158SAPE   H5Y17698   1.766   0.840   9.829 -0.1250 -0.6755  0.3057
  158SAPE   C3617699   1.613   0.798   9.682  0.1165 -0.6890 -0.2236
  158SAPE   H6X17700   1.547   0.887   9.673  0.7329 -0.4322 -3.7764
  158SAPE   H6Y17701   1.538   0.720   9.657  1.1899 -1.4020 -1.3907
  158SAPE   C3717702   1.726   0.814   9.575 -0.3553  0.6519 -1.0567
  158SAPE   H7X17703   1.792   0.726   9.589 -0.5489  0.7727  0.8981
  158SAPE   H7Y17704   1.779   0.909   9.597  3.6508 -1.6662  0.3191
  158SAPE   C3817705   1.663   0.821   9.433 -0.4496  0.5002  0.4618
  158SAPE   H8X17706   1.620   0.921   9.407 -2.2411 -0.5820 -0.9648
  158SAPE   H8Y17707   1.579   0.750   9.430  0.8825 -1.0981 -1.9651
  158SAPE   C3917708   1.747   0.769   9.319 -0.0802 -0.1010 -0.0999
  158SAPE   H9X17709   1.786   0.669   9.347 -0.9299 -0.6849 -0.9272
  158SAPE   H9Y17710   1.828   0.840   9.294  0.2400 -0.1141  0.8914
  158SAPE  C31017711   1.666   0.733   9.184  0.0302  1.1299  0.3980
  158SAPE  H10X17712   1.566   0.693   9.211  0.6079  0.6639  1.8914
  158SAPE  H10Y17713   1.720   0.654   9.127  0.9967  1.2694  1.0994
  158SAPE  C31117714   1.653   0.850   9.084  0.3580  0.3129 -0.2098
  158SAPE  H11X17715   1.656   0.949   9.134  1.7203  0.2976 -0.2264
  158SAPE  H11Y17716   1.558   0.833   9.030  0.9735  0.4797 -1.3622
  158SAPE  C31217717   1.759   0.844   8.969 -0.0489 -0.6528  0.0301
  158SAPE  H12X17718   1.864   0.850   9.005  0.2841  2.9924 -1.0823
  158SAPE  H12Y17719   1.763   0.940   8.912 -0.8817 -0.3800  0.4121
  158SAPE  C31317720   1.746   0.736   8.862 -1.0934  0.0154  0.5788
  158SAPE  H13X17721   1.667   0.775   8.794 -2.3568 -0.7990  1.5311
  158SAPE  H13Y17722   1.710   0.637   8.897  1.1259 -1.7957 -1.8231
  158SAPE  C31417723   1.871   0.724   8.774 -0.3971  0.2837  0.1594
  158SAPE  H14X17724   1.947   0.656   8.818  1.3838  0.8254 -1.8815
  158SAPE  H14Y17725   1.926   0.821   8.775 -2.5332  1.5706  0.1884
  158SAPE  C31517726   1.860   0.690   8.624 -0.8552 -0.2368 -0.3493
  158SAPE  H15X17727   1.801   0.770   8.573 -0.0276  0.9172  0.4523
  158SAPE  H15Y17728   1.797   0.599   8.616 -0.9741 -0.2630  0.7387
  158SAPE  C31617729   1.994   0.675   8.552  1.0647  0.1118 -0.0220
  158SAPE  H16X17730   2.068   0.618   8.612 -0.0873  1.4548  2.8631
  158SAPE  H16Y17731   2.049   0.772   8.554  3.3556 -1.1340  0.8833
  158SAPE  C31717732   1.968   0.614   8.418  0.4158 -0.3233  0.6099
  158SAPE  H17X17733   1.889   0.667   8.360  1.8979  1.5403  0.2319
  158SAPE  H17Y17734   1.928   0.512   8.439 -1.3258  0.0860 -0.4596
  158SAPE  C31817735   2.088   0.580   8.322 -0.2178  0.0320  0.1227
  158SAPE  H18X17736   2.117   0.669   8.261  1.7401 -1.7344 -1.6699
  158SAPE  H18Y17737   2.065   0.506   8.243  0.2990  0.0444 -0.0456
  158SAPE  H18Z17738   2.180   0.539   8.369 -0.5622 -0.9823 -0.0691
  159SAPE     N17739   0.010   2.834   6.790  0.2476  0.1051 -0.1110
  159SAPE   HN117740   0.064   2.746   6.772 -0.1311  0.3345 -2.7005
  159SAPE   HN217741   0.037   2.867   6.885 -0.4927  2.0355 -0.5380
  159SAPE   HN317742  -0.092   2.815   6.787  0.2789  0.1084 -1.3345
  159SAPE   C1217743   0.043   2.938   6.684 -0.3259 -0.0585 -0.1599
  159SAPE  H12A17744   0.008   2.905   6.584 -1.3900 -1.4182  0.6300
  159SAPE  H12B17745   0.153   2.952   6.699 -0.5926  1.2519  0.7587
  159SAPE   C1117746  -0.027   3.064   6.729 -0.2193  0.1294  1.0631
  159SAPE  H11A17747   0.001   3.136   6.649  1.1284 -0.6473  0.8083
  159SAPE  H11B17748   0.016   3.104   6.823  0.2922 -0.0755  0.9198
  159SAPE     P17749  -0.261   3.167   6.741  0.4996  0.0977  0.0985
  159SAPE   O1317750  -0.176   3.286   6.722 -0.1037 -0.3260 -0.3001
  159SAPE   O1417751  -0.374   3.147   6.648 -0.0854  0.0944 -0.2050
  159SAPE   O1217752  -0.167   3.044   6.739 -0.5197  0.4547 -0.2438
  159SAPE   O1117753  -0.315   3.178   6.888  0.7146  0.1240 -0.1186
  159SAPE    C117754  -0.284   3.074   6.982 -0.2779  0.0325  0.3822
  159SAPE    HA17755  -0.343   2.981   6.971  0.3708 -0.1174 -3.4851
  159SAPE    HB17756  -0.180   3.037   6.970 -0.0022  0.4665  1.3350
  159SAPE    C217757  -0.288   3.143   7.118  0.6911 -0.3021  0.6828
  159SAPE    HS17758  -0.256   3.072   7.198 -2.6752 -0.9875  1.5847
  159SAPE   O2117759  -0.420   3.200   7.149 -0.0688 -0.1352 -1.1196
  159SAPE   C2117760  -0.494   3.117   7.219  0.0347  0.3487  0.0572
  159SAPE   O2217761  -0.466   2.999   7.242  0.3716  0.4506  0.4391
  159SAPE   C2217762  -0.623   3.180   7.266 -0.0080 -0.6014 -0.2917
  159SAPE   H2R17763  -0.588   3.274   7.314 -0.9154 -1.3665  1.9596
  159SAPE   H2S17764  -0.691   3.198   7.180 -2.3955  1.3420  1.8818
  159SAPE    C317765  -0.182   3.261   7.107  0.1412  0.1646 -0.4680
  159SAPE    HX17766  -0.237   3.342   7.055 -0.3193 -0.4228 -0.9114
  159SAPE    HY17767  -0.094   3.234   7.045  1.9023  1.5745  1.2773
  159SAPE   O3117768  -0.138   3.310   7.236 -0.1909  0.1474 -0.0856
  159SAPE   C3117769  -0.077   3.224   7.302 -0.3570  0.1656 -0.4199
  159SAPE   O3217770  -0.029   3.121   7.258 -0.2199 -0.0277 -0.0273
  159SAPE   C3217771  -0.060   3.269   7.442 -0.3928  0.3764 -0.5126
  159SAPE   H2X17772  -0.043   3.379   7.438  0.3255  0.2998  0.1952
  159SAPE   H2Y17773   0.028   3.216   7.484 -1.3926  0.2709  1.6199
  159SAPE   C2317774  -0.714   3.100   7.358 -0.3509  0.6143  0.0740
  159SAPE   H3R17775  -0.669   3.003   7.389 -0.2220  1.1045  1.4893
  159SAPE   H3S17776  -0.805   3.072   7.300 -1.3584  2.3659  0.7231
  159SAPE   C2417777  -0.762   3.181   7.471 -0.3970  0.3792  0.1970
  159SAPE   H4R17778  -0.853   3.136   7.515 -1.0417  2.8586  1.6181
  159SAPE   H4S17779  -0.796   3.280   7.436  1.0999  1.9977  2.9136
  159SAPE   C2517780  -0.648   3.204   7.572  0.1050 -0.3580  0.1416
  159SAPE   H5R17781  -0.605   3.304   7.557  0.6269 -0.5055  0.6353
  159SAPE   C2617782  -0.622   3.118   7.673  0.4131  0.0508  0.9396
  159SAPE   H6R17783  -0.533   3.148   7.731  1.8629 -2.7138  0.2992
  159SAPE   C2717784  -0.689   2.984   7.714 -0.4220  0.8911 -0.3663
  159SAPE   H7R17785  -0.618   2.934   7.783 -1.5274  0.8201  0.7487
  159SAPE   H7S17786  -0.696   2.910   7.632 -1.5797  0.4929  0.0667
  159SAPE   C2817787  -0.820   3.015   7.776  0.7563  0.0145 -0.4519
  159SAPE   H8R17788  -0.886   3.080   7.716  1.1600  0.2177 -0.6813
  159SAPE   C2917789  -0.862   2.980   7.909 -0.1016  0.6996  0.7751
  159SAPE   H9R17790  -0.958   3.021   7.943 -0.5133  1.8273 -1.5287
  159SAPE  C21017791  -0.786   2.890   8.000 -0.2078  0.5023 -0.1085
  159SAPE  H10R17792  -0.747   2.954   8.083 -1.6840  2.2662 -0.7009
  159SAPE  H10S17793  -0.698   2.832   7.965 -0.0955 -0.9770  2.3576
  159SAPE  C21117794  -0.873   2.782   8.065  1.1152 -0.9038  0.3407
  159SAPE  H11R17795  -0.963   2.749   8.011 -0.6766  0.7882  2.1010
  159SAPE  C21217796  -0.842   2.724   8.176 -0.6349 -0.2149 -0.2864
  159SAPE  H12R17797  -0.910   2.643   8.208 -0.7915 -0.2378 -0.6735
  159SAPE  C21317798  -0.723   2.737   8.264  0.6771  0.7052  1.0086
  159SAPE  H13R17799  -0.641   2.792   8.215  0.6830  1.7718  2.1741
  159SAPE  H13S17800  -0.676   2.637   8.275 -0.6218 -0.1297 -0.4865
  159SAPE  C21417801  -0.747   2.808   8.401  0.3957  0.3375 -0.3734
  159SAPE  H14R17802  -0.756   2.917   8.390  2.1446  0.5315 -0.2239
  159SAPE  C21517803  -0.755   2.763   8.528  0.0692 -0.0842 -0.0247
  159SAPE  H15R17804  -0.764   2.830   8.615  0.4777 -1.0197  0.7554
  159SAPE  C21617805  -0.773   2.616   8.556 -0.4367  0.4442  0.1969
  159SAPE  H16R17806  -0.697   2.585   8.630 -1.1479 -2.9369 -0.3181
  159SAPE  H16S17807  -0.789   2.554   8.465 -3.3429  0.9595  0.2708
  159SAPE  C21717808  -0.905   2.577   8.626  0.2825  0.2464 -0.3782
  159SAPE  H17R17809  -0.906   2.467   8.633 -1.6375  0.2055 -0.6502
  159SAPE  H17S17810  -0.999   2.598   8.571 -0.5104  0.3111  0.9758
  159SAPE  C21817811  -0.915   2.622   8.777  0.8169 -0.5336 -0.4403
  159SAPE  H18R17812  -0.838   2.699   8.798 -0.0573  0.3405 -0.4117
  159SAPE  H18S17813  -0.892   2.526   8.827  2.3768 -0.5505 -1.1169
  159SAPE  C21917814  -1.061   2.660   8.817 -0.0835  0.3289 -0.6416
  159SAPE  H19R17815  -1.108   2.559   8.821  1.5268 -0.4120  1.1611
  159SAPE  H19S17816  -1.110   2.724   8.741  0.4501  0.6292 -0.7334
  159SAPE  C22017817  -1.069   2.725   8.954 -0.1798  0.0325 -0.1935
  159SAPE  H20R17818  -1.098   2.652   9.033  1.3741 -3.1039 -2.3185
  159SAPE  H20S17819  -1.142   2.808   8.940  0.3762  0.5165 -0.2638
  159SAPE  H20T17820  -0.972   2.772   8.980 -0.7187  0.8812  0.3290
  159SAPE   C3317821  -0.184   3.219   7.533 -0.2507 -0.3256 -0.4554
  159SAPE   H3X17822  -0.176   3.109   7.548 -0.9582 -0.2949  0.1953
  159SAPE   H3Y17823  -0.283   3.244   7.489  0.1060 -0.2808 -1.2401
  159SAPE   C3417824  -0.190   3.286   7.677  0.0756 -0.1697 -0.3579
  159SAPE   H4X17825  -0.294   3.277   7.715  0.2021 -2.7429 -0.4752
  159SAPE   H4Y17826  -0.162   3.393   7.661  2.3401 -0.5814  0.4416
  159SAPE   C3517827  -0.104   3.226   7.790  0.2890 -0.3575 -0.3036
  159SAPE   H5X17828   0.006   3.225   7.773  0.1664 -0.7947 -1.1401
  159SAPE   H5Y17829  -0.132   3.119   7.793 -0.2768 -0.2729 -1.7996
  159SAPE   C3617830  -0.137   3.280   7.928 -0.0982 -0.0850  0.2684
  159SAPE   H6X17831  -0.248   3.279   7.935 -0.2018 -0.6800 -1.1350
  159SAPE   H6Y17832  -0.109   3.387   7.940  1.0093 -0.1122 -1.6363
  159SAPE   C3717833  -0.081   3.202   8.047  0.1636  0.1000 -0.1130
  159SAPE   H7X17834   0.021   3.172   8.016 -0.5295 -2.1704 -0.3713
  159SAPE   H7Y17835  -0.139   3.108   8.060  0.8866 -0.1171  1.8142
  159SAPE   C3817836  -0.074   3.289   8.168  0.3168  0.1799 -0.4521
  159SAPE   H8X17837  -0.180   3.296   8.204  0.3637 -2.5345  0.4831
  159SAPE   H8Y17838  -0.028   3.388   8.149  2.5724 -0.6559  0.3033
  159SAPE   C3917839   0.007   3.237   8.287  0.9288  0.6753  0.5479
  159SAPE   H9X17840   0.110   3.221   8.250  0.5134 -0.3261 -0.2249
  159SAPE   H9Y17841  -0.028   3.138   8.324  0.2871  1.0027  0.8477
  159SAPE  C31017842   0.024   3.340   8.403 -0.9707 -0.3882 -0.3080
  159SAPE  H10X17843  -0.067   3.338   8.467 -0.0054 -1.0821  1.1131
  159SAPE  H10Y17844   0.043   3.443   8.367  1.0191 -0.8733 -0.7550
  159SAPE  C31117845   0.149   3.298   8.491 -0.1359 -0.5619 -0.7503
  159SAPE  H11X17846   0.245   3.293   8.436 -0.1924 -1.5793 -0.7667
  159SAPE  H11Y17847   0.117   3.195   8.518 -0.9699 -0.7824 -2.4232
  159SAPE  C31217848   0.164   3.389   8.616  0.3919  0.6367 -0.4823
  159SAPE  H12X17849   0.078   3.374   8.685 -2.2493  2.5853 -3.1282
  159SAPE  H12Y17850   0.156   3.498   8.599 -1.2458  0.9779  2.0124
  159SAPE  C31317851   0.287   3.347   8.703  0.3144 -0.4321 -0.5545
  159SAPE  H13X17852   0.379   3.392   8.662  0.2111  0.4585  0.1615
  159SAPE  H13Y17853   0.301   3.237   8.715  1.9466 -0.3133 -1.1356
  159SAPE  C31417854   0.271   3.411   8.846  0.0482 -0.3661  0.2784
  159SAPE  H14X17855   0.362   3.380   8.901 -0.0352  0.3064  0.8106
  159SAPE  H14Y17856   0.184   3.363   8.895  0.0743  0.2623  0.9466
  159SAPE  C31517857   0.273   3.565   8.863 -0.2853  0.2761 -0.6626
  159SAPE  H15X17858   0.173   3.605   8.834 -1.3809 -1.1850  0.8703
  159SAPE  H15Y17859   0.357   3.608   8.806  0.7349 -1.9214 -0.9162
  159SAPE  C31617860   0.291   3.599   9.012 -0.2660 -0.0074 -0.2993
  159SAPE  H16X17861   0.388   3.559   9.048 -0.7912 -2.0410 -0.9846
  159SAPE  H16Y17862   0.205   3.557   9.068 -1.4499  0.2362 -1.8498
  159SAPE  C31717863   0.289   3.750   9.048  0.0201 -0.0079  0.5569
  159SAPE  H17X17864   0.312   3.759   9.157  2.0599  1.3599  0.0450
  159SAPE  H17Y17865   0.182   3.771   9.025 -0.6157 -2.3083  1.1272
  159SAPE  C31817866   0.386   3.841   8.976  0.1816 -1.0134 -1.0055
  159SAPE  H18X17867   0.491   3.824   9.007  0.5187 -1.0602 -2.1019
  159SAPE  H18Y17868   0.360   3.946   9.002  0.5347 -1.2633  0.4291
  159SAPE  H18Z17869   0.389   3.836   8.865  2.0544 -0.7183 -1.0150
  160SAPE     N17870   5.610   4.336   6.683  0.4098  0.1100  0.8040
  160SAPE   HN117871   5.600   4.432   6.722 -1.3552  1.6240 -2.9275
  160SAPE   HN217872   5.517   4.318   6.640 -0.4468 -1.0046  2.9344
  160SAPE   HN317873   5.631   4.268   6.759  2.5951 -0.7516 -0.4918
  160SAPE   C1217874   5.713   4.344   6.569 -0.1104 -0.1771  0.6822
  160SAPE  H12A17875   5.666   4.395   6.483 -0.7209 -2.4825 -0.4379
  160SAPE  H12B17876   5.720   4.239   6.533  0.4323 -0.7320  2.2968
  160SAPE   C1117877   5.848   4.398   6.604 -0.3162 -0.0596  0.3608
  160SAPE  H11A17878   5.826   4.487   6.666 -4.0547 -1.8018  1.8715
  160SAPE  H11B17879   5.916   4.420   6.520 -0.5925 -2.2793 -0.5141
  160SAPE     P17880   6.038   4.217   6.660  0.1334  0.4799  0.4656
  160SAPE   O1317881   6.038   4.173   6.521  0.7216  0.2742  0.4665
  160SAPE   O1417882   6.157   4.282   6.708  0.0697  0.2001  0.3604
  160SAPE   O1217883   5.905   4.304   6.688 -0.5280  0.3866 -0.3457
  160SAPE   O1117884   6.007   4.099   6.758  0.0226  0.3719  0.3026
  160SAPE    C117885   6.116   4.026   6.810 -0.0603 -0.8537 -0.0286
  160SAPE    HA17886   6.117   3.928   6.758 -0.9372 -1.4693  1.0641
  160SAPE    HB17887   6.216   4.072   6.802  0.0494 -1.0149  0.3625
  160SAPE    C217888   6.120   4.014   6.968 -0.2857  0.7786 -0.2327
  160SAPE    HS17889   6.203   3.951   7.007 -0.4951 -0.4314 -1.6545
  160SAPE   O2117890   5.992   3.966   7.012  0.1495  0.0255 -0.1887
  160SAPE   C2117891   5.967   3.841   6.974 -0.1859  0.2442 -0.5403
  160SAPE   O2217892   6.053   3.770   6.926  0.7828  1.0459  0.5546
  160SAPE   C2217893   5.822   3.804   6.989 -0.5700 -0.2085  0.0591
  160SAPE   H2R17894   5.778   3.836   7.086  1.3154  0.1304  0.8385
  160SAPE   H2S17895   5.762   3.865   6.917  0.4114 -0.3443 -0.9004
  160SAPE    C317896   6.131   4.158   7.026  0.7418 -0.1522  0.0466
  160SAPE    HX17897   6.052   4.208   6.966 -1.0942 -1.2493  1.4123
  160SAPE    HY17898   6.232   4.192   6.996  0.2653 -0.0588 -1.5624
  160SAPE   O3117899   6.111   4.167   7.173 -0.3215  0.0135  0.3385
  160SAPE   C3117900   6.214   4.117   7.238  0.0169 -0.2365 -0.1088
  160SAPE   O3217901   6.309   4.053   7.194 -0.3167 -0.4075  0.0248
  160SAPE   C3217902   6.177   4.138   7.389 -0.5232  0.2002  0.3465
  160SAPE   H2X17903   6.068   4.120   7.404 -0.7976  2.0027  0.7016
  160SAPE   H2Y17904   6.190   4.246   7.413 -1.0572  0.9895 -2.5574
  160SAPE   C2317905   5.795   3.658   6.955 -0.4055 -0.5265  0.1304
  160SAPE   H3R17906   5.851   3.640   6.861  0.3681 -0.4559  0.5771
  160SAPE   H3S17907   5.689   3.648   6.921 -0.3084  0.7340 -0.6095
  160SAPE   C2417908   5.803   3.558   7.077  0.0924  0.1176  0.5145
  160SAPE   H4R17909   5.745   3.466   7.053  1.3522 -0.7001  0.5307
  160SAPE   H4S17910   5.743   3.618   7.148 -1.5117  0.6529 -1.1974
  160SAPE   C2517911   5.935   3.520   7.140 -0.8144 -0.2921 -0.2640
  160SAPE   H5R17912   5.996   3.450   7.081 -0.8544 -1.3387  0.8733
  160SAPE   C2617913   5.981   3.546   7.262  0.2614  0.0257 -0.7310
  160SAPE   H6R17914   6.076   3.499   7.293 -0.9031 -2.4367 -0.6074
  160SAPE   C2717915   5.902   3.624   7.378  0.4456 -0.2221 -0.5835
  160SAPE   H7R17916   5.929   3.597   7.482  3.1169  2.1022 -0.5372
  160SAPE   H7S17917   5.793   3.606   7.368  0.9208 -2.9278 -1.8069
  160SAPE   C2817918   5.947   3.765   7.373 -0.0623 -1.1790  0.2373
  160SAPE   H8R17919   6.035   3.780   7.309 -0.8763  2.0041 -0.3095
  160SAPE   C2917920   5.883   3.864   7.435  0.0514 -0.8637 -0.3310
  160SAPE   H9R17921   5.927   3.964   7.448 -3.1493  1.0963 -2.8738
  160SAPE  C21017922   5.761   3.860   7.521  0.0945  0.1673  0.1418
  160SAPE  H10R17923   5.725   3.756   7.529 -1.1688  0.6393  0.7701
  160SAPE  H10S17924   5.678   3.912   7.469  0.2359  0.2378 -0.0149
  160SAPE  C21117925   5.780   3.927   7.656  0.6972  0.0169  0.5596
  160SAPE  H11R17926   5.730   4.024   7.661 -2.0624 -1.3417  1.5316
  160SAPE  C21217927   5.844   3.879   7.758  0.0093  0.3368  0.2105
  160SAPE  H12R17928   5.859   3.943   7.846  3.0239 -1.3611  1.0853
  160SAPE  C21317929   5.920   3.742   7.766  0.5498 -0.4926 -0.7389
  160SAPE  H13R17930   5.993   3.759   7.848  1.3172 -1.1529 -1.2625
  160SAPE  H13S17931   5.986   3.727   7.678  0.1916 -0.7091 -0.9726
  160SAPE  C21417932   5.826   3.626   7.771 -1.0271  0.6375  0.3689
  160SAPE  H14R17933   5.720   3.653   7.759 -1.0190  0.8897  0.8382
  160SAPE  C21517934   5.856   3.496   7.788  0.4654 -0.2712 -0.8193
  160SAPE  H15R17935   5.774   3.423   7.792 -1.3190  1.6866  1.2064
  160SAPE  C21617936   5.993   3.454   7.828 -0.1380  0.1392  0.5843
  160SAPE  H16R17937   6.057   3.534   7.871  3.2808 -1.2858 -1.4609
  160SAPE  H16S17938   6.052   3.413   7.744  1.0612  0.8491  1.0510
  160SAPE  C21717939   6.000   3.341   7.936 -0.1210 -0.1045 -0.4450
  160SAPE  H17R17940   5.940   3.250   7.915  0.1542 -0.4315  0.1971
  160SAPE  H17S17941   5.945   3.377   8.026  1.5202  0.4268  0.3892
  160SAPE  C21817942   6.139   3.315   7.982 -0.2345  0.1119 -0.3208
  160SAPE  H18R17943   6.190   3.412   7.997 -1.4510  0.4823  1.9264
  160SAPE  H18S17944   6.169   3.250   7.897  0.9434  1.5863 -1.0678
  160SAPE  C21917945   6.158   3.229   8.111  0.1509  0.2872 -0.2811
  160SAPE  H19R17946   6.253   3.172   8.099  0.3985  0.5989  0.1669
  160SAPE  H19S17947   6.073   3.158   8.114  1.8390 -2.1046 -3.1474
  160SAPE  C22017948   6.143   3.302   8.244  1.0175 -0.8542  0.0191
  160SAPE  H20R17949   6.144   3.230   8.329 -0.0385  0.5653  1.2772
  160SAPE  H20S17950   6.050   3.362   8.240  1.0197 -0.8676 -0.2239
  160SAPE  H20T17951   6.229   3.371   8.255  0.7061 -0.7360  2.0447
  160SAPE   C3317952   6.267   4.047   7.469 -0.4031  0.8104  0.2420
  160SAPE   H3X17953   6.373   4.081   7.463 -0.1861  0.2971  1.0689
  160SAPE   H3Y17954   6.258   3.944   7.430  0.1442  1.1175 -0.7351
  160SAPE   C3417955   6.229   4.046   7.620 -0.0717 -0.2138  0.2428
  160SAPE   H4X17956   6.316   4.000   7.672 -0.4856 -0.2659  0.8884
  160SAPE   H4Y17957   6.153   3.970   7.646  1.8504 -1.5924  2.2308
  160SAPE   C3517958   6.185   4.182   7.679 -0.1994  0.2806 -0.5985
  160SAPE   H5X17959   6.076   4.189   7.660 -0.0350  1.9561 -1.0394
  160SAPE   H5Y17960   6.233   4.267   7.625 -1.5595  2.4194  1.3830
  160SAPE   C3617961   6.208   4.184   7.833 -0.1520 -0.3632 -0.5602
  160SAPE   H6X17962   6.187   4.285   7.873 -1.3116 -0.7820 -0.0789
  160SAPE   H6Y17963   6.311   4.154   7.863 -0.4290 -1.0776 -0.2915
  160SAPE   C3717964   6.103   4.096   7.912  0.7421 -0.2210  0.5515
  160SAPE   H7X17965   6.135   3.993   7.888  2.3185  0.4180 -0.2999
  160SAPE   H7Y17966   6.004   4.119   7.868  0.8558 -2.5618 -1.0829
  160SAPE   C3817967   6.103   4.121   8.066  0.2452  0.3277 -0.0164
  160SAPE   H8X17968   6.002   4.088   8.096  1.0597 -1.0193  1.3560
  160SAPE   H8Y17969   6.107   4.232   8.073 -2.6786  0.5048  0.0671
  160SAPE   C3917970   6.200   4.042   8.144 -0.4274 -0.0882 -0.6845
  160SAPE   H9X17971   6.306   4.075   8.142 -0.5725  0.4135 -0.2447
  160SAPE   H9Y17972   6.198   3.939   8.103  0.2422 -0.0182 -0.9106
  160SAPE  C31017973   6.165   4.034   8.296  0.2947 -0.2629 -0.8965
  160SAPE  H10X17974   6.164   4.134   8.343  0.6027 -0.7473  0.1717
  160SAPE  H10Y17975   6.239   3.977   8.356 -0.2890  1.2757  1.3930
  160SAPE  C31117976   6.029   3.963   8.334  1.1663  0.3099  0.5078
  160SAPE  H11X17977   6.041   3.853   8.326  2.4923  0.5543 -1.7735
  160SAPE  H11Y17978   5.955   3.989   8.255  0.3748  2.7928  1.9619
  160SAPE  C31217979   5.961   3.992   8.467  0.0047  0.3578  0.1298
  160SAPE  H12X17980   5.860   3.946   8.457  0.0342  0.0283  1.2627
  160SAPE  H12Y17981   5.943   4.101   8.475 -2.3579 -0.0505  1.2318
  160SAPE  C31317982   6.030   3.926   8.584 -0.8557 -0.2488  0.3438
  160SAPE  H13X17983   6.133   3.965   8.597 -0.2504 -1.5870 -0.3190
  160SAPE  H13Y17984   6.047   3.818   8.570  3.8457  0.3402 -0.2790
  160SAPE  C31417985   5.953   3.943   8.712 -0.6404 -0.7205 -0.4385
  160SAPE  H14X17986   5.850   3.974   8.685 -1.5730 -3.1121  0.1669
  160SAPE  H14Y17987   6.005   4.018   8.776 -0.9507  0.1126 -1.1488
  160SAPE  C31517988   5.928   3.809   8.789  0.5904 -1.4288  0.3111
  160SAPE  H15X17989   6.026   3.756   8.797  0.9864 -0.8473 -0.4661
  160SAPE  H15Y17990   5.861   3.749   8.725  0.8920 -0.0633 -1.3841
  160SAPE  C31617991   5.866   3.838   8.919  0.8586  0.2774 -0.2118
  160SAPE  H16X17992   5.793   3.920   8.902  1.2766  0.4085 -1.4195
  160SAPE  H16Y17993   5.949   3.867   8.988  2.0296 -2.1101 -0.4990
  160SAPE  C31717994   5.801   3.712   8.984  0.1237 -0.1517 -0.2308
  160SAPE  H17X17995   5.796   3.732   9.093  0.5121 -1.1812 -0.0218
  160SAPE  H17Y17996   5.864   3.622   8.973  0.5452  0.1667 -0.4936
  160SAPE  C31817997   5.653   3.696   8.930  0.8353 -0.4371 -0.3497
  160SAPE  H18X17998   5.621   3.597   8.967 -0.9737 -0.4239 -1.7805
  160SAPE  H18Y17999   5.643   3.715   8.821 -0.2530  2.6311  0.1623
  160SAPE  H18Z18000   5.589   3.771   8.982  1.0130 -2.0511  2.4072
  161SAPE     N18001   1.119   3.243   6.583 -0.7931 -0.1295  0.0026
  161SAPE   HN118002   1.203   3.259   6.523 -0.9328 -1.1327 -0.4721
  161SAPE   HN218003   1.110   3.331   6.639  3.3861  0.6170 -0.1487
  161SAPE   HN318004   1.136   3.159   6.642  2.0893 -0.4527 -1.1327
  161SAPE   C1218005   0.999   3.228   6.488 -0.6218  0.0968  0.6353
  161SAPE  H12A18006   1.010   3.136   6.427 -0.7005 -0.2587  1.1461
  161SAPE  H12B18007   0.998   3.314   6.418 -0.9226 -0.2575  0.2051
  161SAPE   C1118008   0.872   3.222   6.575 -0.1661 -0.2771 -0.7517
  161SAPE  H11A18009   0.876   3.132   6.640  2.4608 -0.6244 -1.2917
  161SAPE  H11B18010   0.783   3.217   6.508  0.0020  1.4143 -1.1449
  161SAPE     P18011   0.735   3.419   6.688  0.3157  0.3860 -0.2823
  161SAPE   O1318012   0.728   3.528   6.590  0.8970 -0.0240 -0.5271
  161SAPE   O1418013   0.620   3.326   6.685  0.0336  0.5607  0.5114
  161SAPE   O1218014   0.865   3.338   6.665  0.1024 -0.2491 -0.1933
  161SAPE   O1118015   0.751   3.480   6.836  0.4719  0.2461 -0.4944
  161SAPE    C118016   0.872   3.448   6.901  0.1012  0.6662  0.8048
  161SAPE    HA18017   0.887   3.338   6.912 -0.7084  0.5402  0.7578
  161SAPE    HB18018   0.961   3.473   6.840 -0.2268 -2.1947 -1.0826
  161SAPE    C218019   0.892   3.515   7.040 -0.0092 -0.0584 -0.2053
  161SAPE    HS18020   0.984   3.477   7.090  1.6849 -0.1760 -3.1993
  161SAPE   O2118021   0.777   3.478   7.118 -0.1674  0.3533 -0.3483
  161SAPE   C2118022   0.792   3.470   7.253 -0.0547 -0.4731 -0.7067
  161SAPE   O2218023   0.903   3.485   7.307  0.1086  0.1619  0.4898
  161SAPE   C2218024   0.660   3.441   7.313 -0.1305  0.1497  0.3647
  161SAPE   H2R18025   0.652   3.496   7.409  0.9439 -0.4476  0.8194
  161SAPE   H2S18026   0.579   3.467   7.241  1.4402 -0.6570 -1.8006
  161SAPE    C318027   0.908   3.670   7.024  0.5125 -0.0191 -0.3529
  161SAPE    HX18028   0.815   3.693   6.968  0.0484  1.6505  1.0007
  161SAPE    HY18029   0.991   3.713   6.964  1.2801 -0.1066  0.6205
  161SAPE   O3118030   0.903   3.743   7.149  0.6657 -0.2718  0.2864
  161SAPE   C3118031   1.029   3.755   7.202 -0.2571 -0.4228 -0.0334
  161SAPE   O3218032   1.131   3.701   7.153 -0.2081 -0.2694 -0.2209
  161SAPE   C3218033   1.029   3.844   7.319 -0.4952  0.1854  0.8670
  161SAPE   H2X18034   0.952   3.924   7.318 -1.0632 -0.3615 -0.2008
  161SAPE   H2Y18035   1.125   3.899   7.326  0.0627 -0.4094 -1.2149
  161SAPE   C2318036   0.640   3.283   7.339  0.0739 -0.6841  0.6945
  161SAPE   H3R18037   0.723   3.242   7.400  0.2409 -0.0084  0.9275
  161SAPE   H3S18038   0.637   3.219   7.248 -2.0064 -1.3417  1.1574
  161SAPE   C2418039   0.507   3.252   7.415 -0.6902 -0.8190 -0.2557
  161SAPE   H4R18040   0.511   3.144   7.438 -0.7149 -0.8737 -0.5079
  161SAPE   H4S18041   0.423   3.270   7.344 -0.4876  1.8768  0.0775
  161SAPE   C2518042   0.498   3.324   7.547 -0.0528 -0.5204 -0.2728
  161SAPE   H5R18043   0.590   3.323   7.608  0.1849  1.4084 -0.5259
  161SAPE   C2618044   0.388   3.389   7.591 -0.2112  0.0861  0.9622
  161SAPE   H6R18045   0.389   3.425   7.695  2.1072 -3.1753  2.2489
  161SAPE   C2718046   0.250   3.410   7.527 -0.0562  0.3783 -1.0048
  161SAPE   H7R18047   0.171   3.390   7.602 -2.6572  3.6491 -2.5364
  161SAPE   H7S18048   0.238   3.333   7.447 -0.6549  1.0539 -1.5892
  161SAPE   C2818049   0.232   3.542   7.462 -0.1891 -0.6413 -0.2767
  161SAPE   H8R18050   0.259   3.556   7.356 -0.9695  0.7637 -0.3114
  161SAPE   C2918051   0.184   3.649   7.527 -0.6812  0.0963 -0.0738
  161SAPE   H9R18052   0.156   3.738   7.468 -1.7213  0.6509  1.2159
  161SAPE  C21018053   0.128   3.652   7.666  0.2666 -0.3570 -0.4082
  161SAPE  H10R18054   0.074   3.558   7.694  0.8609 -1.4080 -2.5880
  161SAPE  H10S18055   0.041   3.721   7.669 -0.1211 -0.8560  0.3235
  161SAPE  C21118056   0.219   3.704   7.780  0.4425 -0.3068  0.0504
  161SAPE  H11R18057   0.273   3.796   7.751  1.1201 -0.6671  0.1435
  161SAPE  C21218058   0.237   3.655   7.904 -0.3153 -0.4385  0.1154
  161SAPE  H12R18059   0.303   3.710   7.972 -0.2724  0.4374 -0.6104
  161SAPE  C21318060   0.165   3.532   7.955 -0.1870  0.1000 -0.2806
  161SAPE  H13R18061   0.074   3.511   7.894 -1.2354 -0.9414  1.5613
  161SAPE  H13S18062   0.125   3.538   8.058  0.1065 -2.0182 -0.0003
  161SAPE  C21418063   0.253   3.413   7.969  0.6850 -0.6007  0.0406
  161SAPE  H14R18064   0.270   3.357   7.876 -0.3142  1.8401 -1.7173
  161SAPE  C21518065   0.324   3.380   8.077 -0.1106  0.4796  0.8158
  161SAPE  H15R18066   0.387   3.290   8.076 -1.0812 -0.2268  1.2017
  161SAPE  C21618067   0.336   3.461   8.208  0.3225  0.7211 -0.1413
  161SAPE  H16R18068   0.348   3.383   8.286  0.7750  2.5950  1.7417
  161SAPE  H16S18069   0.241   3.513   8.229 -1.1879 -1.5505 -0.9667
  161SAPE  C21718070   0.464   3.550   8.225 -0.1210  0.2229 -0.1619
  161SAPE  H17R18071   0.483   3.615   8.138  2.3935 -0.3128 -0.0882
  161SAPE  H17S18072   0.546   3.475   8.216 -1.9796 -1.6461 -3.1766
  161SAPE  C21818073   0.457   3.629   8.356 -0.4113  0.3173 -1.0756
  161SAPE  H18R18074   0.388   3.573   8.423  1.1420 -0.4921 -0.1044
  161SAPE  H18S18075   0.413   3.730   8.337  1.5498  1.3540 -0.3061
  161SAPE  C21918076   0.592   3.632   8.432 -0.1793 -0.3833 -0.5276
  161SAPE  H19R18077   0.672   3.664   8.362  1.8533 -0.2755  1.7010
  161SAPE  H19S18078   0.609   3.525   8.458  0.1761  0.1605  1.6690
  161SAPE  C22018079   0.584   3.720   8.555 -0.2163  0.1918 -0.5321
  161SAPE  H20R18080   0.504   3.671   8.614  0.6420 -1.5309 -0.7395
  161SAPE  H20S18081   0.543   3.818   8.523  1.2695  0.4973 -1.6198
  161SAPE  H20T18082   0.676   3.721   8.617  0.3985 -0.0269 -1.4111
  161SAPE   C3318083   0.998   3.766   7.448  0.1126  0.2849  0.1292
  161SAPE   H3X18084   1.046   3.666   7.460  1.3019  1.0038  1.6327
  161SAPE   H3Y18085   0.891   3.734   7.451  0.6568 -1.6700  0.8757
  161SAPE   C3418086   1.018   3.853   7.578 -0.4290 -0.2085  0.3697
  161SAPE   H4X18087   0.939   3.930   7.569 -0.7919 -0.5647  0.4457
  161SAPE   H4Y18088   1.113   3.906   7.600 -0.4024 -0.4687  0.8934
  161SAPE   C3518089   0.999   3.783   7.714  0.2268  0.3787 -0.1558
  161SAPE   H5X18090   1.075   3.702   7.704 -0.7921 -0.3382 -3.0707
  161SAPE   H5Y18091   0.899   3.735   7.719 -1.1115  2.8197 -1.6560
  161SAPE   C3618092   1.026   3.863   7.839  0.2267  0.0889  0.6612
  161SAPE   H6X18093   0.988   3.966   7.855  1.9167  0.9580 -0.6240
  161SAPE   H6Y18094   1.135   3.868   7.860  0.1194 -0.3933  1.3830
  161SAPE   C3718095   0.961   3.793   7.961  0.6612 -0.2907  0.2330
  161SAPE   H7X18096   0.997   3.688   7.969 -0.6181 -0.6179  2.9589
  161SAPE   H7Y18097   0.851   3.781   7.965  0.7431 -1.2917  3.9462
  161SAPE   C3818098   1.011   3.852   8.095  0.1123 -0.5934  0.5079
  161SAPE   H8X18099   0.962   3.951   8.110  1.6767  0.3667 -0.3541
  161SAPE   H8Y18100   1.120   3.877   8.089  0.2123 -0.3235  2.5871
  161SAPE   C3918101   0.989   3.763   8.215 -0.4118  0.4048  0.8426
  161SAPE   H9X18102   1.058   3.677   8.204 -0.6668  0.4453 -1.4692
  161SAPE   H9Y18103   0.884   3.728   8.214 -0.2552 -0.0743 -0.9135
  161SAPE  C31018104   1.021   3.833   8.343 -0.4577  0.6541  0.2799
  161SAPE  H10X18105   0.985   3.938   8.345 -1.7489  0.2946 -1.2493
  161SAPE  H10Y18106   1.132   3.832   8.351 -0.5497  0.4894  1.7809
  161SAPE  C31118107   0.978   3.772   8.476  0.3593  0.4865 -0.1111
  161SAPE  H11X18108   1.021   3.671   8.490 -2.0937 -0.5926  0.1579
  161SAPE  H11Y18109   0.869   3.753   8.463  0.8805 -2.8763 -0.4509
  161SAPE  C31218110   1.009   3.857   8.594  0.7943  0.3732 -0.1505
  161SAPE  H12X18111   0.950   3.951   8.580 -0.1399 -0.3748 -1.4489
  161SAPE  H12Y18112   1.117   3.881   8.606  0.9734 -0.2968 -0.3706
  161SAPE  C31318113   0.961   3.783   8.725 -0.7636 -0.2616 -0.3463
  161SAPE  H13X18114   1.023   3.691   8.729  1.8556  1.4035 -0.4455
  161SAPE  H13Y18115   0.854   3.751   8.720 -0.7419 -0.9397  2.3764
  161SAPE  C31418116   0.993   3.874   8.847  1.0884  0.5123 -0.2475
  161SAPE  H14X18117   0.919   3.956   8.840 -0.9134 -1.3352 -1.7520
  161SAPE  H14Y18118   1.100   3.898   8.831  1.5732 -2.1855 -1.5867
  161SAPE  C31518119   0.972   3.807   8.987  0.3780  0.3103  0.4342
  161SAPE  H15X18120   0.875   3.752   8.991  0.9436 -0.7250  0.4152
  161SAPE  H15Y18121   0.969   3.876   9.074 -0.3639  0.7152  0.0981
  161SAPE  C31618122   1.078   3.698   9.022  0.9113  1.1701  0.5334
  161SAPE  H16X18123   1.182   3.729   9.001  0.8649  0.9213 -0.0900
  161SAPE  H16Y18124   1.059   3.608   8.960 -2.3392 -0.2759  3.3359
  161SAPE  C31718125   1.063   3.654   9.168 -1.0578  0.0533  0.3341
  161SAPE  H17X18126   0.988   3.573   9.185  0.7833 -1.9332 -0.5290
  161SAPE  H17Y18127   1.030   3.744   9.224  1.8877  1.4254  0.0250
  161SAPE  C31818128   1.193   3.592   9.219  0.0933 -0.3909  0.0303
  161SAPE  H18X18129   1.262   3.679   9.225 -1.3892  0.7792  0.9318
  161SAPE  H18Y18130   1.234   3.512   9.155 -0.2640  0.6342 -1.5281
  161SAPE  H18Z18131   1.174   3.547   9.319  1.1101  0.9250  0.8662
  162SAPE     N18132   0.040   6.475   6.173  0.0352 -0.1409 -0.0745
  162SAPE   HN118133   0.069   6.396   6.112  1.1141 -0.8166  1.2624
  162SAPE   HN218134   0.022   6.568   6.129  2.9542 -0.2689 -1.8532
  162SAPE   HN318135   0.124   6.479   6.235 -1.2403  1.8579  1.6344
  162SAPE   C1218136  -0.073   6.426   6.253 -0.6559  0.6976  0.4196
  162SAPE  H12A18137  -0.140   6.395   6.170  1.0475 -1.2654 -0.2939
  162SAPE  H12B18138  -0.112   6.519   6.300  2.4678  1.3660  1.9512
  162SAPE   C1118139  -0.026   6.310   6.337 -0.5626 -0.2249  0.3633
  162SAPE  H11A18140   0.008   6.219   6.284 -0.6261 -2.6706  4.1231
  162SAPE  H11B18141  -0.119   6.266   6.380 -0.4235  0.9543  2.0021
  162SAPE     P18142   0.206   6.374   6.457  0.0613 -0.0744 -0.5413
  162SAPE   O1318143   0.287   6.252   6.476  0.0682 -0.1926  0.3438
  162SAPE   O1418144   0.239   6.456   6.335 -0.3666  0.2342 -0.4441
  162SAPE   O1218145   0.053   6.345   6.454 -0.1509  0.0795  0.1034
  162SAPE   O1118146   0.227   6.463   6.580  0.1063  0.8453  0.1230
  162SAPE    C118147   0.152   6.444   6.701 -0.0054 -0.2426  0.6774
  162SAPE    HA18148   0.092   6.537   6.700  2.1388  1.2260 -0.5951
  162SAPE    HB18149   0.093   6.350   6.704  1.2349 -1.1216 -0.6403
  162SAPE    C218150   0.247   6.421   6.815  0.4754  0.3055 -0.2268
  162SAPE    HS18151   0.321   6.503   6.807  0.9195 -0.2920 -3.4563
  162SAPE   O2118152   0.306   6.291   6.800  0.0866 -0.0975  0.0645
  162SAPE   C2118153   0.424   6.284   6.744  0.3710  0.5366  0.9549
  162SAPE   O2218154   0.489   6.375   6.695  0.3194 -0.5727  0.9513
  162SAPE   C2218155   0.478   6.140   6.757  0.3711 -0.4100 -0.3050
  162SAPE   H2R18156   0.402   6.086   6.817 -0.4123 -1.7033 -2.3445
  162SAPE   H2S18157   0.492   6.095   6.656  1.2441 -0.8185 -0.0173
  162SAPE    C318158   0.177   6.436   6.951  0.2265 -0.2464  0.2012
  162SAPE    HX18159   0.103   6.354   6.946  1.1228 -1.0006 -2.0209
  162SAPE    HY18160   0.130   6.534   6.971 -1.4680 -1.3369  1.8639
  162SAPE   O3118161   0.271   6.403   7.060  0.1778 -0.6408 -0.0179
  162SAPE   C3118162   0.370   6.485   7.078 -0.0215  0.2674  0.5048
  162SAPE   O3218163   0.389   6.591   7.016  0.1959  0.5088  0.6348
  162SAPE   C3218164   0.472   6.434   7.185  0.0659  0.0284  0.4515
  162SAPE   H2X18165   0.470   6.323   7.189  2.1341 -0.1318 -1.2149
  162SAPE   H2Y18166   0.434   6.468   7.284 -2.7207 -0.8402 -0.2232
  162SAPE   C2318167   0.621   6.135   6.820  0.7162 -0.4477  0.4486
  162SAPE   H3R18168   0.682   6.182   6.740 -0.1144  0.1070  0.1289
  162SAPE   H3S18169   0.662   6.032   6.810  0.4132 -0.8707  2.9958
  162SAPE   C2418170   0.645   6.196   6.962  0.3418 -0.0636 -0.0470
  162SAPE   H4R18171   0.598   6.297   6.959  0.3427 -0.0667 -0.1677
  162SAPE   H4S18172   0.754   6.205   6.980  0.1132 -1.0210  2.1172
  162SAPE   C2518173   0.588   6.095   7.060  0.1460 -0.1197 -0.8214
  162SAPE   H5R18174   0.511   6.035   7.008 -0.2103 -1.3811  1.0641
  162SAPE   C2618175   0.644   6.058   7.181 -0.3257  0.3104  0.1241
  162SAPE   H6R18176   0.605   5.971   7.238  1.4354  0.5376  1.7722
  162SAPE   C2718177   0.766   6.119   7.241  0.2630 -0.4699  0.0215
  162SAPE   H7R18178   0.759   6.230   7.239 -0.2871 -0.5126 -0.4341
  162SAPE   H7S18179   0.849   6.101   7.170 -0.4652 -0.2598 -0.9021
  162SAPE   C2818180   0.807   6.070   7.384  0.2159  0.6042  0.4422
  162SAPE   H8R18181   0.882   5.990   7.386 -1.9029 -1.6668 -2.3717
  162SAPE   C2918182   0.759   6.122   7.496  0.3463  0.7412  0.4311
  162SAPE   H9R18183   0.780   6.078   7.595  1.8357  0.7039  0.1279
  162SAPE  C21018184   0.663   6.244   7.504  0.0321 -0.8733 -0.5724
  162SAPE  H10R18185   0.666   6.313   7.418  0.9403  0.4305  0.4601
  162SAPE  H10S18186   0.698   6.306   7.589 -1.0958 -0.9657 -0.0175
  162SAPE  C21118187   0.516   6.218   7.541 -0.7015  0.3261 -0.2593
  162SAPE  H11R18188   0.481   6.126   7.491  1.3501  1.4708 -4.2388
  162SAPE  C21218189   0.435   6.280   7.624  0.6637 -1.3471 -0.0676
  162SAPE  H12R18190   0.329   6.251   7.628  0.2747  0.0245  0.2618
  162SAPE  C21318191   0.466   6.399   7.706  0.3191 -0.2906 -0.6735
  162SAPE  H13R18192   0.500   6.471   7.629 -1.1732 -0.8152 -1.8830
  162SAPE  H13S18193   0.554   6.366   7.765 -0.7906 -1.1122  0.5953
  162SAPE  C21418194   0.360   6.462   7.793  0.2983  0.2644 -0.1010
  162SAPE  H14R18195   0.272   6.502   7.740  1.6983 -0.2038 -2.9743
  162SAPE  C21518196   0.357   6.473   7.932 -0.0260  0.3522  0.2500
  162SAPE  H15R18197   0.280   6.533   7.983  0.5464 -1.0993  3.0343
  162SAPE  C21618198   0.466   6.415   8.023  0.0264  0.2672 -0.1768
  162SAPE  H16R18199   0.536   6.498   8.048 -1.6128  2.9775 -3.6375
  162SAPE  H16S18200   0.518   6.332   7.972 -0.3182  0.1173 -0.2926
  162SAPE  C21718201   0.406   6.360   8.147  0.7330 -0.1210 -1.1526
  162SAPE  H17R18202   0.479   6.291   8.195 -1.8747 -2.5821 -0.4404
  162SAPE  H17S18203   0.329   6.283   8.126  0.5228 -0.1753 -0.2075
  162SAPE  C21818204   0.366   6.457   8.260 -0.7800  0.0534  0.1331
  162SAPE  H18R18205   0.291   6.534   8.231 -1.7047  0.4673  3.2173
  162SAPE  H18S18206   0.454   6.515   8.296 -1.3011  0.5029  0.7080
  162SAPE  C21918207   0.320   6.388   8.385  0.0542 -0.3148 -0.1471
  162SAPE  H19R18208   0.395   6.313   8.417 -0.1674 -0.5737 -0.2313
  162SAPE  H19S18209   0.230   6.330   8.352  0.7652 -1.7998  0.4621
  162SAPE  C22018210   0.289   6.492   8.491  0.0881  0.2999  0.7148
  162SAPE  H20R18211   0.250   6.447   8.584  2.0800 -0.0674  1.4363
  162SAPE  H20S18212   0.209   6.563   8.462 -0.0530 -0.0481  0.2321
  162SAPE  H20T18213   0.373   6.543   8.542 -1.5343  2.9728  0.8484
  162SAPE   C3318214   0.620   6.478   7.156  0.7948 -0.1067 -0.6907
  162SAPE   H3X18215   0.674   6.425   7.075 -0.6350 -1.9194 -0.5178
  162SAPE   H3Y18216   0.678   6.441   7.243 -0.2652  0.2787  0.1899
  162SAPE   C3418217   0.652   6.629   7.172 -0.4680 -0.3032 -1.0133
  162SAPE   H4X18218   0.570   6.693   7.134 -2.8813 -2.9198 -0.5783
  162SAPE   H4Y18219   0.752   6.641   7.124  0.1396 -1.5069 -0.1153
  162SAPE   C3518220   0.677   6.660   7.322 -0.3583  0.0779 -0.5640
  162SAPE   H5X18221   0.755   6.590   7.358 -1.0316 -0.1465  0.5288
  162SAPE   H5Y18222   0.581   6.635   7.372  0.2233 -0.2422  0.4139
  162SAPE   C3618223   0.718   6.804   7.358 -0.3344  0.1737 -0.3667
  162SAPE   H6X18224   0.626   6.864   7.342  0.2652  1.6406  1.3752
  162SAPE   H6Y18225   0.803   6.833   7.292  2.6876 -2.1772  2.1781
  162SAPE   C3718226   0.758   6.831   7.505 -0.2306  0.5924  0.6292
  162SAPE   H7X18227   0.788   6.933   7.540 -1.5799  1.4094 -0.4930
  162SAPE   H7Y18228   0.849   6.769   7.522 -0.9396 -0.3402  1.0751
  162SAPE   C3818229   0.646   6.797   7.601 -0.1120 -0.4891  0.8945
  162SAPE   H8X18230   0.624   6.690   7.587 -0.4093 -0.3347  0.1110
  162SAPE   H8Y18231   0.556   6.858   7.578 -0.5521 -1.8201 -1.1615
  162SAPE   C3918232   0.693   6.809   7.748  0.3557 -0.5918 -0.1908
  162SAPE   H9X18233   0.738   6.911   7.755  1.9080 -0.9990 -2.7607
  162SAPE   H9Y18234   0.762   6.728   7.778 -1.2101 -0.2345  5.4388
  162SAPE  C31018235   0.568   6.797   7.842  0.2728  0.5249 -0.0738
  162SAPE  H10X18236   0.543   6.690   7.853 -0.2714  0.6829  0.2952
  162SAPE  H10Y18237   0.481   6.843   7.792 -1.4988  0.2349  2.5481
  162SAPE  C31118238   0.590   6.861   7.984  0.2936  0.3075 -0.6646
  162SAPE  H11X18239   0.617   6.968   7.974  2.5779 -0.2198 -0.8795
  162SAPE  H11Y18240   0.687   6.825   8.026 -1.2123 -1.6103  1.4441
  162SAPE  C31218241   0.468   6.859   8.076 -0.1727 -0.1630 -0.3658
  162SAPE  H12X18242   0.449   6.754   8.107 -1.7635  0.3525  0.4962
  162SAPE  H12Y18243   0.385   6.895   8.012  0.5534  1.5227 -0.4255
  162SAPE  C31318244   0.480   6.943   8.191 -0.2187 -0.2802 -0.3036
  162SAPE  H13X18245   0.510   7.046   8.163 -4.5585  1.7784  1.6799
  162SAPE  H13Y18246   0.566   6.896   8.245 -1.6577 -1.5637  0.9597
  162SAPE  C31418247   0.351   6.949   8.267  0.2638  0.2837 -0.2347
  162SAPE  H14X18248   0.305   6.848   8.278  2.2184 -0.3654  3.5698
  162SAPE  H14Y18249   0.264   7.005   8.226 -0.5093  1.6508  2.9689
  162SAPE  C31518250   0.357   6.990   8.413  0.2003 -0.3860  0.1592
  162SAPE  H15X18251   0.251   6.993   8.448  0.2886  3.1004  0.4152
  162SAPE  H15Y18252   0.400   7.091   8.426  0.8275 -0.7243  0.7431
  162SAPE  C31618253   0.438   6.893   8.496  0.0492  0.3474  0.7574
  162SAPE  H16X18254   0.542   6.914   8.464 -0.0317 -1.1996 -0.6746
  162SAPE  H16Y18255   0.411   6.791   8.460  0.2034  0.5999 -0.0917
  162SAPE  C31718256   0.415   6.919   8.649  0.1512 -0.0139  0.2979
  162SAPE  H17X18257   0.305   6.904   8.659 -0.2764  2.0337 -0.6635
  162SAPE  H17Y18258   0.427   7.027   8.674  0.3289  0.0443 -0.0320
  162SAPE  C31818259   0.489   6.824   8.736  0.3114  0.2868  0.4549
  162SAPE  H18X18260   0.479   6.717   8.707 -2.7279  0.0295  2.0506
  162SAPE  H18Y18261   0.465   6.838   8.844  0.8338  0.0500  0.6052
  162SAPE  H18Z18262   0.598   6.841   8.727  0.2943 -0.2778 -1.0360
  163SAPE     N18263   6.218   5.582   6.578 -0.8201 -0.5772  0.3515
  163SAPE   HN118264   6.270   5.493   6.567 -2.5758 -1.6670  0.5959
  163SAPE   HN218265   6.119   5.553   6.575 -0.7698 -0.7644  0.4930
  163SAPE   HN318266   6.241   5.653   6.505  0.5090 -0.0246  1.2560
  163SAPE   C1218267   6.227   5.647   6.717  0.0208 -0.2671  0.1436
  163SAPE  H12A18268   6.337   5.653   6.734  0.0191  1.7893 -0.3216
  163SAPE  H12B18269   6.181   5.581   6.793  0.9513 -0.0179  0.9529
  163SAPE   C1118270   6.163   5.786   6.711  0.6188  0.1954  0.1526
  163SAPE  H11A18271   6.210   5.856   6.640  0.6231  1.2437  1.1632
  163SAPE  H11B18272   6.188   5.838   6.807 -1.8659  0.9875  0.4311
  163SAPE     P18273   5.928   5.897   6.677 -0.5125  0.2384 -0.4836
  163SAPE   O1318274   5.990   5.980   6.568  0.2686  0.0814  0.2548
  163SAPE   O1418275   5.791   5.851   6.661 -0.0720 -0.5512  0.0010
  163SAPE   O1218276   6.018   5.772   6.701 -0.2379 -0.0242  0.8238
  163SAPE   O1118277   5.921   5.979   6.806  0.0077  0.3047  0.4989
  163SAPE    C118278   5.891   5.916   6.933 -0.2526 -0.1300 -0.0078
  163SAPE    HA18279   5.967   5.838   6.956 -1.6743 -2.0356 -1.4751
  163SAPE    HB18280   5.893   5.987   7.018 -1.3817  1.0094 -0.8888
  163SAPE    C218281   5.766   5.830   6.951  0.0357 -0.4260 -0.3870
  163SAPE    HS18282   5.759   5.753   6.871  1.0271 -1.0525  0.1046
  163SAPE   O2118283   5.663   5.931   6.953 -0.0101  0.1448 -0.4189
  163SAPE   C2118284   5.539   5.886   6.940  0.9933 -0.0826  0.7450
  163SAPE   O2218285   5.509   5.771   6.906  0.4102  0.2661 -0.0082
  163SAPE   C2218286   5.437   5.997   6.963  0.3683  0.0259  0.1855
  163SAPE   H2R18287   5.484   6.096   6.946 -1.2370  0.5645 -1.5508
  163SAPE   H2S18288   5.357   5.994   6.885  2.3401 -0.3552 -1.9185
  163SAPE    C318289   5.773   5.748   7.083  0.5747 -0.0582 -1.2619
  163SAPE    HX18290   5.850   5.669   7.069 -0.3247 -1.7893  2.2094
  163SAPE    HY18291   5.672   5.702   7.096 -0.8873  3.2031  0.1344
  163SAPE   O3118292   5.804   5.824   7.198  0.0990  0.3534  0.4639
  163SAPE   C3118293   5.851   5.747   7.294 -0.5185  1.2898  0.5682
  163SAPE   O3218294   5.843   5.624   7.293  0.0387  0.3762  0.7447
  163SAPE   C3218295   5.915   5.825   7.413  0.4765 -0.8671 -0.2995
  163SAPE   H2X18296   5.893   5.931   7.391 -2.6039 -1.3929 -0.2144
  163SAPE   H2Y18297   6.023   5.800   7.416  0.3425 -1.4069  1.2298
  163SAPE   C2318298   5.367   5.990   7.105 -0.3096 -0.3562 -0.4079
  163SAPE   H3R18299   5.304   5.899   7.115 -0.6385  0.0608  1.7322
  163SAPE   H3S18300   5.302   6.080   7.107  0.9988  0.6518 -1.1323
  163SAPE   C2418301   5.464   6.004   7.224 -0.6810  0.0036 -0.0177
  163SAPE   H4R18302   5.535   5.920   7.208 -1.9076 -0.8284 -1.3753
  163SAPE   H4S18303   5.407   5.989   7.318  0.4825 -0.9174  0.5685
  163SAPE   C2518304   5.542   6.139   7.238 -0.3615  0.5365  0.8462
  163SAPE   H5R18305   5.536   6.206   7.151 -0.7023 -1.3224 -0.6313
  163SAPE   C2618306   5.603   6.177   7.352 -0.0794 -0.9213  0.3533
  163SAPE   H6R18307   5.631   6.284   7.358 -1.2209 -0.4620 -1.5219
  163SAPE   C2718308   5.617   6.098   7.477  0.2259  0.7168 -0.0804
  163SAPE   H7R18309   5.724   6.075   7.496 -0.2633 -4.6711 -2.1443
  163SAPE   H7S18310   5.581   5.993   7.477  1.8595  0.1267  0.0275
  163SAPE   C2818311   5.540   6.173   7.588 -0.4582 -0.8570 -0.3262
  163SAPE   H8R18312   5.432   6.178   7.569 -0.1840  2.0120 -1.6913
  163SAPE   C2918313   5.582   6.205   7.712  0.0627  0.0595  0.8672
  163SAPE   H9R18314   5.509   6.266   7.768 -0.6712 -1.1682  1.2810
  163SAPE  C21018315   5.714   6.175   7.774  0.2396 -0.2466 -0.3139
  163SAPE  H10R18316   5.783   6.132   7.699  0.5070  0.0601 -0.2494
  163SAPE  H10S18317   5.700   6.094   7.849 -1.6434  1.3070  1.1453
  163SAPE  C21118318   5.778   6.302   7.824 -0.5835 -0.0389 -0.8167
  163SAPE  H11R18319   5.819   6.370   7.747 -0.2367 -0.3888 -0.9398
  163SAPE  C21218320   5.787   6.342   7.954 -0.2534 -0.2168 -0.1185
  163SAPE  H12R18321   5.849   6.432   7.963 -0.4260 -0.0842 -0.2297
  163SAPE  C21318322   5.733   6.274   8.079 -0.6800  0.7608  0.0055
  163SAPE  H13R18323   5.654   6.201   8.050 -0.0621 -0.0973  0.4429
  163SAPE  H13S18324   5.681   6.350   8.141 -0.9956  1.2763 -0.8709
  163SAPE  C21418325   5.856   6.221   8.152  0.4886 -0.4765  0.4638
  163SAPE  H14R18326   5.913   6.149   8.091  2.1045  0.5146  0.7347
  163SAPE  C21518327   5.891   6.247   8.279  0.5633  0.4496  0.6072
  163SAPE  H15R18328   5.992   6.226   8.317  0.3629  1.2191  1.6084
  163SAPE  C21618329   5.817   6.325   8.383  0.5492 -0.1115  0.0876
  163SAPE  H16R18330   5.856   6.302   8.485 -1.1572  2.4255  1.4142
  163SAPE  H16S18331   5.711   6.294   8.392 -0.0682  2.3543  3.0798
  163SAPE  C21718332   5.825   6.478   8.351 -0.2077  0.0192 -0.7265
  163SAPE  H17R18333   5.776   6.533   8.434 -2.8761 -2.2105 -0.7014
  163SAPE  H17S18334   5.777   6.500   8.253 -0.5698  1.1261 -0.3185
  163SAPE  C21818335   5.975   6.529   8.357 -0.2959 -0.2746  0.2471
  163SAPE  H18R18336   6.041   6.485   8.279  1.1672  0.6376  0.9333
  163SAPE  H18S18337   6.024   6.488   8.448  1.1491 -1.9808 -1.2279
  163SAPE  C21918338   5.995   6.681   8.348 -0.1018  0.4601  0.1322
  163SAPE  H19R18339   5.963   6.730   8.253 -0.1038 -1.1053 -0.7038
  163SAPE  H19S18340   6.101   6.711   8.363 -0.3924  1.6019  0.0167
  163SAPE  C22018341   5.917   6.752   8.464  0.6703  0.6395  0.3119
  163SAPE  H20R18342   5.957   6.709   8.558 -2.1547 -2.3737  0.3195
  163SAPE  H20S18343   5.810   6.723   8.454  1.3722 -2.7294  1.3124
  163SAPE  H20T18344   5.933   6.861   8.468 -1.1254  1.0098 -1.0488
  163SAPE   C3318345   5.853   5.794   7.556  0.1452  0.2571  0.4518
  163SAPE   H3X18346   5.842   5.685   7.574 -0.4604  0.3084  0.4254
  163SAPE   H3Y18347   5.753   5.842   7.557  1.2008  2.8700 -2.2847
  163SAPE   C3418348   5.941   5.845   7.674 -0.2442  0.4355  0.1888
  163SAPE   H4X18349   5.955   5.955   7.670 -0.0904  0.5458  2.5006
  163SAPE   H4Y18350   6.043   5.805   7.652 -0.4263  0.2949 -0.4336
  163SAPE   C3518351   5.902   5.800   7.813  0.2768 -0.1618 -0.1467
  163SAPE   H5X18352   5.880   5.691   7.822  0.0519 -0.0651  0.4974
  163SAPE   H5Y18353   5.809   5.857   7.829  1.2368  0.9108  1.9802
  163SAPE   C3618354   6.000   5.860   7.911  0.0716  0.7311 -0.7887
  163SAPE   H6X18355   6.004   5.970   7.894 -0.0419  0.5736 -1.8857
  163SAPE   H6Y18356   6.095   5.809   7.886 -0.6657 -1.0848 -0.0149
  163SAPE   C3718357   5.964   5.821   8.057 -0.3609 -0.4238  1.3620
  163SAPE   H7X18358   5.966   5.710   8.047 -0.6200 -0.5179  2.2606
  163SAPE   H7Y18359   5.869   5.864   8.094 -2.0532  0.5192 -3.3989
  163SAPE   C3818360   6.075   5.854   8.157  0.3985  0.5759 -0.2217
  163SAPE   H8X18361   6.100   5.961   8.143  0.2677  0.6554  0.1421
  163SAPE   H8Y18362   6.170   5.807   8.126 -0.8218 -0.8106 -2.1393
  163SAPE   C3918363   6.039   5.823   8.300 -0.2695  0.2304  0.1982
  163SAPE   H9X18364   6.044   5.714   8.324 -1.3356 -0.0304 -0.6661
  163SAPE   H9Y18365   5.940   5.869   8.323  0.8899  2.3073  1.3814
  163SAPE  C31018366   6.133   5.898   8.397  0.3224 -0.2527  0.2390
  163SAPE  H10X18367   6.129   6.007   8.372  0.5015  0.0782  1.5842
  163SAPE  H10Y18368   6.236   5.864   8.373  1.0404 -0.3827  3.1392
  163SAPE  C31118369   6.105   5.865   8.543  1.0209  0.2970 -0.2679
  163SAPE  H11X18370   6.128   5.757   8.548 -0.4191  0.0243  1.6793
  163SAPE  H11Y18371   5.994   5.873   8.549  0.7998 -1.9214 -0.6707
  163SAPE  C31218372   6.191   5.956   8.638 -0.3244  0.1745  0.9631
  163SAPE  H12X18373   6.120   6.023   8.690 -2.4756  1.2736 -2.9634
  163SAPE  H12Y18374   6.263   6.013   8.577 -0.4308 -2.1557 -1.5643
  163SAPE  C31318375   6.276   5.880   8.736 -0.3915 -0.0198  0.4833
  163SAPE  H13X18376   6.342   5.811   8.679  0.3535  2.5587 -1.9797
  163SAPE  H13Y18377   6.212   5.829   8.812 -0.0936 -0.5668  0.3763
  163SAPE  C31418378   6.375   5.976   8.796  0.3099 -0.4293  0.3111
  163SAPE  H14X18379   6.327   6.074   8.820  1.9089  0.7063 -0.9112
  163SAPE  H14Y18380   6.443   5.992   8.709  0.6362 -3.2217 -0.0229
  163SAPE  C31518381   6.467   5.921   8.910  0.1354 -0.1808  0.0915
  163SAPE  H15X18382   6.554   5.989   8.923  0.0825  0.2857 -1.7559
  163SAPE  H15Y18383   6.500   5.824   8.866  1.8661 -0.7870  2.4911
  163SAPE  C31618384   6.396   5.893   9.050 -0.7583 -0.8016  0.4234
  163SAPE  H16X18385   6.347   5.794   9.045  0.1712 -1.2411 -0.4375
  163SAPE  H16Y18386   6.321   5.975   9.056 -0.9648 -0.7653 -1.7929
  163SAPE  C31718387   6.493   5.887   9.169  0.8416 -0.1489 -0.1637
  163SAPE  H17X18388   6.508   5.994   9.196  0.8361 -0.4480  1.0717
  163SAPE  H17Y18389   6.596   5.852   9.146  0.7439  0.2719 -1.3079
  163SAPE  C31818390   6.420   5.814   9.284 -0.7368 -0.1434  0.0944
  163SAPE  H18X18391   6.322   5.857   9.312  0.0021  0.6771  1.5657
  163SAPE  H18Y18392   6.479   5.824   9.378 -2.1843 -0.1844  1.0340
  163SAPE  H18Z18393   6.407   5.710   9.248  1.1239  0.0705 -1.3439
  164SAPE     N18394   1.160   5.649   6.314 -0.4368 -0.0105  0.2449
  164SAPE   HN118395   1.192   5.697   6.400  1.5093  1.8083 -1.3791
  164SAPE   HN218396   1.103   5.722   6.267 -1.3114  1.7904  3.7411
  164SAPE   HN318397   1.098   5.569   6.338 -1.0008  0.8299  1.7429
  164SAPE   C1218398   1.274   5.605   6.223  0.3204  0.4385  0.4524
  164SAPE  H12A18399   1.337   5.693   6.197  1.3649 -0.1502  0.9079
  164SAPE  H12B18400   1.222   5.557   6.138  3.6392 -1.4581 -0.7181
  164SAPE   C1118401   1.369   5.493   6.280 -0.0468  0.7631 -0.4054
  164SAPE  H11A18402   1.418   5.535   6.370  0.7167 -0.1325 -0.3909
  164SAPE  H11B18403   1.445   5.466   6.204 -0.3053  0.0502 -0.4190
  164SAPE     P18404   1.357   5.246   6.372  0.2549 -0.1819  0.0151
  164SAPE   O1318405   1.253   5.145   6.410 -0.3132  0.0115  0.0972
  164SAPE   O1418406   1.468   5.205   6.278  0.8882 -0.0870  0.1416
  164SAPE   O1218407   1.288   5.376   6.319  0.4775  0.5248  0.3734
  164SAPE   O1118408   1.429   5.306   6.507 -0.4358 -0.4351 -0.0857
  164SAPE    C118409   1.341   5.367   6.608  0.2937 -0.5526 -0.1948
  164SAPE    HA18410   1.337   5.476   6.586 -1.3844 -0.8620 -1.5870
  164SAPE    HB18411   1.238   5.328   6.603 -0.0056  0.2945 -0.7511
  164SAPE    C218412   1.381   5.352   6.761 -0.3077 -0.4371 -0.1727
  164SAPE    HS18413   1.479   5.405   6.769 -1.4007  1.5623  0.6733
  164SAPE   O2118414   1.396   5.213   6.795 -0.0020 -0.1038 -0.0448
  164SAPE   C2118415   1.518   5.167   6.755 -0.0067 -0.1285  0.0879
  164SAPE   O2218416   1.607   5.238   6.715 -0.3242 -0.3035  0.4291
  164SAPE   C2218417   1.516   5.015   6.762  0.0848  0.2652  0.4203
  164SAPE   H2R18418   1.430   4.985   6.826  0.2820  1.3827  1.2342
  164SAPE   H2S18419   1.491   4.975   6.661  2.3003  0.2554 -0.1698
  164SAPE    C318420   1.293   5.414   6.870  0.0396  0.1411  1.0043
  164SAPE    HX18421   1.197   5.359   6.877 -0.6838  1.0432 -1.0795
  164SAPE    HY18422   1.267   5.521   6.861  0.5927  0.3585  1.8318
  164SAPE   O3118423   1.355   5.411   7.003 -0.3051  0.6090  0.3705
  164SAPE   C3118424   1.472   5.468   7.034 -0.4822  0.1408  0.3522
  164SAPE   O3218425   1.542   5.526   6.951  0.2824  0.4610  0.0811
  164SAPE   C3218426   1.507   5.452   7.187 -0.0759  0.0167  0.2475
  164SAPE   H2X18427   1.579   5.368   7.192  1.1591  0.9482 -1.2352
  164SAPE   H2Y18428   1.415   5.427   7.244  0.8332 -0.2637  1.6535
  164SAPE   C2318429   1.643   4.937   6.796  0.2682  0.2464 -0.2448
  164SAPE   H3R18430   1.729   4.962   6.730  0.8440 -0.9764  0.0223
  164SAPE   H3S18431   1.624   4.829   6.776  1.2728  0.2225 -1.1233
  164SAPE   C2418432   1.682   4.958   6.949  0.1662  0.1892  0.3423
  164SAPE   H4R18433   1.601   4.940   7.023  2.2361  0.5952  2.8643
  164SAPE   H4S18434   1.723   5.060   6.966  0.0928  0.1278  0.9176
  164SAPE   C2518435   1.789   4.853   6.977  0.0827 -0.1472  0.7499
  164SAPE   H5R18436   1.744   4.754   6.987  0.2496 -0.3976 -0.7739
  164SAPE   C2618437   1.921   4.879   6.979  0.5386  0.1028  0.3409
  164SAPE   H6R18438   1.991   4.800   7.009  0.0711 -0.2175  0.5986
  164SAPE   C2718439   1.975   5.016   6.946 -0.6827  0.4290 -0.3146
  164SAPE   H7R18440   1.931   5.094   7.012 -0.3999 -0.9938  1.6193
  164SAPE   H7S18441   1.944   5.029   6.840 -0.8919  1.1427 -0.1754
  164SAPE   C2818442   2.126   5.017   6.962 -0.2834 -0.6994 -0.0795
  164SAPE   H8R18443   2.176   5.017   6.865 -0.6410  0.3041 -0.2722
  164SAPE   C2918444   2.205   5.006   7.071 -0.0101 -0.5368 -0.3962
  164SAPE   H9R18445   2.314   5.001   7.059  0.0280  1.8788 -1.8738
  164SAPE  C21018446   2.150   4.999   7.209  0.0922 -0.0803 -0.5327
  164SAPE  H10R18447   2.050   4.952   7.200  0.4310 -1.2252  1.2108
  164SAPE  H10S18448   2.132   5.101   7.249 -1.8957 -0.8309  0.6530
  164SAPE  C21118449   2.209   4.908   7.315 -0.2230  0.2333  0.5972
  164SAPE  H11R18450   2.257   4.819   7.271 -0.4130  0.0325  0.7882
  164SAPE  C21218451   2.214   4.920   7.449 -0.5982 -0.0884  0.1611
  164SAPE  H12R18452   2.253   4.834   7.505  1.0292 -0.6002 -1.6433
  164SAPE  C21318453   2.160   5.038   7.531  0.1713 -0.5578  0.4680
  164SAPE  H13R18454   2.088   5.098   7.471  1.6398  0.9023  0.1010
  164SAPE  H13S18455   2.232   5.120   7.548  1.0118 -1.2051  0.0585
  164SAPE  C21418456   2.108   4.984   7.667  0.2630  0.2290 -0.3128
  164SAPE  H14R18457   2.170   4.907   7.715 -0.6564 -0.8223 -0.7681
  164SAPE  C21518458   2.002   5.020   7.736  0.8949 -0.0005 -0.2135
  164SAPE  H15R18459   1.979   4.986   7.838 -0.6187  2.3848  0.3331
  164SAPE  C21618460   1.905   5.127   7.692  0.1177 -0.2572  0.0403
  164SAPE  H16R18461   1.941   5.179   7.600  0.0694 -0.0328  0.1495
  164SAPE  H16S18462   1.901   5.200   7.775 -0.4680  0.6400 -0.7616
  164SAPE  C21718463   1.758   5.075   7.665 -0.2488 -0.3051  0.0509
  164SAPE  H17R18464   1.678   5.145   7.699  0.7446  0.4698  0.8647
  164SAPE  H17S18465   1.753   4.992   7.738  2.1174 -0.7517 -0.2368
  164SAPE  C21818466   1.744   5.023   7.524  0.7480  0.2480  0.1924
  164SAPE  H18R18467   1.654   4.958   7.517  1.1440 -0.6717  2.5312
  164SAPE  H18S18468   1.833   4.957   7.509  1.2386  0.9463 -0.0248
  164SAPE  C21918469   1.739   5.139   7.414 -0.6254  0.2579 -0.9022
  164SAPE  H19R18470   1.818   5.215   7.433 -0.2274 -0.5180  0.7372
  164SAPE  H19S18471   1.642   5.185   7.442  0.0719 -0.9229  4.3407
  164SAPE  C22018472   1.741   5.085   7.273  0.4966 -0.0839 -0.4276
  164SAPE  H20R18473   1.840   5.046   7.243  0.1645 -0.1367 -1.5226
  164SAPE  H20S18474   1.740   5.174   7.206  0.2116 -0.2174 -0.6012
  164SAPE  H20T18475   1.650   5.021   7.263 -0.1698 -0.3288  4.7109
  164SAPE   C3318476   1.582   5.570   7.242 -0.2172 -0.2081 -0.5493
  164SAPE   H3X18477   1.515   5.657   7.227  2.6718  1.7666 -3.7493
  164SAPE   H3Y18478   1.662   5.602   7.170 -0.1063  0.5139 -0.1168
  164SAPE   C3418479   1.618   5.558   7.388 -0.5757  0.6187 -0.0601
  164SAPE   H4X18480   1.706   5.624   7.409  1.2822 -0.1612 -4.1884
  164SAPE   H4Y18481   1.656   5.455   7.405 -0.4621  0.6928  0.1389
  164SAPE   C3518482   1.503   5.593   7.487 -1.0167  0.6229  0.9484
  164SAPE   H5X18483   1.418   5.536   7.444  1.5034 -0.3481 -3.3056
  164SAPE   H5Y18484   1.474   5.700   7.474  0.0595  0.7764 -0.4964
  164SAPE   C3618485   1.529   5.543   7.631 -0.3190  0.8356 -0.0654
  164SAPE   H6X18486   1.583   5.446   7.635 -1.8189 -0.0128  0.6026
  164SAPE   H6Y18487   1.432   5.536   7.685 -1.8523 -0.7725 -2.8244
  164SAPE   C3718488   1.625   5.634   7.716 -0.0602 -0.0654  0.1632
  164SAPE   H7X18489   1.598   5.740   7.702  0.3659 -0.2227 -2.4775
  164SAPE   H7Y18490   1.729   5.622   7.679  0.8423  0.3823  2.4032
  164SAPE   C3818491   1.626   5.589   7.864  0.3274  1.0668  0.5889
  164SAPE   H8X18492   1.636   5.479   7.865 -2.2528  0.7913  0.7231
  164SAPE   H8Y18493   1.532   5.635   7.901 -0.7024  0.0845 -0.7110
  164SAPE   C3918494   1.742   5.648   7.945 -0.1774 -0.5673 -0.6437
  164SAPE   H9X18495   1.732   5.758   7.931 -1.6930 -0.7331 -1.0270
  164SAPE   H9Y18496   1.845   5.615   7.919  0.1407 -0.1296  0.0242
  164SAPE  C31018497   1.714   5.619   8.098  0.1068 -0.4867 -0.4382
  164SAPE  H10X18498   1.773   5.530   8.128 -0.5440  0.7014  5.4761
  164SAPE  H10Y18499   1.609   5.599   8.128 -0.3012  0.9942 -0.7958
  164SAPE  C31118500   1.757   5.743   8.173  0.4611 -0.5760  0.0984
  164SAPE  H11X18501   1.679   5.817   8.144 -1.0735 -2.2427 -0.2893
  164SAPE  H11Y18502   1.861   5.773   8.151  0.6045 -0.5267  0.8381
  164SAPE  C31218503   1.732   5.717   8.326 -0.3377 -0.4047  0.7367
  164SAPE  H12X18504   1.641   5.662   8.359 -0.6305 -0.2665  0.1649
  164SAPE  H12Y18505   1.722   5.812   8.382  0.4052 -1.5467  2.9554
  164SAPE  C31318506   1.847   5.652   8.399 -0.3252  0.6736 -0.0752
  164SAPE  H13X18507   1.881   5.711   8.487  0.6647  3.1944 -2.0025
  164SAPE  H13Y18508   1.931   5.651   8.326 -0.6605 -3.4068 -0.6272
  164SAPE  C31418509   1.819   5.511   8.455 -0.1277 -0.9211  0.1373
  164SAPE  H14X18510   1.790   5.454   8.364 -2.3914 -1.2873  1.0235
  164SAPE  H14Y18511   1.729   5.509   8.519 -0.8877  0.4322 -0.8333
  164SAPE  C31518512   1.941   5.444   8.515 -0.1616 -0.4547  0.1146
  164SAPE  H15X18513   1.984   5.503   8.599  1.0001 -0.8096 -0.2009
  164SAPE  H15Y18514   2.021   5.425   8.441 -1.1771 -1.0900 -0.8448
  164SAPE  C31618515   1.904   5.307   8.586 -0.2800 -0.4336 -0.1255
  164SAPE  H16X18516   1.858   5.233   8.516  0.5513 -1.5158  0.4339
  164SAPE  H16Y18517   1.817   5.314   8.655 -0.7247 -2.0781 -0.4562
  164SAPE  C31718518   2.027   5.238   8.659 -0.1281  0.6068 -0.4993
  164SAPE  H17X18519   2.061   5.310   8.736 -0.1566 -0.0905  0.1848
  164SAPE  H17Y18520   2.111   5.221   8.589  0.1397  0.1751 -0.0785
  164SAPE  C31818521   1.996   5.106   8.729  0.2557  0.1560  0.8649
  164SAPE  H18X18522   2.088   5.079   8.784  0.5053  0.2188  0.4790
  164SAPE  H18Y18523   1.975   5.026   8.655 -1.4643  1.3753 -0.0384
  164SAPE  H18Z18524   1.915   5.122   8.804  2.8468  2.6587  3.3382
  165SAPE     N18525   1.300   2.909   6.343  0.2016 -0.2809 -0.6291
  165SAPE   HN118526   1.226   2.837   6.353 -2.3061  2.1414 -0.2590
  165SAPE   HN218527   1.328   2.944   6.437 -0.6385 -1.8152  0.2237
  165SAPE   HN318528   1.268   2.987   6.280  0.0953 -0.0256 -0.2610
  165SAPE   C1218529   1.429   2.870   6.270  0.9937 -0.0856 -0.1525
  165SAPE  H12A18530   1.405   2.863   6.162 -0.7596  1.6525  0.0625
  165SAPE  H12B18531   1.446   2.762   6.293  0.0684  0.1243  1.7213
  165SAPE   C1118532   1.548   2.969   6.283 -0.0255  0.1422  0.2886
  165SAPE  H11A18533   1.519   3.071   6.248  4.0509  1.2828 -0.3207
  165SAPE  H11B18534   1.621   2.938   6.204  0.1543 -0.8553  0.8405
  165SAPE     P18535   1.730   2.888   6.447  0.2716  0.4289  0.0150
  165SAPE   O1318536   1.687   2.746   6.456  0.0254 -0.5901 -0.4641
  165SAPE   O1418537   1.832   2.912   6.344 -0.4003 -0.0740  0.2240
  165SAPE   O1218538   1.602   2.976   6.415 -0.0405  0.0017  0.0407
  165SAPE   O1118539   1.771   2.938   6.593  0.3032 -0.7633  0.0205
  165SAPE    C118540   1.660   2.970   6.682  0.2343  0.2411  0.4631
  165SAPE    HA18541   1.610   3.065   6.652 -0.7903 -1.0294 -2.2009
  165SAPE    HB18542   1.574   2.900   6.673  0.8077 -0.4219  0.0665
  165SAPE    C218543   1.697   2.974   6.833 -0.8503  0.4171 -0.1927
  165SAPE    HS18544   1.758   3.067   6.837  0.7825 -0.5080 -1.9140
  165SAPE   O2118545   1.775   2.857   6.864 -0.3558  0.0065 -0.2699
  165SAPE   C2118546   1.903   2.867   6.823 -0.7419  0.3995  0.1523
  165SAPE   O2218547   1.958   2.966   6.786  0.2293 -0.1491 -0.1717
  165SAPE   C2218548   1.958   2.722   6.808  0.6574  0.2920 -0.7960
  165SAPE   H2R18549   1.915   2.656   6.886  0.2126  0.7262 -0.6660
  165SAPE   H2S18550   1.921   2.694   6.707  3.5293 -2.5878 -1.2168
  165SAPE    C318551   1.571   2.976   6.921 -0.0603 -0.1689  0.0490
  165SAPE    HX18552   1.524   2.877   6.899  0.7396 -0.3080 -1.0924
  165SAPE    HY18553   1.489   3.042   6.886 -1.2074 -0.9698  1.1432
  165SAPE   O3118554   1.611   3.002   7.057 -0.2638  0.2804 -0.1062
  165SAPE   C3118555   1.528   2.964   7.155  0.3554 -1.0038 -0.1408
  165SAPE   O3218556   1.429   2.893   7.146 -0.1161  0.0035 -0.2207
  165SAPE   C3218557   1.597   3.006   7.286  0.3090  0.3409 -0.4106
  165SAPE   H2X18558   1.628   3.113   7.280 -0.6143  0.7082  0.9758
  165SAPE   H2Y18559   1.696   2.956   7.297 -0.0506 -0.5456 -1.1067
  165SAPE   C2318560   2.110   2.716   6.806 -0.1236  0.6187 -0.1183
  165SAPE   H3R18561   2.141   2.801   6.741 -0.4688 -0.2751 -1.4798
  165SAPE   H3S18562   2.153   2.621   6.766 -0.0927  0.2965  0.6661
  165SAPE   C2418563   2.168   2.734   6.945 -1.0974  0.9205 -0.3234
  165SAPE   H4R18564   2.130   2.828   6.992 -0.4027  1.4942 -0.8832
  165SAPE   H4S18565   2.276   2.756   6.931 -1.5977  2.8596 -1.5008
  165SAPE   C2518566   2.158   2.609   7.023 -0.9381  0.3799  0.4952
  165SAPE   H5R18567   2.209   2.525   6.973 -2.2263 -0.0245 -0.1644
  165SAPE   C2618568   2.109   2.585   7.145  0.1950 -0.7522 -0.6581
  165SAPE   H6R18569   2.106   2.484   7.187  0.3093 -0.6033 -0.2923
  165SAPE   C2718570   2.046   2.689   7.247  0.0935 -0.7879  0.7552
  165SAPE   H7R18571   1.945   2.651   7.272 -1.4797  0.4603 -2.9514
  165SAPE   H7S18572   2.028   2.780   7.186  1.9931 -0.0055  1.2808
  165SAPE   C2818573   2.148   2.716   7.349 -0.0777  0.5973 -0.3495
  165SAPE   H8R18574   2.249   2.728   7.307  0.2875  0.9922  0.6302
  165SAPE   C2918575   2.136   2.681   7.474  0.1661  0.2421  0.2083
  165SAPE   H9R18576   2.226   2.698   7.535 -0.8709  0.4200  1.7459
  165SAPE  C21018577   2.002   2.624   7.526  0.6760  0.4905 -0.7340
  165SAPE  H10R18578   1.954   2.549   7.459  1.1336  1.7521 -2.5515
  165SAPE  H10S18579   1.924   2.701   7.545 -0.7988 -1.2146  0.4732
  165SAPE  C21118580   2.035   2.553   7.656  0.0154  0.3230 -0.1422
  165SAPE  H11R18581   2.047   2.444   7.651  0.7466  0.4126 -0.4482
  165SAPE  C21218582   2.045   2.607   7.777  0.3666 -0.6074  0.8856
  165SAPE  H12R18583   2.051   2.535   7.860 -2.3999 -1.7801  0.1727
  165SAPE  C21318584   2.020   2.754   7.806  0.4894 -0.3779 -0.2091
  165SAPE  H13R18585   2.024   2.813   7.712 -0.1753  0.7814  0.4647
  165SAPE  H13S18586   2.106   2.793   7.865  0.9421  0.1245 -1.1628
  165SAPE  C21418587   1.891   2.769   7.875  0.7442 -0.2769 -0.9519
  165SAPE  H14R18588   1.806   2.729   7.819  2.2208 -4.0644 -0.7544
  165SAPE  C21518589   1.864   2.819   8.002  0.3274  0.3443  0.0619
  165SAPE  H15R18590   1.761   2.835   8.037  1.1229 -0.7706  3.2347
  165SAPE  C21618591   1.971   2.860   8.105 -0.4793  0.8935  0.7547
  165SAPE  H16R18592   2.068   2.807   8.097 -0.9022  0.1330  0.5253
  165SAPE  H16S18593   1.931   2.858   8.209 -1.5981  0.7551  0.3326
  165SAPE  C21718594   2.014   3.006   8.068 -0.2678  0.3234  0.8450
  165SAPE  H17R18595   1.922   3.069   8.073  1.0166  2.2326  1.7817
  165SAPE  H17S18596   2.046   3.005   7.962 -1.3986 -0.2551  0.4937
  165SAPE  C21818597   2.118   3.066   8.166  0.4134  0.2055  0.0120
  165SAPE  H18R18598   2.152   3.168   8.137  1.3506 -0.2763 -0.6054
  165SAPE  H18S18599   2.201   2.993   8.161 -0.7712 -1.0951 -2.1682
  165SAPE  C21918600   2.079   3.081   8.318  0.1242 -0.3634 -0.4948
  165SAPE  H19R18601   2.161   3.144   8.357  1.2791 -1.4972 -1.0043
  165SAPE  H19S18602   2.057   2.988   8.376  0.1884  0.2729  0.5728
  165SAPE  C22018603   1.942   3.156   8.328 -0.4691 -0.2222 -0.3556
  165SAPE  H20R18604   1.906   3.192   8.427 -2.3445 -1.1786 -0.6406
  165SAPE  H20S18605   1.866   3.098   8.271 -1.6943  3.4302 -2.7600
  165SAPE  H20T18606   1.946   3.250   8.269  2.4518  0.7475  1.1907
  165SAPE   C3318607   1.514   2.979   7.416  0.9615 -1.3234  0.6185
  165SAPE   H3X18608   1.479   2.874   7.426 -0.6668 -0.7447  1.2507
  165SAPE   H3Y18609   1.420   3.038   7.424  2.1759  0.7887  0.2180
  165SAPE   C3418610   1.589   3.023   7.540 -0.1122  0.3909  0.3977
  165SAPE   H4X18611   1.613   3.131   7.527  0.6968  0.1167 -0.4800
  165SAPE   H4Y18612   1.690   2.977   7.543  0.9234  2.5731  2.0899
  165SAPE   C3518613   1.529   2.990   7.676  0.4909 -0.2430 -0.4840
  165SAPE   H5X18614   1.497   2.884   7.687  0.6061 -0.1859  0.5460
  165SAPE   H5Y18615   1.436   3.047   7.697 -0.1217 -0.7364 -1.7840
  165SAPE   C3618616   1.621   3.018   7.795  0.0601  0.2601 -0.3569
  165SAPE   H6X18617   1.671   3.117   7.791  2.2340 -0.4843  3.5220
  165SAPE   H6Y18618   1.701   2.942   7.805 -0.8587 -0.6408  0.2634
  165SAPE   C3718619   1.554   3.011   7.937  0.5872 -0.0990 -0.4293
  165SAPE   H7X18620   1.486   3.095   7.959 -0.2733 -0.5749 -1.2070
  165SAPE   H7Y18621   1.634   3.028   8.012  1.2323 -0.6583 -0.9720
  165SAPE   C3818622   1.490   2.871   7.963 -0.8127 -0.4028 -0.4556
  165SAPE   H8X18623   1.572   2.802   7.934 -0.7571 -0.2577 -0.6406
  165SAPE   H8Y18624   1.401   2.857   7.898 -1.5537  1.1909  0.1614
  165SAPE   C3918625   1.449   2.847   8.114 -0.2247 -0.1777 -0.1523
  165SAPE   H9X18626   1.365   2.774   8.114 -1.5075  1.2125 -0.8555
  165SAPE   H9Y18627   1.403   2.937   8.160  1.8066  1.4503 -1.1360
  165SAPE  C31018628   1.570   2.814   8.204 -0.0339 -0.6546 -0.2734
  165SAPE  H10X18629   1.638   2.901   8.213 -0.6780 -0.2588  1.1353
  165SAPE  H10Y18630   1.633   2.732   8.164  2.3246 -0.7700  3.2050
  165SAPE  C31118631   1.527   2.764   8.342 -0.6428 -1.0860  0.3621
  165SAPE  H11X18632   1.621   2.761   8.401  0.4154  2.7443 -0.8436
  165SAPE  H11Y18633   1.467   2.671   8.331 -0.3552 -1.2165 -0.1189
  165SAPE  C31218634   1.434   2.866   8.418  0.1611 -0.4360 -0.0048
  165SAPE  H12X18635   1.399   2.813   8.509  1.0984  0.2281  0.7604
  165SAPE  H12Y18636   1.343   2.891   8.358  0.4829 -2.3053 -1.3844
  165SAPE  C31318637   1.508   2.991   8.470 -0.2302  0.2136  0.0025
  165SAPE  H13X18638   1.523   3.072   8.395  2.3669  0.1398  0.3396
  165SAPE  H13Y18639   1.605   2.972   8.521 -0.7476 -0.9144  0.6065
  165SAPE  C31418640   1.416   3.062   8.572 -0.3965  0.0321 -0.8584
  165SAPE  H14X18641   1.439   3.017   8.671 -0.5426 -0.5078 -1.0603
  165SAPE  H14Y18642   1.310   3.048   8.541 -0.9455 -1.0863  1.2769
  165SAPE  C31518643   1.446   3.209   8.591 -0.0740 -0.8432 -0.5460
  165SAPE  H15X18644   1.407   3.265   8.503  0.2552 -1.6183 -1.2031
  165SAPE  H15Y18645   1.556   3.218   8.578  0.0200 -0.1494  0.6270
  165SAPE  C31618646   1.419   3.278   8.728  0.1050 -0.2936  0.7227
  165SAPE  H16X18647   1.469   3.376   8.719 -1.3467  0.2560 -3.2661
  165SAPE  H16Y18648   1.465   3.220   8.812  0.3949  1.2428  1.6610
  165SAPE  C31718649   1.270   3.291   8.745  0.1440 -0.2459 -0.5583
  165SAPE  H17X18650   1.224   3.195   8.715  0.3172  0.3791 -3.0249
  165SAPE  H17Y18651   1.223   3.358   8.671 -1.7348 -0.0688  0.7218
  165SAPE  C31818652   1.206   3.339   8.881  0.0507  0.4081 -0.0732
  165SAPE  H18X18653   1.241   3.272   8.962 -1.4951 -0.9427 -0.4831
  165SAPE  H18Y18654   1.095   3.333   8.884 -0.0824  0.7030  5.3429
  165SAPE  H18Z18655   1.230   3.446   8.899 -0.7997  1.0390 -2.2843
  166SAPE     N18656   5.791   0.878   6.539 -0.0377  0.5644 -0.3563
  166SAPE   HN118657   5.786   0.835   6.634  1.7658 -3.4137 -1.8487
  166SAPE   HN218658   5.758   0.801   6.477 -0.1997 -1.0916  1.6580
  166SAPE   HN318659   5.894   0.892   6.531  0.8172 -0.9324  4.4531
  166SAPE   C1218660   5.724   1.013   6.522 -0.7861  0.1324  0.1185
  166SAPE  H12A18661   5.757   1.068   6.613 -2.1769  0.8404  0.2228
  166SAPE  H12B18662   5.613   1.006   6.510 -0.7246 -0.4907 -0.0755
  166SAPE   C1118663   5.781   1.072   6.394 -0.0675  0.2178  0.0508
  166SAPE  H11A18664   5.728   1.170   6.385 -0.5036  0.2369  2.3675
  166SAPE  H11B18665   5.758   1.000   6.312 -0.3839 -0.3365  0.6224
  166SAPE     P18666   6.018   1.138   6.305  0.0028  0.0274 -0.0370
  166SAPE   O1318667   6.106   1.023   6.267 -0.2690 -0.0004 -0.0770
  166SAPE   O1418668   5.943   1.210   6.202  0.3581  0.2036  0.0114
  166SAPE   O1218669   5.920   1.084   6.411  0.2521 -0.1617  0.1693
  166SAPE   O1118670   6.113   1.240   6.390 -0.3270  0.5919 -0.1173
  166SAPE    C118671   6.114   1.234   6.538 -0.5161  0.0559 -0.5286
  166SAPE    HA18672   6.112   1.126   6.563  0.4811  0.4610  1.4938
  166SAPE    HB18673   6.214   1.266   6.572 -0.8300 -0.5755  1.0350
  166SAPE    C218674   5.996   1.308   6.604  0.7385 -0.1565 -0.5314
  166SAPE    HS18675   5.902   1.259   6.571  0.7658 -0.4591 -0.1647
  166SAPE   O2118676   5.993   1.441   6.558  0.6546 -0.2009  0.4832
  166SAPE   C2118677   5.879   1.498   6.577  0.4000 -0.1020 -0.9657
  166SAPE   O2218678   5.772   1.441   6.586 -0.4564  0.0294 -0.4537
  166SAPE   C2218679   5.895   1.652   6.579  0.6164 -0.2146  0.0448
  166SAPE   H2R18680   6.001   1.674   6.607  0.5495 -0.2413  0.3237
  166SAPE   H2S18681   5.877   1.691   6.477  0.5104 -0.8742 -0.1925
  166SAPE    C318682   6.007   1.300   6.750  0.1772  0.3772  0.2271
  166SAPE    HX18683   6.005   1.195   6.786 -0.5457 -0.0069 -0.8884
  166SAPE    HY18684   5.925   1.351   6.804 -1.2754 -1.5763 -0.0323
  166SAPE   O3118685   6.127   1.356   6.782  0.4837 -0.0691 -0.4726
  166SAPE   C3118686   6.162   1.338   6.911 -0.2049 -0.1469 -0.1372
  166SAPE   O3218687   6.105   1.269   6.988 -0.8073  0.6674 -0.2604
  166SAPE   C3218688   6.288   1.422   6.941  0.8965 -0.1220 -0.4784
  166SAPE   H2X18689   6.266   1.517   6.888 -1.5381  0.9570  2.1592
  166SAPE   H2Y18690   6.378   1.371   6.901  1.0403 -0.7149  0.5508
  166SAPE   C2318691   5.797   1.710   6.683  0.2562 -0.1779  0.1848
  166SAPE   H3R18692   5.694   1.672   6.663  1.2097 -3.4371  0.8818
  166SAPE   H3S18693   5.805   1.819   6.664  1.8384 -0.5725 -1.8323
  166SAPE   C2418694   5.838   1.688   6.833 -0.0368  0.0169  0.1674
  166SAPE   H4R18695   5.940   1.728   6.853 -0.7720  1.2905  1.6405
  166SAPE   H4S18696   5.845   1.579   6.853  0.0580 -0.3002 -1.5190
  166SAPE   C2518697   5.736   1.751   6.923  0.0710 -0.0523  0.1497
  166SAPE   H5R18698   5.718   1.858   6.906  0.1126  0.1403  1.2417
  166SAPE   C2618699   5.667   1.696   7.025  0.9187  0.0645  0.0943
  166SAPE   H6R18700   5.587   1.756   7.071 -0.4535 -1.5001 -0.1667
  166SAPE   C2718701   5.671   1.547   7.063 -0.3814 -0.4191  0.0848
  166SAPE   H7R18702   5.652   1.561   7.172 -0.7728  1.6498 -0.1978
  166SAPE   H7S18703   5.771   1.503   7.042  0.0252  0.0534  0.9365
  166SAPE   C2818704   5.556   1.471   6.999  0.3008 -0.4157  0.1467
  166SAPE   H8R18705   5.500   1.513   6.914  1.6651  0.9862 -0.1075
  166SAPE   C2918706   5.527   1.350   7.044  0.9420  0.6504 -0.1184
  166SAPE   H9R18707   5.458   1.287   6.986  1.6252 -1.9913  1.7611
  166SAPE  C21018708   5.579   1.276   7.163 -0.3998 -0.4611  0.0086
  166SAPE  H10R18709   5.506   1.224   7.227  1.0509 -0.8063  1.4556
  166SAPE  H10S18710   5.633   1.345   7.231  0.1011 -1.5942  0.7997
  166SAPE  C21118711   5.674   1.172   7.115 -0.7224 -0.5153 -0.2195
  166SAPE  H11R18712   5.625   1.101   7.048 -1.1948 -1.3329  0.9530
  166SAPE  C21218713   5.800   1.161   7.152 -0.6305  0.2312  0.2968
  166SAPE  H12R18714   5.852   1.084   7.092 -0.3038  0.6711  0.0107
  166SAPE  C21318715   5.890   1.236   7.247 -0.3654  0.3751 -0.3858
  166SAPE  H13R18716   5.896   1.339   7.207  2.2748 -0.5259 -2.6241
  166SAPE  H13S18717   5.996   1.203   7.244 -0.3435  0.4585 -0.5220
  166SAPE  C21418718   5.847   1.231   7.391  0.3892 -0.3758  0.1517
  166SAPE  H14R18719   5.739   1.242   7.407  0.4028 -0.6026  0.4096
  166SAPE  C21518720   5.925   1.218   7.500  0.0309 -0.0965  0.3765
  166SAPE  H15R18721   5.870   1.220   7.596  1.2426 -1.8099  1.1723
  166SAPE  C21618722   6.075   1.198   7.523  0.0909 -0.8553 -0.5204
  166SAPE  H16R18723   6.123   1.165   7.428  0.7676 -0.0812 -0.4581
  166SAPE  H16S18724   6.086   1.119   7.601 -4.2653 -1.6970 -0.5098
  166SAPE  C21718725   6.147   1.330   7.560  0.7266 -0.5531  0.0855
  166SAPE  H17R18726   6.106   1.414   7.499  0.3008  0.8279  2.1662
  166SAPE  H17S18727   6.254   1.314   7.534  0.3463 -3.1319 -0.0828
  166SAPE  C21818728   6.128   1.376   7.705 -0.5104  0.2448 -0.0874
  166SAPE  H18R18729   6.032   1.431   7.698 -0.7607  0.1784  2.2607
  166SAPE  H18S18730   6.210   1.448   7.729 -0.6176  0.6423 -0.8858
  166SAPE  C21918731   6.120   1.276   7.820  0.0245 -0.4163 -0.0046
  166SAPE  H19R18732   6.037   1.203   7.805  0.9308 -1.5378  0.2424
  166SAPE  H19S18733   6.081   1.336   7.904  0.0272 -1.2195  0.5836
  166SAPE  C22018734   6.245   1.206   7.863 -0.7365  0.4380 -0.6427
  166SAPE  H20R18735   6.216   1.140   7.948 -2.5241 -0.3313 -1.7969
  166SAPE  H20S18736   6.335   1.267   7.888  0.8138 -1.0658 -2.2282
  166SAPE  H20T18737   6.278   1.140   7.780 -1.4242 -0.5503 -0.1463
  166SAPE   C3318738   6.282   1.456   7.090 -0.2381  0.4158 -0.3282
  166SAPE   H3X18739   6.391   1.477   7.102 -0.5751  1.3466  1.4256
  166SAPE   H3Y18740   6.248   1.375   7.157  0.4365 -0.6411 -1.2309
  166SAPE   C3418741   6.192   1.578   7.117 -0.4788 -0.0165  0.6405
  166SAPE   H4X18742   6.096   1.565   7.062  1.2581  2.0061 -3.1613
  166SAPE   H4Y18743   6.238   1.669   7.074 -1.8824  0.6690  0.5299
  166SAPE   C3518744   6.149   1.593   7.261 -0.0235  0.4210 -0.3754
  166SAPE   H5X18745   6.244   1.597   7.319  0.3683 -0.0934 -0.9655
  166SAPE   H5Y18746   6.088   1.508   7.298  1.9750 -1.0071 -0.2245
  166SAPE   C3618747   6.062   1.717   7.269  0.3324 -0.3220 -0.1431
  166SAPE   H6X18748   5.984   1.708   7.190 -0.7941 -2.1490  1.1137
  166SAPE   H6Y18749   6.131   1.799   7.239  0.6414 -0.6109 -0.2320
  166SAPE   C3718750   5.996   1.748   7.400  0.5726 -0.2905 -0.2477
  166SAPE   H7X18751   5.911   1.680   7.423  1.4399 -1.9860 -1.8576
  166SAPE   H7Y18752   5.968   1.855   7.405  1.8261  0.0841 -0.7875
  166SAPE   C3818753   6.087   1.734   7.518  0.4110 -0.0805 -0.0708
  166SAPE   H8X18754   6.186   1.781   7.504  0.6705 -0.0724  1.6398
  166SAPE   H8Y18755   6.111   1.627   7.538 -3.2154 -1.1090 -0.4777
  166SAPE   C3918756   6.022   1.805   7.643 -0.1659  0.0135  0.2943
  166SAPE   H9X18757   5.918   1.773   7.667  0.9879 -3.3469  1.3536
  166SAPE   H9Y18758   6.013   1.911   7.611  1.6521  0.9595  2.6420
  166SAPE  C31018759   6.109   1.809   7.769 -0.1283  0.5815 -0.1760
  166SAPE  H10X18760   6.213   1.843   7.747 -0.2698  1.9072  1.0486
  166SAPE  H10Y18761   6.123   1.702   7.797 -0.9602  0.5521  0.1381
  166SAPE  C31118762   6.038   1.869   7.894 -0.8297  0.0580  0.7891
  166SAPE  H11X18763   5.930   1.843   7.903 -2.2577  4.4189 -1.0226
  166SAPE  H11Y18764   6.031   1.976   7.863  3.4452  0.0757 -0.6657
  166SAPE  C31218765   6.107   1.853   8.027 -0.2879 -0.0214  0.0367
  166SAPE  H12X18766   6.187   1.930   8.035  1.0546 -1.4163  0.7345
  166SAPE  H12Y18767   6.152   1.752   8.026 -0.2315  0.0009  0.1824
  166SAPE  C31318768   6.019   1.859   8.150  0.0029 -0.0346  0.0092
  166SAPE  H13X18769   5.952   1.771   8.147 -0.4409  0.2984  0.1910
  166SAPE  H13Y18770   5.955   1.949   8.145 -2.7935 -1.8737  0.2741
  166SAPE  C31418771   6.101   1.863   8.278  0.3346 -0.1304  0.1413
  166SAPE  H14X18772   6.170   1.950   8.278  0.0558  0.0972  0.7409
  166SAPE  H14Y18773   6.168   1.775   8.286  1.8417  1.1203  2.6644
  166SAPE  C31518774   6.007   1.858   8.402 -0.3399  0.8272 -0.0049
  166SAPE  H15X18775   5.928   1.780   8.390  0.0330  0.5834 -0.9448
  166SAPE  H15Y18776   5.950   1.952   8.409 -2.1614 -0.3460  3.0714
  166SAPE  C31618777   6.097   1.865   8.522  0.3160  0.3640 -0.3495
  166SAPE  H16X18778   6.162   1.952   8.500  0.3543 -0.3180 -3.3978
  166SAPE  H16Y18779   6.153   1.769   8.529  0.9997  0.8607  1.7968
  166SAPE  C31718780   6.026   1.892   8.652  0.3060 -0.5765  0.2035
  166SAPE  H17X18781   5.941   1.822   8.662 -1.0366  0.7346 -1.3449
  166SAPE  H17Y18782   5.974   1.991   8.652 -0.5577 -0.9922  1.9054
  166SAPE  C31818783   6.128   1.878   8.766  0.6413 -0.6687 -0.3146
  166SAPE  H18X18784   6.164   1.775   8.787  1.4998 -0.2766  0.2231
  166SAPE  H18Y18785   6.076   1.912   8.857  0.5587 -0.9117 -0.2724
  166SAPE  H18Z18786   6.213   1.947   8.747  0.4256 -0.4549 -0.5082
  167SAPE     N18787   1.828   5.341   6.574 -0.5229  0.3263  1.1749
  167SAPE   HN118788   1.858   5.362   6.476 -1.2852  0.8373  1.0440
  167SAPE   HN218789   1.737   5.293   6.584 -1.8856  2.7113  1.0632
  167SAPE   HN318790   1.815   5.439   6.608  0.5037  0.9541 -0.1409
  167SAPE   C1218791   1.937   5.261   6.646  0.2370 -0.3027 -0.5407
  167SAPE  H12A18792   1.974   5.178   6.582  0.3568 -1.2353  0.6980
  167SAPE  H12B18793   1.895   5.223   6.742  0.3512 -1.0956 -0.7974
  167SAPE   C1118794   2.064   5.350   6.687  0.3243  0.1680 -0.3255
  167SAPE  H11A18795   2.136   5.281   6.736 -0.9642 -0.6482  0.4915
  167SAPE  H11B18796   2.030   5.423   6.763 -0.3167  0.5337 -0.9556
  167SAPE     P18797   2.245   5.411   6.507  0.0380  0.7834  0.1315
  167SAPE   O1318798   2.231   5.276   6.453  0.0752  0.3615  0.3014
  167SAPE   O1418799   2.254   5.523   6.409 -0.8626  0.3184  0.5435
  167SAPE   O1218800   2.123   5.437   6.588  0.2882 -0.2880  0.7564
  167SAPE   O1118801   2.355   5.401   6.622  0.1346 -0.5568 -0.9248
  167SAPE    C118802   2.368   5.521   6.712  0.1426  0.1932  0.0834
  167SAPE    HA18803   2.433   5.597   6.664  0.5137  1.0423  1.8502
  167SAPE    HB18804   2.272   5.572   6.739 -0.4526 -0.1380 -1.3011
  167SAPE    C218805   2.421   5.477   6.852  0.2812  0.2213 -0.2619
  167SAPE    HS18806   2.400   5.560   6.923 -3.3744  0.1282 -1.0367
  167SAPE   O2118807   2.557   5.444   6.831  0.0419  0.3112  0.3460
  167SAPE   C2118808   2.639   5.545   6.810  0.1218  0.0112 -0.0623
  167SAPE   O2218809   2.604   5.660   6.825  0.0714  0.1927  0.2893
  167SAPE   C2218810   2.768   5.481   6.758  0.4716 -0.3096  0.6734
  167SAPE   H2R18811   2.779   5.383   6.808  0.1494 -1.0697 -0.7018
  167SAPE   H2S18812   2.766   5.452   6.651  1.3500  0.7277  0.3594
  167SAPE    C318813   2.349   5.351   6.909  0.2682  0.5781  1.0941
  167SAPE    HX18814   2.414   5.287   6.972 -0.1292 -1.0151 -0.0638
  167SAPE    HY18815   2.335   5.292   6.816  2.2996  0.6011  0.7372
  167SAPE   O3118816   2.217   5.378   6.978 -0.2782 -0.4458 -0.0162
  167SAPE   C3118817   2.229   5.378   7.107 -0.0402 -0.3481 -1.5348
  167SAPE   O3218818   2.330   5.379   7.172 -0.0677 -0.8081 -0.4259
  167SAPE   C3218819   2.092   5.355   7.154  0.0329 -0.5170 -0.4190
  167SAPE   H2X18820   2.068   5.249   7.132 -0.7378 -0.4824  0.2002
  167SAPE   H2Y18821   2.014   5.407   7.095 -1.8027 -2.5333  0.0870
  167SAPE   C2318822   2.894   5.565   6.790 -0.2252 -0.0809 -0.2609
  167SAPE   H3R18823   2.900   5.669   6.749  0.5086  0.1660  0.4342
  167SAPE   H3S18824   2.977   5.520   6.732 -1.6962  0.1502 -2.6887
  167SAPE   C2418825   2.942   5.572   6.937 -0.2758 -0.5908  0.3869
  167SAPE   H4R18826   2.862   5.633   6.986  1.5160 -1.1132  4.3914
  167SAPE   H4S18827   3.036   5.632   6.938 -0.6259  0.0185 -0.9509
  167SAPE   C2518828   2.961   5.431   6.998  0.2986 -0.1505  0.7400
  167SAPE   H5R18829   2.999   5.358   6.925  0.8744  1.0799 -0.2262
  167SAPE   C2618830   2.927   5.395   7.123 -0.7195  0.6228 -0.3279
  167SAPE   H6R18831   2.924   5.291   7.157 -1.1148  1.5606  2.8081
  167SAPE   C2718832   2.860   5.492   7.223 -0.6350  0.2412 -0.0435
  167SAPE   H7R18833   2.923   5.584   7.220 -1.4913  0.8630  0.5947
  167SAPE   H7S18834   2.870   5.454   7.327  1.2648  3.7461  1.2339
  167SAPE   C2818835   2.718   5.527   7.190  0.2532 -0.5904  0.4041
  167SAPE   H8R18836   2.711   5.575   7.091  1.3390 -1.9496 -0.3549
  167SAPE   C2918837   2.614   5.547   7.277  1.2208 -0.2131 -0.1606
  167SAPE   H9R18838   2.513   5.576   7.244  0.7250  1.2773  2.4277
  167SAPE  C21018839   2.612   5.524   7.430  0.2420 -0.6259 -0.0546
  167SAPE  H10R18840   2.624   5.618   7.488 -0.6193 -0.4330 -0.1861
  167SAPE  H10S18841   2.712   5.478   7.451  1.5590  1.9277 -0.2987
  167SAPE  C21118842   2.494   5.459   7.493 -0.1558 -0.0758  0.7648
  167SAPE  H11R18843   2.413   5.449   7.420  0.0381  2.3405  0.1435
  167SAPE  C21218844   2.478   5.411   7.620  0.4057  0.3187 -0.3540
  167SAPE  H12R18845   2.377   5.377   7.645  0.3422  1.0654  0.4466
  167SAPE  C21318846   2.584   5.406   7.729  0.8068  0.2752  0.0914
  167SAPE  H13R18847   2.664   5.336   7.695 -1.5954 -2.8728  0.5015
  167SAPE  H13S18848   2.555   5.341   7.815 -1.1306 -0.0717 -0.7874
  167SAPE  C21418849   2.633   5.545   7.769  0.0739 -0.1570  0.4967
  167SAPE  H14R18850   2.580   5.624   7.714  1.5487 -0.4021 -1.3822
  167SAPE  C21518851   2.712   5.575   7.876 -0.4063  0.2299 -0.2050
  167SAPE  H15R18852   2.744   5.680   7.884  1.0312  0.0653 -2.7550
  167SAPE  C21618853   2.759   5.464   7.972  0.7492  0.6859  0.0844
  167SAPE  H16R18854   2.865   5.435   7.955  0.2639 -1.3996  0.3287
  167SAPE  H16S18855   2.698   5.372   7.979  0.8511  0.6548  0.6968
  167SAPE  C21718856   2.772   5.530   8.111  0.1213  0.3909 -0.0671
  167SAPE  H17R18857   2.673   5.573   8.137 -0.5862  0.4032 -2.5471
  167SAPE  H17S18858   2.845   5.613   8.104 -1.6577  2.1225  0.6560
  167SAPE  C21818859   2.803   5.436   8.225 -0.2674  0.5431 -0.1857
  167SAPE  H18R18860   2.899   5.386   8.200  0.0480  1.7921 -1.6249
  167SAPE  H18S18861   2.728   5.360   8.256 -1.6461  2.7223  2.2343
  167SAPE  C21918862   2.831   5.516   8.352  0.1328 -0.6974  0.1870
  167SAPE  H19R18863   2.731   5.551   8.385  0.8141 -1.1228  3.0022
  167SAPE  H19S18864   2.901   5.598   8.325  0.2232 -0.6081  0.6914
  167SAPE  C22018865   2.899   5.439   8.466  0.4933  0.2354  0.6217
  167SAPE  H20R18866   2.982   5.375   8.427 -0.2311 -0.2362 -0.1806
  167SAPE  H20S18867   2.822   5.388   8.527  0.4602  1.7581  1.8844
  167SAPE  H20T18868   2.938   5.510   8.541 -2.2528  0.1342  2.2672
  167SAPE   C3318869   2.067   5.384   7.306  0.1889 -0.0141  0.3566
  167SAPE   H3X18870   2.146   5.331   7.363  0.1883 -0.3311  0.0651
  167SAPE   H3Y18871   1.968   5.336   7.324  1.2950 -2.0091  1.4114
  167SAPE   C3418872   2.045   5.530   7.341 -1.0184  0.4358  0.7466
  167SAPE   H4X18873   1.979   5.561   7.258 -0.8103 -1.5225 -0.2060
  167SAPE   H4Y18874   2.143   5.582   7.336 -2.1577  2.6850  0.4647
  167SAPE   C3518875   1.986   5.550   7.483 -0.5625 -0.0406 -0.0065
  167SAPE   H5X18876   1.876   5.532   7.485 -0.6924  0.6904 -0.2698
  167SAPE   H5Y18877   1.987   5.653   7.525 -0.2521  0.7770 -1.9127
  167SAPE   C3618878   2.057   5.475   7.592  0.3636  0.0253  0.0856
  167SAPE   H6X18879   2.161   5.513   7.582 -0.2929  2.2113  0.8801
  167SAPE   H6Y18880   2.068   5.367   7.567  0.0115 -0.0653  0.3112
  167SAPE   C3718881   1.994   5.494   7.732 -0.3462  0.0124 -0.6377
  167SAPE   H7X18882   1.888   5.463   7.730  0.0907 -1.6298 -0.0797
  167SAPE   H7Y18883   1.986   5.603   7.748 -0.7968  0.3159 -2.6498
  167SAPE   C3818884   2.082   5.421   7.833  0.3870 -0.0035 -0.5978
  167SAPE   H8X18885   2.177   5.478   7.840 -0.4628  1.3954  0.1743
  167SAPE   H8Y18886   2.101   5.316   7.803 -0.2303 -0.8360  1.6763
  167SAPE   C3918887   2.017   5.411   7.971 -0.2044  0.6909 -0.4895
  167SAPE   H9X18888   1.933   5.341   7.953  2.2745 -2.2147 -1.7956
  167SAPE   H9Y18889   1.975   5.501   8.021 -2.1027 -1.1788  1.4570
  167SAPE  C31018890   2.110   5.331   8.069  0.2118 -0.1793 -0.1229
  167SAPE  H10X18891   2.208   5.383   8.077 -0.2067  0.3519  2.3412
  167SAPE  H10Y18892   2.132   5.232   8.023  1.1170 -1.6743  3.1958
  167SAPE  C31118893   2.058   5.288   8.208 -0.3252 -0.2177 -0.2376
  167SAPE  H11X18894   2.068   5.384   8.263  2.0562  1.0104 -2.5996
  167SAPE  H11Y18895   2.132   5.211   8.241 -1.3185 -0.8905  0.4928
  167SAPE  C31218896   1.913   5.244   8.205 -0.2863  0.4480  1.0885
  167SAPE  H12X18897   1.847   5.308   8.143 -0.4785  0.8624  1.7132
  167SAPE  H12Y18898   1.874   5.264   8.307  0.3264 -0.2638  1.4690
  167SAPE  C31318899   1.919   5.101   8.152  0.4303 -0.3515 -0.2386
  167SAPE  H13X18900   1.995   5.041   8.207  0.2347 -1.4472 -1.1184
  167SAPE  H13Y18901   1.940   5.084   8.044 -0.4588 -0.3894 -0.4058
  167SAPE  C31418902   1.784   5.032   8.179  0.1336 -0.0796 -0.4838
  167SAPE  H14X18903   1.792   4.937   8.122  1.5683 -0.0069 -0.4521
  167SAPE  H14Y18904   1.695   5.086   8.142 -0.8487 -2.1926 -1.3548
  167SAPE  C31518905   1.765   5.000   8.329  0.7355  0.4904  0.3475
  167SAPE  H15X18906   1.722   5.086   8.384 -3.1390 -1.5502  0.8387
  167SAPE  H15Y18907   1.865   4.972   8.367 -0.2828 -1.5182  1.7101
  167SAPE  C31618908   1.665   4.881   8.352  0.1421 -0.5556 -0.0185
  167SAPE  H16X18909   1.690   4.796   8.284 -0.4904 -0.5412 -0.2804
  167SAPE  H16Y18910   1.565   4.927   8.334  0.6601  2.3095  3.4717
  167SAPE  C31718911   1.679   4.821   8.495  0.1386 -0.0363 -0.4173
  167SAPE  H17X18912   1.705   4.907   8.561 -1.6331 -0.0490  0.3456
  167SAPE  H17Y18913   1.771   4.758   8.505 -0.3156 -0.5196  1.0914
  167SAPE  C31818914   1.558   4.744   8.534  0.3858  0.6835  0.1318
  167SAPE  H18X18915   1.514   4.671   8.464  0.6610  2.3476 -1.8814
  167SAPE  H18Y18916   1.473   4.814   8.549  1.1818  1.4781  1.1405
  167SAPE  H18Z18917   1.566   4.698   8.635 -0.5585  2.5394  1.1007
  168SAPE     N18918   2.767   1.361   6.284  0.3365  0.2735  0.0300
  168SAPE   HN118919   2.804   1.406   6.198 -2.0462  1.8925 -0.2625
  168SAPE   HN218920   2.742   1.262   6.264  0.3297  0.5065 -1.2188
  168SAPE   HN318921   2.677   1.412   6.292  1.3706  2.6034 -1.8520
  168SAPE   C1218922   2.861   1.355   6.398  0.5293  0.0108  0.7637
  168SAPE  H12A18923   2.941   1.281   6.374  1.1893  0.9682 -0.0955
  168SAPE  H12B18924   2.798   1.327   6.485 -1.4015 -0.6456 -0.7806
  168SAPE   C1118925   2.928   1.493   6.417  0.5665  0.4392  0.2975
  168SAPE  H11A18926   2.993   1.506   6.328  0.0083  0.9143 -0.0474
  168SAPE  H11B18927   2.990   1.482   6.509  1.3520 -0.7542 -0.3506
  168SAPE     P18928   2.759   1.636   6.564 -0.5318 -0.0270 -0.1983
  168SAPE   O1318929   2.744   1.782   6.571  0.4602 -0.4979 -0.2765
  168SAPE   O1418930   2.641   1.548   6.578  0.1663 -0.0788 -0.2575
  168SAPE   O1218931   2.844   1.608   6.430  0.3938 -0.2460  0.1962
  168SAPE   O1118932   2.868   1.592   6.670 -0.1418 -0.0214 -0.3498
  168SAPE    C118933   2.974   1.688   6.696  0.1556  0.1396 -0.1510
  168SAPE    HA18934   3.076   1.650   6.672  0.6079  0.7227  0.7575
  168SAPE    HB18935   2.975   1.780   6.633  0.6572  1.2122  1.3683
  168SAPE    C218936   2.955   1.729   6.846 -0.3564  0.2815  0.8657
  168SAPE    HS18937   3.046   1.780   6.883  0.3768  0.4853 -1.1241
  168SAPE   O2118938   2.933   1.621   6.937 -0.4317  0.3152 -0.0634
  168SAPE   C2118939   3.037   1.540   6.950  0.2107  0.4396  0.5783
  168SAPE   O2218940   3.144   1.543   6.884  0.3003 -0.2828 -0.2687
  168SAPE   C2218941   2.990   1.427   7.044 -0.0847  0.5249 -0.2313
  168SAPE   H2R18942   2.884   1.409   7.015 -0.1641 -1.9976  1.3351
  168SAPE   H2S18943   3.047   1.333   7.035 -0.8125 -0.4424  3.5091
  168SAPE    C318944   2.844   1.840   6.866  0.8061 -0.8039  0.2872
  168SAPE    HX18945   2.756   1.808   6.807 -1.3122  2.6498  1.2210
  168SAPE    HY18946   2.874   1.936   6.818 -0.3663 -0.5266  0.0572
  168SAPE   O3118947   2.815   1.876   7.007 -0.3498 -0.5142  0.3730
  168SAPE   C3118948   2.727   1.795   7.069  0.0970 -0.0575 -0.8643
  168SAPE   O3218949   2.676   1.697   7.020  0.2972  0.7504 -0.3174
  168SAPE   C3218950   2.728   1.827   7.216 -0.2453  0.1100  0.1058
  168SAPE   H2X18951   2.789   1.919   7.226 -2.2816  1.6262 -0.8198
  168SAPE   H2Y18952   2.787   1.744   7.261 -0.6264 -1.2593 -1.7765
  168SAPE   C2318953   2.987   1.474   7.194 -0.1630  0.2144 -0.5155
  168SAPE   H3R18954   2.920   1.562   7.204 -1.3952 -0.3522 -2.8873
  168SAPE   H3S18955   3.086   1.511   7.227  0.0826 -1.1956  0.4407
  168SAPE   C2418956   2.940   1.377   7.296  0.7187  0.2774  0.3652
  168SAPE   H4R18957   2.988   1.405   7.392  1.4576 -0.9275  0.3736
  168SAPE   H4S18958   2.980   1.274   7.288 -1.3849 -0.4543 -2.4201
  168SAPE   C2518959   2.792   1.351   7.306 -0.4336  0.3911 -0.0618
  168SAPE   H5R18960   2.730   1.387   7.223 -0.4417  0.2201 -0.1297
  168SAPE   C2618961   2.734   1.272   7.406 -0.3154 -0.2534  0.0429
  168SAPE   H6R18962   2.625   1.280   7.411 -0.4664 -1.3104 -1.0788
  168SAPE   C2718963   2.806   1.197   7.517  0.3952  0.5932  1.3026
  168SAPE   H7R18964   2.905   1.165   7.480 -0.0226  0.9277 -0.1652
  168SAPE   H7S18965   2.746   1.109   7.546 -1.0862  0.6353 -1.3728
  168SAPE   C2818966   2.825   1.296   7.630  0.3800 -0.3961 -1.3523
  168SAPE   H8R18967   2.897   1.372   7.597  0.6461  0.9384  1.9293
  168SAPE   C2918968   2.752   1.309   7.745 -0.3095 -0.7360 -0.0872
  168SAPE   H9R18969   2.761   1.400   7.806  1.5414 -1.0197  0.1045
  168SAPE  C21018970   2.634   1.219   7.777  0.3926  0.8092 -0.6903
  168SAPE  H10R18971   2.589   1.174   7.685 -1.7847  1.2725  0.0734
  168SAPE  H10S18972   2.560   1.291   7.817  1.8629  1.6824  0.5541
  168SAPE  C21118973   2.691   1.109   7.872 -0.3223  0.0152  0.3740
  168SAPE  H11R18974   2.767   1.048   7.821  1.5142  2.4128  0.0619
  168SAPE  C21218975   2.649   1.091   7.999  0.4711 -0.3983 -0.9550
  168SAPE  H12R18976   2.698   1.014   8.060 -1.9034  0.4746  2.3276
  168SAPE  C21318977   2.542   1.164   8.069  0.5913 -0.1370 -0.4089
  168SAPE  H13R18978   2.496   1.241   8.003  2.8188 -0.1207 -2.1148
  168SAPE  H13S18979   2.604   1.218   8.144  1.6674 -1.8785  0.0023
  168SAPE  C21418980   2.441   1.063   8.125 -0.2401 -0.0858  0.6806
  168SAPE  H14R18981   2.394   0.995   8.052 -1.8062  1.7946 -0.1536
  168SAPE  C21518982   2.412   1.048   8.254  0.6215  0.2749  0.9888
  168SAPE  H15R18983   2.335   0.973   8.278  0.7098 -0.5824 -1.1325
  168SAPE  C21618984   2.463   1.118   8.371 -0.3107 -0.2718  0.3173
  168SAPE  H16R18985   2.380   1.152   8.437 -0.8866 -1.3260  0.1581
  168SAPE  H16S18986   2.512   1.215   8.351 -0.0054 -0.8096 -1.6722
  168SAPE  C21718987   2.567   1.035   8.453  0.1718 -0.2126  0.2199
  168SAPE  H17R18988   2.642   1.088   8.515  0.9869 -0.3998 -0.5786
  168SAPE  H17S18989   2.624   0.974   8.381 -1.2742 -0.1704 -1.0184
  168SAPE  C21818990   2.506   0.929   8.549  0.6709 -0.2866  0.2947
  168SAPE  H18R18991   2.426   0.869   8.500  0.2892 -0.1537  0.7447
  168SAPE  H18S18992   2.464   1.001   8.623  0.8362  0.8803 -0.7029
  168SAPE  C21918993   2.605   0.832   8.613  0.1848  0.7840 -0.2365
  168SAPE  H19R18994   2.633   0.751   8.543 -0.8021  0.9295 -0.8225
  168SAPE  H19S18995   2.551   0.777   8.693 -0.6038 -0.6004 -1.6748
  168SAPE  C22018996   2.720   0.906   8.683 -0.5595  0.1118  0.4728
  168SAPE  H20R18997   2.789   0.944   8.606 -1.3101 -1.6648 -1.1627
  168SAPE  H20S18998   2.779   0.835   8.746  1.9520 -0.4613 -2.3339
  168SAPE  H20T18999   2.687   0.987   8.752  1.0557 -0.0010  1.4235
  168SAPE   C3319000   2.588   1.840   7.277 -0.0452  0.0624  0.8563
  168SAPE   H3X19001   2.526   1.923   7.234 -1.1817  0.3936  3.0061
  168SAPE   H3Y19002   2.613   1.869   7.381  1.5458  1.4343  0.1358
  168SAPE   C3419003   2.509   1.716   7.286  0.4794  0.5812 -0.1026
  168SAPE   H4X19004   2.574   1.634   7.324  2.6408  2.9772  1.7204
  168SAPE   H4Y19005   2.467   1.690   7.186  2.2834 -0.0238 -0.7423
  168SAPE   C3519006   2.384   1.744   7.373 -0.1479 -0.0133 -0.5999
  168SAPE   H5X19007   2.300   1.674   7.350 -2.0926  1.1482  2.4419
  168SAPE   H5Y19008   2.343   1.846   7.361  0.7627  0.3816 -0.4418
  168SAPE   C3619009   2.429   1.715   7.521  0.4224  0.5777 -0.3131
  168SAPE   H6X19010   2.528   1.763   7.539 -0.1759  0.7224  3.3189
  168SAPE   H6Y19011   2.437   1.605   7.535 -0.7343  0.0169 -3.3218
  168SAPE   C3719012   2.333   1.766   7.629 -1.2941 -0.6331 -0.6444
  168SAPE   H7X19013   2.245   1.698   7.633 -0.2489 -2.0121 -0.4147
  168SAPE   H7Y19014   2.283   1.862   7.603  0.5322  0.3606 -0.6397
  168SAPE   C3819015   2.420   1.782   7.759  0.6974  0.5104 -0.6120
  168SAPE   H8X19016   2.510   1.838   7.724 -0.8607  1.2806 -3.7373
  168SAPE   H8Y19017   2.458   1.680   7.781  2.0286  1.0865 -0.1286
  168SAPE   C3919018   2.350   1.826   7.892 -0.4846  0.6073  0.3699
  168SAPE   H9X19019   2.257   1.768   7.910 -0.7777  0.8430 -0.3854
  168SAPE   H9Y19020   2.315   1.931   7.879 -0.9274  0.4366  0.1608
  168SAPE  C31019021   2.445   1.815   8.010 -0.3570  0.3942  0.5386
  168SAPE  H10X19022   2.541   1.868   7.995 -0.2202 -0.2621 -1.1812
  168SAPE  H10Y19023   2.469   1.707   8.024 -0.4540  0.3681  0.5019
  168SAPE  C31119024   2.385   1.870   8.137  0.2760  0.4213  0.1710
  168SAPE  H11X19025   2.323   1.793   8.188  1.1073 -0.6811 -0.4549
  168SAPE  H11Y19026   2.326   1.958   8.104  1.4667  0.8507 -0.8665
  168SAPE  C31219027   2.488   1.899   8.240  0.1209  0.2825  0.2863
  168SAPE  H12X19028   2.561   1.978   8.214 -0.1486 -0.0274 -1.5387
  168SAPE  H12Y19029   2.559   1.814   8.249  0.6935  0.8300  1.0785
  168SAPE  C31319030   2.422   1.951   8.364 -0.2766 -0.6708 -0.1998
  168SAPE  H13X19031   2.504   1.972   8.436  0.3575 -1.1829 -0.7606
  168SAPE  H13Y19032   2.353   1.885   8.421 -0.1649  0.2968  1.0943
  168SAPE  C31419033   2.346   2.077   8.330  0.3820 -0.2228  0.1310
  168SAPE  H14X19034   2.257   2.050   8.270 -0.1387 -1.8662  1.5583
  168SAPE  H14Y19035   2.398   2.136   8.252 -0.9519 -1.8211 -2.0670
  168SAPE  C31519036   2.311   2.163   8.458 -0.1601  0.0091 -0.2432
  168SAPE  H15X19037   2.275   2.092   8.536 -0.5076  1.3612  0.8790
  168SAPE  H15Y19038   2.232   2.228   8.414 -2.0349 -1.2880  1.0037
  168SAPE  C31619039   2.436   2.243   8.506  0.6738 -0.4348 -0.0377
  168SAPE  H16X19040   2.487   2.287   8.419 -0.6977  0.7064 -0.3027
  168SAPE  H16Y19041   2.512   2.172   8.545 -0.0846 -0.8462  0.7447
  168SAPE  C31719042   2.403   2.341   8.622  0.4194  0.2277 -0.3650
  168SAPE  H17X19043   2.338   2.291   8.697  2.2275  1.5654  2.2695
  168SAPE  H17Y19044   2.345   2.426   8.579 -2.5023 -0.9250  1.0460
  168SAPE  C31819045   2.534   2.394   8.696 -0.6314 -0.0431 -0.4833
  168SAPE  H18X19046   2.614   2.436   8.631 -0.4713  0.6156  0.1268
  168SAPE  H18Y19047   2.585   2.312   8.751  1.3949  1.0039 -0.7171
  168SAPE  H18Z19048   2.509   2.472   8.771 -2.0133  1.0727 -2.0550
  169SAPE     N19049   2.951   3.883   6.358  0.2588  0.4132  0.3896
  169SAPE   HN119050   3.004   3.794   6.357 -0.8589 -0.2773 -0.2268
  169SAPE   HN219051   2.872   3.852   6.419  0.6923 -0.0729  0.7066
  169SAPE   HN319052   2.917   3.893   6.260 -0.0485  1.5600  0.5957
  169SAPE   C1219053   3.024   4.005   6.416  0.6839 -0.1303 -0.1683
  169SAPE  H12A19054   2.942   4.080   6.411 -0.0529 -0.7986  1.2891
  169SAPE  H12B19055   3.107   4.038   6.349  0.3796  1.6409  0.2670
  169SAPE   C1119056   3.063   3.974   6.560  0.1193  0.3807  0.4577
  169SAPE  H11A19057   2.977   3.950   6.626 -1.4295  2.3682 -0.7372
  169SAPE  H11B19058   3.099   4.071   6.600  1.4717  0.4692 -0.8726
  169SAPE     P19059   3.169   3.732   6.583  0.1200 -0.0296  0.1364
  169SAPE   O1319060   3.119   3.685   6.453  0.4941  0.6361 -0.3876
  169SAPE   O1419061   3.299   3.689   6.633 -0.0769  0.5795  0.0655
  169SAPE   O1219062   3.180   3.889   6.566  0.3125 -1.1322  1.0127
  169SAPE   O1119063   3.058   3.709   6.708  0.5113 -0.5982  0.1642
  169SAPE    C119064   3.104   3.723   6.840 -0.7703  0.3581 -0.3130
  169SAPE    HA19065   3.148   3.632   6.885 -1.1290  0.1296 -0.4195
  169SAPE    HB19066   3.172   3.810   6.851 -0.5896  0.2695 -0.6768
  169SAPE    C219067   2.983   3.746   6.936  0.5823 -0.0891  0.3773
  169SAPE    HS19068   3.020   3.751   7.041 -2.4791 -0.7126  1.5715
  169SAPE   O2119069   2.886   3.637   6.925 -0.4151 -0.3406 -0.3686
  169SAPE   C2119070   2.916   3.526   6.991  0.0460 -0.3390  0.3953
  169SAPE   O2219071   3.027   3.506   7.046 -0.0117 -0.5818 -0.2399
  169SAPE   C2219072   2.801   3.426   6.999 -0.0219  0.1430  0.0891
  169SAPE   H2R19073   2.718   3.471   7.058 -0.3714  1.4903 -1.3599
  169SAPE   H2S19074   2.758   3.418   6.897 -1.8795 -0.7595  0.8946
  169SAPE    C319075   2.906   3.879   6.913 -0.0888  0.6608 -0.2823
  169SAPE    HX19076   2.833   3.851   6.834 -0.2796  0.6615 -0.1071
  169SAPE    HY19077   2.988   3.940   6.870  0.1515  0.6688  0.1854
  169SAPE   O3119078   2.842   3.921   7.041 -0.1768  0.0972  0.5619
  169SAPE   C3119079   2.736   3.985   7.030 -0.3844 -0.2316  0.2840
  169SAPE   O3219080   2.679   4.017   6.927  0.1724 -0.7228 -0.2952
  169SAPE   C3219081   2.697   4.040   7.165  0.1052 -0.3406  0.6018
  169SAPE   H2X19082   2.588   4.024   7.180  0.4911 -2.0924  1.7891
  169SAPE   H2Y19083   2.715   4.150   7.157  4.5197 -0.8349  1.4420
  169SAPE   C2319084   2.839   3.289   7.058  0.1136 -0.4312 -0.9577
  169SAPE   H3R19085   2.899   3.298   7.150  0.6021 -0.6525 -1.2475
  169SAPE   H3S19086   2.904   3.226   6.993 -0.5511 -3.6877  1.2681
  169SAPE   C2419087   2.718   3.200   7.086  0.1501  0.0312 -0.2576
  169SAPE   H4R19088   2.683   3.161   6.989  0.4537  0.4471 -0.5374
  169SAPE   H4S19089   2.637   3.258   7.136  0.1515 -0.6870  0.6027
  169SAPE   C2519090   2.753   3.081   7.177  0.4559 -0.2996  0.3529
  169SAPE   H5R19091   2.772   2.993   7.114  0.1643  0.9829 -1.6279
  169SAPE   C2619092   2.739   3.083   7.314 -0.3956  0.2988  0.2869
  169SAPE   H6R19093   2.800   3.011   7.370  0.4201  0.0044 -0.9548
  169SAPE   C2719094   2.693   3.206   7.398  0.0301 -0.0898  0.4286
  169SAPE   H7R19095   2.621   3.161   7.469  0.0162 -1.3644 -0.3482
  169SAPE   H7S19096   2.637   3.279   7.337  0.9318  1.5352  1.4752
  169SAPE   C2819097   2.802   3.287   7.459 -0.1558 -0.2836  0.1533
  169SAPE   H8R19098   2.817   3.387   7.417  3.3969 -0.4902  0.6715
  169SAPE   C2919099   2.884   3.253   7.559  0.4893 -0.4090  0.2890
  169SAPE   H9R19100   2.962   3.326   7.586  1.0162 -0.3777 -1.1813
  169SAPE  C21019101   2.872   3.123   7.629 -0.6196  0.5875  0.7074
  169SAPE  H10R19102   2.970   3.070   7.625 -0.2803  1.2569 -0.0057
  169SAPE  H10S19103   2.793   3.059   7.585 -1.9703  1.7743  1.3167
  169SAPE  C21119104   2.826   3.137   7.768  0.6896 -0.5408 -0.3316
  169SAPE  H11R19105   2.814   3.243   7.796 -0.6606 -0.4160 -1.2783
  169SAPE  C21219106   2.824   3.038   7.860 -0.4459 -0.4158  0.8694
  169SAPE  H12R19107   2.803   3.062   7.966 -1.2902  2.3720  0.1350
  169SAPE  C21319108   2.880   2.894   7.851  0.3171  0.4163 -0.5182
  169SAPE  H13R19109   2.974   2.894   7.909 -0.0848 -0.7184  0.1818
  169SAPE  H13S19110   2.892   2.869   7.743 -2.7100 -0.7284 -0.6936
  169SAPE  C21419111   2.776   2.805   7.919  0.0967  0.8592 -0.1886
  169SAPE  H14R19112   2.709   2.764   7.842 -0.8751  0.4477  0.8456
  169SAPE  C21519113   2.757   2.764   8.045  0.0782 -0.5368 -0.1678
  169SAPE  H15R19114   2.684   2.685   8.065  0.9134 -1.2791  0.0582
  169SAPE  C21619115   2.851   2.802   8.160  0.5969 -0.1571 -0.4936
  169SAPE  H16R19116   2.822   2.899   8.204  1.5870 -0.2376  0.3883
  169SAPE  H16S19117   2.959   2.809   8.134  0.5715 -1.8667 -1.2006
  169SAPE  C21719118   2.858   2.687   8.267  0.2503  0.6589  0.5266
  169SAPE  H17R19119   2.947   2.713   8.328  0.4114  0.9845  0.1570
  169SAPE  H17S19120   2.877   2.592   8.213 -1.4133  0.9671 -0.6866
  169SAPE  C21819121   2.737   2.690   8.362 -0.9004  1.0271 -0.4839
  169SAPE  H18R19122   2.647   2.642   8.318 -2.3999  1.6005  1.7636
  169SAPE  H18S19123   2.716   2.796   8.389  2.1333  1.5317  0.3006
  169SAPE  C21919124   2.775   2.621   8.498  0.1771  0.7066  0.7246
  169SAPE  H19R19125   2.806   2.515   8.486  2.9090  1.1525  2.7547
  169SAPE  H19S19126   2.679   2.621   8.554 -0.4312  1.8330 -0.2955
  169SAPE  C22019127   2.878   2.682   8.596 -0.1686 -0.0240 -0.2902
  169SAPE  H20R19128   2.856   2.787   8.622 -0.8942 -0.2369 -0.0235
  169SAPE  H20S19129   2.983   2.670   8.561  0.0329 -0.4015  0.4391
  169SAPE  H20T19130   2.873   2.622   8.689  1.0666  0.9030  0.3878
  169SAPE   C3319131   2.776   3.982   7.279 -0.8850 -0.0326 -0.0774
  169SAPE   H3X19132   2.880   4.020   7.274 -1.5596  1.6589 -2.8158
  169SAPE   H3Y19133   2.784   3.871   7.270  1.5753  0.1351 -0.6789
  169SAPE   C3419134   2.729   4.023   7.417  0.0949  0.5843 -0.0711
  169SAPE   H4X19135   2.620   4.005   7.429  0.1117  0.3322 -0.2793
  169SAPE   H4Y19136   2.728   4.134   7.410 -1.0467  0.5354 -1.1377
  169SAPE   C3519137   2.800   3.960   7.541  0.2488 -0.2262 -0.3568
  169SAPE   H5X19138   2.909   3.972   7.521  0.9368  0.3691  3.1169
  169SAPE   H5Y19139   2.778   3.857   7.575 -0.5400 -0.0425 -0.2807
  169SAPE   C3619140   2.772   4.050   7.656  0.8676 -0.0333 -0.6146
  169SAPE   H6X19141   2.665   4.062   7.683  1.1538 -0.2941  0.7342
  169SAPE   H6Y19142   2.809   4.153   7.636 -0.0014  0.5289  0.5204
  169SAPE   C3719143   2.837   3.998   7.784 -0.1127  0.4040  0.3765
  169SAPE   H7X19144   2.943   3.972   7.760  0.2802  1.0818  1.3266
  169SAPE   H7Y19145   2.783   3.907   7.817 -2.1021  1.1115 -0.7751
  169SAPE   C3819146   2.839   4.099   7.903 -0.0462 -0.0990  0.2536
  169SAPE   H8X19147   2.737   4.130   7.932  0.0532  0.7521 -0.2888
  169SAPE   H8Y19148   2.894   4.188   7.867  1.0400 -0.1075  1.7863
  169SAPE   C3919149   2.912   4.045   8.031 -0.3269 -0.4658  0.0809
  169SAPE   H9X19150   3.016   4.025   7.997 -0.4516 -0.6048 -0.2261
  169SAPE   H9Y19151   2.867   3.959   8.085 -1.2479 -0.0956 -0.0807
  169SAPE  C31019152   2.922   4.144   8.144 -0.0303  0.1710 -0.3802
  169SAPE  H10X19153   2.825   4.184   8.181  0.9573  1.8026  0.5348
  169SAPE  H10Y19154   2.967   4.239   8.109 -1.7040  1.2062  0.1967
  169SAPE  C31119155   2.987   4.091   8.275 -0.7108  0.9622  0.5425
  169SAPE  H11X19156   2.916   4.019   8.320 -2.1563  2.3597  0.5826
  169SAPE  H11Y19157   3.008   4.170   8.350 -0.1668  0.8018  0.5664
  169SAPE  C31219158   3.112   4.005   8.247  0.1446  0.8689 -0.2233
  169SAPE  H12X19159   3.177   4.076   8.191 -0.4329  1.0603 -0.6660
  169SAPE  H12Y19160   3.100   3.917   8.181  1.0734  2.0938 -2.1321
  169SAPE  C31319161   3.170   3.958   8.378 -0.2459  0.2491 -0.5277
  169SAPE  H13X19162   3.100   3.893   8.434 -1.0703  1.1486 -0.4695
  169SAPE  H13Y19163   3.183   4.048   8.442  0.0260  0.5351 -0.9839
  169SAPE  C31419164   3.300   3.883   8.355 -0.2804  0.1037 -0.0767
  169SAPE  H14X19165   3.371   3.948   8.299 -0.3873 -0.7611 -1.2284
  169SAPE  H14Y19166   3.272   3.812   8.275  0.8387  0.0323 -0.4231
  169SAPE  C31519167   3.366   3.824   8.479 -0.4432 -0.4007 -1.2098
  169SAPE  H15X19168   3.469   3.795   8.450 -0.3256 -1.9316  0.5775
  169SAPE  H15Y19169   3.321   3.724   8.498 -1.1345  0.2246  0.6731
  169SAPE  C31619170   3.373   3.920   8.602 -0.3534 -0.2609 -0.8910
  169SAPE  H16X19171   3.274   3.934   8.650  0.7579 -1.8666  2.1742
  169SAPE  H16Y19172   3.426   4.013   8.572  1.0905 -0.2064  1.5945
  169SAPE  C31719173   3.453   3.868   8.727  1.0671 -0.7840 -0.1870
  169SAPE  H17X19174   3.549   3.836   8.680  0.0951 -1.8241 -1.5404
  169SAPE  H17Y19175   3.402   3.774   8.758 -0.6952 -0.5399 -2.1210
  169SAPE  C31819176   3.461   3.967   8.841 -0.7358 -0.4525 -0.0153
  169SAPE  H18X19177   3.531   3.936   8.921 -0.7837  1.2499  0.7403
  169SAPE  H18Y19178   3.359   3.975   8.887  0.5732 -0.8977  3.2463
  169SAPE  H18Z19179   3.493   4.065   8.798 -0.8978 -1.4303 -2.4934
  170SAPE     N19180   3.749   1.958   6.293 -0.1853  0.2777 -0.3170
  170SAPE   HN119181   3.662   1.941   6.239 -1.5725  0.3864  1.7797
  170SAPE   HN219182   3.757   2.061   6.286  1.5504  0.1729 -0.3744
  170SAPE   HN319183   3.831   1.938   6.232 -0.4242  0.8651 -0.8414
  170SAPE   C1219184   3.748   1.889   6.427 -0.2029  0.1968  0.2063
  170SAPE  H12A19185   3.727   1.781   6.411 -0.1054  0.2511 -0.3167
  170SAPE  H12B19186   3.662   1.931   6.483 -1.0446 -1.5651  0.2920
  170SAPE   C1119187   3.886   1.912   6.491  1.0521 -0.1041  0.0272
  170SAPE  H11A19188   3.900   1.875   6.596 -2.1662 -0.4200  0.4275
  170SAPE  H11B19189   3.898   2.022   6.504  0.0714 -0.1919  2.1221
  170SAPE     P19190   4.026   1.712   6.389 -0.2351 -0.0868  0.1326
  170SAPE   O1319191   3.963   1.658   6.272  0.0414 -0.0102  0.0961
  170SAPE   O1419192   4.173   1.703   6.400  0.1812 -0.3868  0.7820
  170SAPE   O1219193   3.989   1.863   6.403  0.5505 -0.9444 -0.4983
  170SAPE   O1119194   3.958   1.639   6.514  0.1739 -0.4199  1.0638
  170SAPE    C119195   4.004   1.647   6.645  0.1321  0.3829  0.7680
  170SAPE    HA19196   4.048   1.748   6.661 -0.8446  0.9872 -0.2209
  170SAPE    HB19197   3.923   1.633   6.719 -1.6199  1.5745 -0.8439
  170SAPE    C219198   4.109   1.531   6.672  0.1452 -0.4785 -0.3130
  170SAPE    HS19199   4.174   1.537   6.582 -0.9757 -0.7281 -1.1605
  170SAPE   O2119200   4.033   1.409   6.680  0.4418  0.3282  0.3140
  170SAPE   C2119201   4.105   1.295   6.690  0.5264 -1.0591  0.5886
  170SAPE   O2219202   4.226   1.296   6.666 -0.0633  0.0888  0.9634
  170SAPE   C2219203   4.025   1.186   6.745  0.7693  1.2430 -0.4108
  170SAPE   H2R19204   3.916   1.208   6.748 -0.0517 -2.2675 -0.8345
  170SAPE   H2S19205   4.026   1.116   6.658  1.4613  0.8562 -0.0982
  170SAPE    C319206   4.200   1.564   6.795 -0.1419  0.8386 -0.8046
  170SAPE    HX19207   4.241   1.664   6.767  0.4460  0.1393 -2.5661
  170SAPE    HY19208   4.288   1.498   6.806  0.0777  0.6902 -2.9930
  170SAPE   O3119209   4.124   1.576   6.917  0.0023 -0.4127  0.2672
  170SAPE   C3119210   4.213   1.602   7.017 -0.0710  0.4063 -0.4640
  170SAPE   O3219211   4.329   1.627   7.001 -0.0329 -0.2334  0.5836
  170SAPE   C3219212   4.143   1.602   7.147 -0.4453  0.1784 -0.2065
  170SAPE   H2X19213   4.104   1.498   7.150 -0.3484  0.0134 -2.4869
  170SAPE   H2Y19214   4.052   1.665   7.147 -0.6215 -0.0731 -0.3204
  170SAPE   C2319215   4.087   1.119   6.867 -0.3433  0.4027  0.7396
  170SAPE   H3R19216   4.191   1.083   6.851 -0.8050 -1.4035  1.5924
  170SAPE   H3S19217   4.020   1.034   6.892  0.5916 -0.2203  1.2024
  170SAPE   C2419218   4.100   1.215   6.984  0.3520 -0.2700 -0.1366
  170SAPE   H4R19219   4.176   1.293   6.961  1.0232 -0.7019  0.5570
  170SAPE   H4S19220   4.152   1.157   7.064  1.0328  0.3511 -0.1106
  170SAPE   C2519221   3.969   1.264   7.033  0.5705  0.2776 -0.1262
  170SAPE   H5R19222   3.925   1.337   6.962  1.2521  2.0353  1.1955
  170SAPE   C2619223   3.901   1.235   7.146 -0.1328  0.4709 -0.3375
  170SAPE   H6R19224   3.815   1.292   7.181 -1.0339 -0.7872 -0.4381
  170SAPE   C2719225   3.950   1.130   7.241 -0.3969  0.5121  1.0838
  170SAPE   H7R19226   4.045   1.165   7.287 -1.0287  1.4042  1.7298
  170SAPE   H7S19227   3.979   1.042   7.179 -2.4811  1.0316 -0.7529
  170SAPE   C2819228   3.844   1.087   7.343  0.2202  0.1374 -0.0284
  170SAPE   H8R19229   3.766   1.030   7.291  2.8609 -3.0854 -0.7847
  170SAPE   C2919230   3.836   1.110   7.477  0.0177  0.9451 -0.0245
  170SAPE   H9R19231   3.768   1.052   7.540  1.7475 -2.6800 -1.2086
  170SAPE  C21019232   3.942   1.181   7.559  0.1408 -0.0639  0.0405
  170SAPE  H10R19233   4.041   1.189   7.510  0.5821 -1.0856  0.7439
  170SAPE  H10S19234   3.974   1.116   7.643  0.3637 -0.7615 -0.5780
  170SAPE  C21119235   3.909   1.319   7.610  0.0025 -0.3196 -0.1498
  170SAPE  H11R19236   3.873   1.389   7.533  0.4910  0.2065  0.0990
  170SAPE  C21219237   3.918   1.364   7.737  0.3429  0.2766 -0.0330
  170SAPE  H12R19238   3.905   1.472   7.753 -1.0191  0.0554  0.4715
  170SAPE  C21319239   3.958   1.283   7.861 -0.5332  0.1095 -0.3814
  170SAPE  H13R19240   4.047   1.327   7.912  2.0534 -3.3268 -1.5939
  170SAPE  H13S19241   3.995   1.182   7.835  3.0610  1.0381  0.5852
  170SAPE  C21419242   3.838   1.267   7.956 -0.3993 -0.3818  0.1217
  170SAPE  H14R19243   3.738   1.271   7.910 -1.1036 -1.2834  1.4968
  170SAPE  C21519244   3.840   1.255   8.087  0.3927  0.1690 -0.1334
  170SAPE  H15R19245   3.747   1.240   8.144  1.1904  2.3320  1.8787
  170SAPE  C21619246   3.967   1.242   8.166  0.4579  0.3065  0.0155
  170SAPE  H16R19247   4.055   1.242   8.098  0.3324  2.1337 -0.1950
  170SAPE  H16S19248   3.957   1.147   8.222 -0.3549  1.0581  1.2054
  170SAPE  C21719249   3.985   1.362   8.258 -0.1316  0.6938  0.6631
  170SAPE  H17R19250   3.895   1.382   8.320 -0.6173 -0.8407  0.4924
  170SAPE  H17S19251   4.007   1.446   8.190 -0.4970 -0.7542 -1.3386
  170SAPE  C21819252   4.093   1.340   8.361 -0.0455  0.0836 -0.8395
  170SAPE  H18R19253   4.183   1.292   8.316 -0.3358 -0.4335 -0.8677
  170SAPE  H18S19254   4.073   1.259   8.433 -3.1485  0.6288 -0.9585
  170SAPE  C21919255   4.129   1.465   8.442  0.0266  0.3844 -0.5670
  170SAPE  H19R19256   4.163   1.551   8.380  2.2758  0.3230  0.4747
  170SAPE  H19S19257   4.213   1.428   8.506 -0.3904 -0.1642 -0.3298
  170SAPE  C22019258   4.006   1.508   8.531 -0.1652 -0.3796 -0.4752
  170SAPE  H20R19259   3.917   1.442   8.523 -0.5703 -0.0515  0.9964
  170SAPE  H20S19260   3.994   1.616   8.510 -0.8716 -0.7598 -2.1571
  170SAPE  H20T19261   4.026   1.491   8.639 -3.3235 -1.7819 -0.0038
  170SAPE   C3319262   4.242   1.624   7.267  0.2537 -0.3252  0.1564
  170SAPE   H3X19263   4.272   1.730   7.252 -2.9535  0.6492 -0.2589
  170SAPE   H3Y19264   4.334   1.565   7.249  0.3217 -0.0596 -0.3881
  170SAPE   C3419265   4.197   1.595   7.411  0.5465  0.5437 -0.2193
  170SAPE   H4X19266   4.195   1.484   7.413 -0.5186  0.5483 -0.5735
  170SAPE   H4Y19267   4.092   1.630   7.416  0.5291  0.9482 -2.3888
  170SAPE   C3519268   4.292   1.658   7.520  0.6717 -0.0390  0.8946
  170SAPE   H5X19269   4.292   1.769   7.506 -1.9138 -0.3353 -3.1816
  170SAPE   H5Y19270   4.394   1.625   7.492 -0.1802 -1.1119 -1.1362
  170SAPE   C3619271   4.272   1.629   7.659  0.6552 -0.0667 -0.6227
  170SAPE   H6X19272   4.369   1.656   7.704  0.8534 -0.7144 -0.6449
  170SAPE   H6Y19273   4.238   1.525   7.681 -0.0174  0.3647  0.4839
  170SAPE   C3719274   4.153   1.724   7.715 -0.4023  0.0209 -0.8895
  170SAPE   H7X19275   4.062   1.713   7.652  0.1613  0.1022 -1.7373
  170SAPE   H7Y19276   4.193   1.828   7.718  3.0993 -1.2061 -1.1062
  170SAPE   C3819277   4.120   1.681   7.863 -0.0818  0.5410  0.5206
  170SAPE   H8X19278   4.209   1.642   7.916 -0.4185  1.5077  1.8637
  170SAPE   H8Y19279   4.045   1.600   7.865 -0.0026  0.3851  4.0479
  170SAPE   C3919280   4.068   1.795   7.947  0.4563 -0.3376 -0.5931
  170SAPE   H9X19281   3.976   1.834   7.898  0.1123 -1.1906 -0.6509
  170SAPE   H9Y19282   4.154   1.864   7.937  0.1178  0.0370 -0.9601
  170SAPE  C31019283   4.059   1.767   8.096 -0.2635  0.3625 -0.8149
  170SAPE  H10X19284   4.163   1.768   8.136 -0.3237  0.4077 -0.6586
  170SAPE  H10Y19285   4.040   1.658   8.103  0.1968  0.0677 -3.3755
  170SAPE  C31119286   3.958   1.859   8.166 -0.0608  0.5333  0.2532
  170SAPE  H11X19287   3.861   1.852   8.112  0.1247 -3.1235  0.1076
  170SAPE  H11Y19288   3.987   1.965   8.149 -1.4773  1.3861  2.6849
  170SAPE  C31219289   3.941   1.833   8.307  0.1759  0.1488  0.0133
  170SAPE  H12X19290   4.040   1.858   8.349 -0.1801 -0.4439  1.2456
  170SAPE  H12Y19291   3.921   1.727   8.331 -2.4486  0.0010 -2.2520
  170SAPE  C31319292   3.837   1.925   8.366 -0.1482 -0.4229  0.2889
  170SAPE  H13X19293   3.742   1.908   8.310 -0.9614 -0.7917  1.7159
  170SAPE  H13Y19294   3.866   2.031   8.352  2.8327 -1.2048 -0.2060
  170SAPE  C31419295   3.810   1.887   8.511 -0.6572  0.5866 -0.1951
  170SAPE  H14X19296   3.783   1.779   8.514 -3.3624  1.1655 -0.9619
  170SAPE  H14Y19297   3.724   1.941   8.556  0.9779  2.5969  0.6955
  170SAPE  C31519298   3.939   1.917   8.599  0.4779 -0.0371 -0.5348
  170SAPE  H15X19299   3.970   2.023   8.612  0.1696  0.0468 -0.4860
  170SAPE  H15Y19300   4.023   1.864   8.547  0.7365  0.8605 -1.0494
  170SAPE  C31619301   3.915   1.874   8.746  0.3115 -0.6085 -0.3474
  170SAPE  H16X19302   4.008   1.881   8.805  2.0644 -1.3453 -2.8251
  170SAPE  H16Y19303   3.883   1.768   8.756 -0.4856 -0.2507  1.1292
  170SAPE  C31719304   3.809   1.957   8.812 -0.1495 -0.3632  0.5045
  170SAPE  H17X19305   3.709   1.946   8.765 -0.7798  1.2351  1.4022
  170SAPE  H17Y19306   3.833   2.065   8.797 -1.0680 -0.1805  0.2976
  170SAPE  C31819307   3.789   1.930   8.961 -0.0809  0.4355  0.1502
  170SAPE  H18X19308   3.732   2.006   9.019 -0.7875  0.1218 -0.1273
  170SAPE  H18Y19309   3.886   1.914   9.013 -0.4336 -2.6747 -0.0017
  170SAPE  H18Z19310   3.725   1.839   8.963 -0.3499  0.6270  0.4652
  171SAPE     N19311   5.474   2.062   6.518  0.1762 -0.8664  0.6011
  171SAPE   HN119312   5.401   2.114   6.573 -1.5551 -1.0354 -1.4192
  171SAPE   HN219313   5.536   2.140   6.487 -1.5668 -0.6157 -2.6395
  171SAPE   HN319314   5.420   2.031   6.435  2.9466 -3.5330 -0.3697
  171SAPE   C1219315   5.553   1.953   6.599  0.7596 -0.3864  0.3864
  171SAPE  H12A19316   5.606   1.995   6.687  2.0869 -1.0730 -0.0605
  171SAPE  H12B19317   5.629   1.918   6.525 -2.2754  0.7804 -3.6271
  171SAPE   C1119318   5.452   1.839   6.633  0.5364 -0.7724  0.0574
  171SAPE  H11A19319   5.383   1.891   6.703  0.9682  0.0029 -0.0771
  171SAPE  H11B19320   5.494   1.758   6.697 -0.9835 -0.4540  1.5339
  171SAPE     P19321   5.423   1.650   6.460  0.3284 -0.2580  0.1868
  171SAPE   O1319322   5.338   1.623   6.348  0.3176  0.6464  0.5932
  171SAPE   O1419323   5.568   1.666   6.428  0.0784 -0.1521 -0.3542
  171SAPE   O1219324   5.374   1.791   6.520  0.3159  0.0723  0.0537
  171SAPE   O1119325   5.404   1.548   6.582 -0.0648 -0.3390 -0.0818
  171SAPE    C119326   5.274   1.484   6.602  0.3333  0.3199  0.5660
  171SAPE    HA19327   5.234   1.443   6.507  0.1193  2.2674 -0.2428
  171SAPE    HB19328   5.298   1.399   6.669  2.8985  1.1464  0.8357
  171SAPE    C219329   5.170   1.576   6.670  0.8692 -0.2001  0.1541
  171SAPE    HS19330   5.178   1.669   6.609 -0.3468  1.1047  1.8904
  171SAPE   O2119331   5.196   1.583   6.810 -0.6208  0.1231  0.3360
  171SAPE   C2119332   5.168   1.698   6.875 -0.4065 -0.1531  0.7358
  171SAPE   O2219333   5.126   1.798   6.819  0.1283 -0.3705  0.0200
  171SAPE   C2219334   5.180   1.677   7.026  0.3317  1.2052 -0.7079
  171SAPE   H2R19335   5.078   1.648   7.059  0.8763 -0.5036 -0.4291
  171SAPE   H2S19336   5.252   1.597   7.051 -3.0302 -1.7258  0.3138
  171SAPE    C319337   5.034   1.497   6.651  0.3907 -0.6553 -0.3966
  171SAPE    HX19338   5.051   1.398   6.699  2.1700  0.8586  2.3714
  171SAPE    HY19339   5.016   1.471   6.545 -0.8262 -1.4839  0.0020
  171SAPE   O3119340   4.916   1.563   6.712 -0.2442  0.0709 -0.5711
  171SAPE   C3119341   4.832   1.617   6.630 -0.3263  0.0379  0.3284
  171SAPE   O3219342   4.832   1.618   6.507 -0.2213  0.3119 -0.2393
  171SAPE   C3219343   4.725   1.690   6.713  0.4846  0.2370 -0.3480
  171SAPE   H2X19344   4.679   1.771   6.652  1.1034  2.2483  1.6964
  171SAPE   H2Y19345   4.769   1.743   6.800  1.7557 -2.3052  0.6428
  171SAPE   C2319346   5.217   1.801   7.111  0.3180  0.5206 -0.2055
  171SAPE   H3R19347   5.317   1.838   7.081 -0.3771  3.3246  0.6566
  171SAPE   H3S19348   5.233   1.764   7.214  2.4817 -0.8053 -0.9572
  171SAPE   C2419349   5.123   1.920   7.118  0.1576  0.2783  0.0545
  171SAPE   H4R19350   5.127   1.967   7.018 -0.3584  1.6431  0.6513
  171SAPE   H4S19351   5.178   1.990   7.184 -1.1853  2.8057 -1.3789
  171SAPE   C2519352   4.975   1.918   7.151  0.2744  0.1409 -0.3384
  171SAPE   H5R19353   4.914   1.922   7.059  0.2284 -0.1572 -0.3217
  171SAPE   C2619354   4.905   1.905   7.260  0.3442  0.1075 -0.3582
  171SAPE   H6R19355   4.797   1.922   7.255  0.2715 -0.4899 -0.9827
  171SAPE   C2719356   4.952   1.871   7.397 -0.2438  0.8862 -0.0163
  171SAPE   H7R19357   5.046   1.812   7.403 -0.6242  0.0435 -1.7360
  171SAPE   H7S19358   4.885   1.796   7.444  2.5466 -1.3230  0.6963
  171SAPE   C2819359   4.965   1.995   7.481 -0.5394  0.2960 -0.2990
  171SAPE   H8R19360   4.960   2.091   7.427  0.0390  2.1660  2.7629
  171SAPE   C2919361   4.991   2.004   7.614  0.4364  0.0059 -0.0107
  171SAPE   H9R19362   5.014   2.100   7.662  1.2852 -0.0495 -0.2839
  171SAPE  C21019363   5.002   1.880   7.705  0.0445 -0.3207  0.6527
  171SAPE  H10R19364   4.958   1.787   7.665  1.2178 -1.0206  0.9474
  171SAPE  H10S19365   4.955   1.902   7.804  0.1838 -0.4752  0.7526
  171SAPE  C21119366   5.151   1.853   7.736  0.5247  0.6066 -0.2472
  171SAPE  H11R19367   5.211   1.815   7.652 -2.4457 -0.4508 -2.0651
  171SAPE  C21219368   5.220   1.844   7.855  0.5925 -0.3584  0.0736
  171SAPE  H12R19369   5.327   1.820   7.845  0.0829 -1.9101 -2.8683
  171SAPE  C21319370   5.155   1.860   7.989 -0.5124  0.6737 -0.0561
  171SAPE  H13R19371   5.126   1.758   8.021  1.2435 -0.4581 -1.8013
  171SAPE  H13S19372   5.055   1.908   7.985 -0.2613  1.3411  1.2750
  171SAPE  C21419373   5.242   1.940   8.078  0.7267 -0.6883 -0.3421
  171SAPE  H14R19374   5.307   2.011   8.024  0.2476  0.9226  1.1086
  171SAPE  C21519375   5.254   1.941   8.213 -1.0460  0.5379  0.2607
  171SAPE  H15R19376   5.318   2.018   8.258 -0.0519  0.1687 -0.4698
  171SAPE  C21619377   5.170   1.854   8.313 -0.4783  0.4056 -0.3985
  171SAPE  H16R19378   5.096   1.794   8.255 -0.9533  2.2482 -1.7754
  171SAPE  H16S19379   5.114   1.911   8.390 -0.1144 -1.1833  1.1216
  171SAPE  C21719380   5.248   1.773   8.425 -0.0729 -0.0304  0.1238
  171SAPE  H17R19381   5.311   1.850   8.474  1.8012 -0.9696 -0.7355
  171SAPE  H17S19382   5.320   1.700   8.382  0.4710  0.4811  0.1539
  171SAPE  C21819383   5.154   1.701   8.530  1.1707 -0.4112 -0.3013
  171SAPE  H18R19384   5.094   1.631   8.468  0.6525  1.6093 -2.1848
  171SAPE  H18S19385   5.086   1.778   8.573  1.7243  0.3262 -0.7199
  171SAPE  C21919386   5.236   1.644   8.646  0.5042 -0.7953  0.1020
  171SAPE  H19R19387   5.323   1.582   8.617  2.3339  2.1696 -1.2500
  171SAPE  H19S19388   5.169   1.584   8.711  0.3560  1.7481  2.5063
  171SAPE  C22019389   5.294   1.758   8.726  0.4009  0.0723 -0.5363
  171SAPE  H20R19390   5.209   1.823   8.756 -0.5157 -1.1733 -0.3409
  171SAPE  H20S19391   5.375   1.806   8.668 -0.3171 -1.3137 -2.7928
  171SAPE  H20T19392   5.342   1.726   8.821 -0.2399 -0.3985 -0.3647
  171SAPE   C3319393   4.618   1.589   6.766 -0.1598  0.0267 -0.1278
  171SAPE   H3X19394   4.586   1.530   6.677 -0.7517  2.6596 -1.7836
  171SAPE   H3Y19395   4.537   1.662   6.787  2.0886  3.4775 -2.4126
  171SAPE   C3419396   4.659   1.513   6.887  0.2006  0.2593 -0.1570
  171SAPE   H4X19397   4.752   1.458   6.862 -1.6883 -2.2077 -2.4030
  171SAPE   H4Y19398   4.580   1.436   6.900  0.7531 -0.4772 -1.0328
  171SAPE   C3519399   4.671   1.592   7.014 -0.0901 -0.2044  0.1016
  171SAPE   H5X19400   4.571   1.633   7.042 -0.8709 -1.1704 -1.1229
  171SAPE   H5Y19401   4.747   1.671   7.001 -1.5954  1.0255 -1.7484
  171SAPE   C3619402   4.713   1.506   7.130 -0.7695  0.8534 -0.5286
  171SAPE   H6X19403   4.809   1.451   7.115  0.1574  2.0770  0.6755
  171SAPE   H6Y19404   4.631   1.431   7.136 -0.3501  0.3986 -0.4565
  171SAPE   C3719405   4.732   1.572   7.269  0.4376  0.2954  0.0128
  171SAPE   H7X19406   4.626   1.600   7.287  0.1975  0.3674 -1.4191
  171SAPE   H7Y19407   4.781   1.672   7.267  1.0430  0.0440 -3.4590
  171SAPE   C3819408   4.762   1.477   7.381 -0.1679  0.1773  0.0616
  171SAPE   H8X19409   4.869   1.450   7.379  0.3341  2.0426  0.0689
  171SAPE   H8Y19410   4.706   1.381   7.371 -1.7377  1.0653  0.0061
  171SAPE   C3919411   4.733   1.530   7.522 -0.0854  0.0483 -0.3259
  171SAPE   H9X19412   4.633   1.488   7.547  0.0409 -0.7369 -1.0798
  171SAPE   H9Y19413   4.734   1.640   7.534 -1.8336  0.0279  0.3957
  171SAPE  C31019414   4.844   1.479   7.628  0.4735 -0.6954  0.0678
  171SAPE  H10X19415   4.942   1.524   7.602 -0.1181  0.0026 -1.0542
  171SAPE  H10Y19416   4.848   1.371   7.603  1.6261 -0.4157 -1.0635
  171SAPE  C31119417   4.795   1.495   7.773  0.2171 -0.3673  0.6878
  171SAPE  H11X19418   4.697   1.447   7.795 -0.5138  0.2100 -1.1308
  171SAPE  H11Y19419   4.790   1.604   7.790 -1.7164 -0.3847  0.4276
  171SAPE  C31219420   4.911   1.446   7.868  0.7222 -0.4888  0.0020
  171SAPE  H12X19421   5.000   1.453   7.803  1.2286  0.6277  0.7802
  171SAPE  H12Y19422   4.882   1.341   7.890 -1.4613  0.0673  0.0914
  171SAPE  C31319423   4.918   1.542   7.993 -0.5198 -0.3701 -0.4246
  171SAPE  H13X19424   4.820   1.540   8.045  0.2373  1.3933  1.1990
  171SAPE  H13Y19425   4.943   1.643   7.953 -0.9050  0.7308  1.9651
  171SAPE  C31419426   5.010   1.486   8.108 -0.6993 -0.0345  0.7809
  171SAPE  H14X19427   4.972   1.392   8.153 -1.6926  0.1411  0.3344
  171SAPE  H14Y19428   5.012   1.561   8.190 -0.0782  0.7633  0.0526
  171SAPE  C31519429   5.159   1.468   8.071  0.2601 -0.1835 -0.3774
  171SAPE  H15X19430   5.205   1.564   8.041  0.3431 -0.2550 -0.4801
  171SAPE  H15Y19431   5.189   1.400   7.989  1.2400 -0.2553  0.0276
  171SAPE  C31619432   5.240   1.417   8.194  0.9331 -0.1894  0.6626
  171SAPE  H16X19433   5.201   1.314   8.212  0.8511 -0.1331  0.8107
  171SAPE  H16Y19434   5.227   1.481   8.284  1.0815  0.6089  0.1235
  171SAPE  C31719435   5.389   1.411   8.160  0.1448 -0.9677  0.2294
  171SAPE  H17X19436   5.393   1.369   8.057 -2.0283 -0.0422 -0.2847
  171SAPE  H17Y19437   5.443   1.347   8.233  0.7286 -1.9752 -1.0456
  171SAPE  C31819438   5.458   1.550   8.155 -0.6005 -0.0177 -0.0670
  171SAPE  H18X19439   5.568   1.541   8.141 -0.3087  1.9891  0.6371
  171SAPE  H18Y19440   5.437   1.593   8.255  0.2286  0.9917 -0.3170
  171SAPE  H18Z19441   5.417   1.615   8.076 -0.8106 -2.1124 -1.7924
  172SAPE     N19442   3.974   0.732   6.490  0.0097  0.0578  0.2362
  172SAPE   HN119443   3.943   0.634   6.509  0.4055 -0.2567 -0.6802
  172SAPE   HN219444   4.074   0.748   6.513 -0.0228  2.4603 -1.0212
  172SAPE   HN319445   3.934   0.803   6.554  1.0747  2.2504 -1.3826
  172SAPE   C1219446   3.952   0.781   6.354  0.6630 -0.3919 -0.4659
  172SAPE  H12A19447   4.028   0.753   6.277  0.9437  2.3306 -1.2891
  172SAPE  H12B19448   3.946   0.892   6.356  1.0746 -0.3750  1.0955
  172SAPE   C1119449   3.814   0.734   6.305 -0.8141  0.1983 -0.1126
  172SAPE  H11A19450   3.808   0.624   6.318 -1.8795  0.2674  0.0604
  172SAPE  H11B19451   3.813   0.750   6.195  0.8786 -0.2310 -0.2194
  172SAPE     P19452   3.562   0.806   6.308  0.4792  0.2614  0.0871
  172SAPE   O1319453   3.547   0.914   6.212  0.3112 -0.2951 -0.7745
  172SAPE   O1419454   3.526   0.669   6.269 -0.6025 -0.0938  0.2870
  172SAPE   O1219455   3.712   0.811   6.366 -0.0460 -0.6202  0.2065
  172SAPE   O1119456   3.473   0.843   6.436  0.0569  0.0423  0.2304
  172SAPE    C119457   3.459   0.968   6.515  0.1576  0.6067  0.4381
  172SAPE    HA19458   3.439   1.043   6.436  0.5912  0.4247  0.1466
  172SAPE    HB19459   3.375   0.964   6.586  0.5995  1.1064  1.0007
  172SAPE    C219460   3.590   1.006   6.580 -0.3675 -0.2669 -0.3120
  172SAPE    HS19461   3.665   1.005   6.498  0.3709 -1.7467  0.3339
  172SAPE   O2119462   3.607   0.913   6.688  0.4785 -0.1169  0.2898
  172SAPE   C2119463   3.730   0.868   6.722  0.2799  0.2054  0.0381
  172SAPE   O2219464   3.832   0.893   6.659 -0.0864 -0.4265  0.0620
  172SAPE   C2219465   3.718   0.780   6.851  0.2888  0.1224  0.1339
  172SAPE   H2R19466   3.626   0.719   6.842  0.8719 -0.7420 -0.1639
  172SAPE   H2S19467   3.803   0.709   6.842 -0.1998 -0.2029 -3.1069
  172SAPE    C319468   3.589   1.149   6.642  0.3233  0.1642  0.9004
  172SAPE    HX19469   3.559   1.218   6.561  2.4449 -0.0918 -0.1868
  172SAPE    HY19470   3.693   1.177   6.671  0.6772 -0.3825  0.2066
  172SAPE   O3119471   3.490   1.173   6.749  0.3544 -0.1127  0.2449
  172SAPE   C3119472   3.540   1.184   6.869 -0.7635 -0.3334 -0.5638
  172SAPE   O3219473   3.658   1.180   6.898 -0.0760 -0.3800  0.1416
  172SAPE   C3219474   3.425   1.225   6.965  0.0948  0.7032  0.3106
  172SAPE   H2X19475   3.343   1.150   6.957 -1.0365  2.0506 -1.5845
  172SAPE   H2Y19476   3.388   1.326   6.936  0.6154  0.7098 -0.3445
  172SAPE   C2319477   3.713   0.869   6.976  0.4915 -0.9587  0.3109
  172SAPE   H3R19478   3.633   0.946   6.975  1.2287 -0.0321  2.9765
  172SAPE   H3S19479   3.812   0.921   6.977  1.3355 -2.4651 -0.9146
  172SAPE   C2419480   3.706   0.787   7.101 -0.2147 -0.9576  0.5589
  172SAPE   H4R19481   3.749   0.835   7.191  1.4682 -0.5346 -0.4276
  172SAPE   H4S19482   3.756   0.693   7.069 -0.4187 -0.0723 -2.7989
  172SAPE   C2519483   3.560   0.756   7.126  0.2600  0.1126 -0.0753
  172SAPE   H5R19484   3.497   0.750   7.036 -1.2535  0.1374  0.9359
  172SAPE   C2619485   3.487   0.748   7.242 -0.7373 -0.6941  0.2430
  172SAPE   H6R19486   3.379   0.728   7.239 -1.1907  1.6300 -1.6800
  172SAPE   C2719487   3.554   0.768   7.379  0.1784 -0.0696 -0.3457
  172SAPE   H7R19488   3.660   0.795   7.360  0.0113  0.5523 -0.4033
  172SAPE   H7S19489   3.564   0.666   7.423 -0.3771  0.2213  0.4583
  172SAPE   C2819490   3.485   0.863   7.472  0.7358  0.7061  0.8087
  172SAPE   H8R19491   3.432   0.945   7.422  1.3314  1.2413  1.0355
  172SAPE   C2919492   3.483   0.852   7.609  0.0561  0.1829  0.7147
  172SAPE   H9R19493   3.421   0.922   7.668  2.0395  0.4812  2.5885
  172SAPE  C21019494   3.561   0.744   7.679 -0.3414  0.0113  0.5848
  172SAPE  H10R19495   3.671   0.763   7.685 -0.2570 -0.4115  0.4060
  172SAPE  H10S19496   3.542   0.644   7.635  0.9616 -0.0936  0.1959
  172SAPE  C21119497   3.517   0.733   7.826 -0.0815 -0.4109  0.0921
  172SAPE  H11R19498   3.464   0.644   7.864 -0.5408 -1.5651 -3.0026
  172SAPE  C21219499   3.534   0.828   7.918  0.2877  0.6126 -0.3662
  172SAPE  H12R19500   3.492   0.810   8.018  1.0926  2.9905  0.4701
  172SAPE  C21319501   3.600   0.962   7.907 -0.2102 -0.4247  0.0840
  172SAPE  H13R19502   3.592   1.006   7.805  0.8771  0.7106  0.4521
  172SAPE  H13S19503   3.707   0.962   7.938 -1.0736 -0.3779  3.5074
  172SAPE  C21419504   3.527   1.053   8.003  0.0162 -0.3213  0.5875
  172SAPE  H14R19505   3.465   1.128   7.951 -1.0577 -2.8495 -2.0219
  172SAPE  C21519506   3.526   1.058   8.135  1.1898 -0.0935 -0.0635
  172SAPE  H15R19507   3.459   1.131   8.184 -0.8674 -1.2301 -1.0912
  172SAPE  C21619508   3.607   0.966   8.218 -0.3748  0.6030  0.0384
  172SAPE  H16R19509   3.683   1.025   8.274 -0.4970  1.0324 -0.2428
  172SAPE  H16S19510   3.662   0.889   8.160 -0.7684  1.3565 -1.3809
  172SAPE  C21719511   3.521   0.885   8.312  0.1355 -0.9977  0.0641
  172SAPE  H17R19512   3.452   0.821   8.253 -0.7103  1.9707 -2.4160
  172SAPE  H17S19513   3.454   0.954   8.368 -1.1911 -1.4919 -0.8541
  172SAPE  C21819514   3.603   0.799   8.409 -0.8259  0.4774  0.0313
  172SAPE  H18R19515   3.710   0.828   8.411 -0.7687  0.8682 -3.4199
  172SAPE  H18S19516   3.598   0.700   8.360  1.2788 -0.0797  0.8310
  172SAPE  C21919517   3.537   0.787   8.543 -0.7273  0.3806 -0.0450
  172SAPE  H19R19518   3.427   0.773   8.531 -1.0210  1.8527  0.6837
  172SAPE  H19S19519   3.546   0.883   8.599  0.1106  0.3010 -0.0323
  172SAPE  C22019520   3.604   0.670   8.624 -0.2690  0.4716 -0.5931
  172SAPE  H20R19521   3.709   0.706   8.628 -0.6423  1.7559 -1.8303
  172SAPE  H20S19522   3.592   0.571   8.575 -1.1845 -0.3540  1.1973
  172SAPE  H20T19523   3.563   0.653   8.726  0.2622 -0.3930 -0.5057
  172SAPE   C3319524   3.488   1.224   7.103 -0.1363 -0.1996 -0.1964
  172SAPE   H3X19525   3.580   1.286   7.110 -0.8748  0.9159 -0.1879
  172SAPE   H3Y19526   3.524   1.120   7.121 -0.3983 -0.0910  1.0821
  172SAPE   C3419527   3.397   1.272   7.213 -0.0062 -0.1057 -0.4452
  172SAPE   H4X19528   3.306   1.209   7.213  0.9798 -1.5954  0.6619
  172SAPE   H4Y19529   3.375   1.381   7.212  2.3181  0.5053  1.8493
  172SAPE   C3519530   3.458   1.258   7.351  0.4949 -0.0199  0.7539
  172SAPE   H5X19531   3.552   1.318   7.359  2.1746 -2.4292  0.2915
  172SAPE   H5Y19532   3.491   1.152   7.359  1.2484  0.2741  1.7197
  172SAPE   C3619533   3.361   1.295   7.467  0.0860  0.3602 -0.5386
  172SAPE   H6X19534   3.286   1.215   7.482 -0.0244  0.5833  0.1148
  172SAPE   H6Y19535   3.303   1.386   7.439 -1.5931 -1.1772 -2.4129
  172SAPE   C3719536   3.426   1.307   7.613 -0.2233  0.4175  0.0624
  172SAPE   H7X19537   3.515   1.374   7.615 -1.6247  2.3752 -0.3303
  172SAPE   H7Y19538   3.468   1.205   7.623 -0.6100  0.3531  1.0972
  172SAPE   C3819539   3.340   1.349   7.741 -0.3689 -0.4762  0.2250
  172SAPE   H8X19540   3.307   1.451   7.713  1.3420 -0.6228 -2.7515
  172SAPE   H8Y19541   3.407   1.354   7.831  1.4601 -1.9376 -0.9734
  172SAPE   C3919542   3.220   1.258   7.770  0.3582 -0.2326 -0.0273
  172SAPE   H9X19543   3.258   1.157   7.795  1.1596  0.4063  1.3989
  172SAPE   H9Y19544   3.153   1.261   7.681  0.4680  2.5715 -0.1225
  172SAPE  C31019545   3.139   1.315   7.882 -0.2550 -0.1088 -0.1440
  172SAPE  H10X19546   3.034   1.277   7.885 -0.6829  0.4164 -3.5317
  172SAPE  H10Y19547   3.133   1.425   7.872 -1.9907 -0.1622  0.0631
  172SAPE  C31119548   3.192   1.270   8.020 -0.0918  0.0262 -0.1501
  172SAPE  H11X19549   3.302   1.283   8.023  0.1105 -1.1233 -1.5251
  172SAPE  H11Y19550   3.177   1.162   8.040 -1.9316  0.5433  1.7016
  172SAPE  C31219551   3.140   1.367   8.130 -0.1185  0.3416  0.6844
  172SAPE  H12X19552   3.030   1.365   8.145  0.0967 -0.8503  2.6010
  172SAPE  H12Y19553   3.184   1.466   8.108  2.4049 -0.9166 -0.2484
  172SAPE  C31319554   3.179   1.323   8.273 -0.0736  0.3333 -0.3165
  172SAPE  H13X19555   3.288   1.310   8.283 -0.2442  0.5083  2.5000
  172SAPE  H13Y19556   3.137   1.221   8.292  0.5665 -0.0897 -1.1325
  172SAPE  C31419557   3.116   1.415   8.375 -0.5973 -0.5216  0.1422
  172SAPE  H14X19558   3.016   1.433   8.331 -0.1923 -0.6333 -0.8419
  172SAPE  H14Y19559   3.175   1.509   8.373  1.3752 -1.6733 -2.5410
  172SAPE  C31519560   3.116   1.368   8.515  0.5466  0.3488  0.0985
  172SAPE  H15X19561   3.217   1.350   8.557  1.6432 -0.4597 -2.6238
  172SAPE  H15Y19562   3.071   1.267   8.499  3.1551 -0.4190 -3.5872
  172SAPE  C31619563   3.022   1.451   8.605  0.3980 -0.3365  0.0980
  172SAPE  H16X19564   2.943   1.512   8.557  1.1701  0.3208 -0.3667
  172SAPE  H16Y19565   3.079   1.531   8.659 -0.8213 -0.2125  1.2609
  172SAPE  C31719566   2.957   1.355   8.718 -0.1747  0.1680  0.2487
  172SAPE  H17X19567   2.893   1.287   8.658 -0.4278  1.5724 -1.1619
  172SAPE  H17Y19568   2.892   1.411   8.788  1.3601 -0.3653  2.1899
  172SAPE  C31819569   3.038   1.279   8.818 -0.0113  0.2833  0.3901
  172SAPE  H18X19570   3.074   1.359   8.886 -1.1916  2.4814 -1.4259
  172SAPE  H18Y19571   3.129   1.237   8.769 -0.0945 -0.3816  0.7984
  172SAPE  H18Z19572   2.979   1.201   8.870  0.9594 -0.8827 -0.1948
  173SOPE     N19573   6.191   5.739  11.448  0.4291 -0.5073  0.4995
  173SOPE   HN119574   6.278   5.712  11.498  0.9995  0.6434  0.1499
  173SOPE   HN219575   6.218   5.796  11.365  1.3674  0.6008  1.5395
  173SOPE   HN319576   6.126   5.785  11.514  0.5395 -0.2447  0.4242
  173SOPE   C1219577   6.125   5.608  11.418  0.1844  0.4158 -0.3735
  173SOPE  H12A19578   6.018   5.625  11.395  0.2160  0.0657 -0.8126
  173SOPE  H12B19579   6.139   5.547  11.510  0.3756  1.6396  0.4183
  173SOPE   C1119580   6.200   5.528  11.307  0.6665  0.7797 -0.2231
  173SOPE  H11A19581   6.150   5.547  11.209  0.1690  1.1930  0.1093
  173SOPE  H11B19582   6.176   5.421  11.324 -0.5221  1.3057  1.7415
  173SOPE     P19583   6.435   5.479  11.200  0.4733  0.2570  0.2865
  173SOPE   O1319584   6.492   5.359  11.257  0.4362 -0.5281 -0.7432
  173SOPE   O1419585   6.530   5.579  11.153  0.1147 -0.2858 -0.1519
  173SOPE   O1219586   6.335   5.557  11.304 -0.5512  0.9126 -0.4946
  173SOPE   O1119587   6.340   5.444  11.083  0.4358 -0.1289  0.2903
  173SOPE    C119588   6.263   5.318  11.068 -1.1668 -0.1938 -0.4422
  173SOPE    HA19589   6.156   5.339  11.042 -0.9348  1.2553 -0.3069
  173SOPE    HB19590   6.276   5.262  11.163  4.7930 -1.0727 -1.3879
  173SOPE    C219591   6.324   5.238  10.946 -0.3314  0.1259  0.2543
  173SOPE    HS19592   6.419   5.189  10.976 -0.5032 -0.0540  0.5051
  173SOPE   O2119593   6.353   5.336  10.847  0.0305  0.3606 -0.0740
  173SOPE   C2119594   6.474   5.376  10.826 -0.1580  0.5342 -0.5166
  173SOPE   O2219595   6.567   5.340  10.904 -0.0785  0.3232  0.0778
  173SOPE   C2219596   6.482   5.479  10.711 -0.1603 -0.4218  0.6850
  173SOPE   H2R19597   6.392   5.544  10.708  0.4293  0.4124  0.8834
  173SOPE   H2S19598   6.493   5.423  10.615  1.0813 -1.2727  1.3040
  173SOPE    C319599   6.233   5.126  10.893 -0.4268  0.1821  0.5202
  173SOPE    HX19600   6.127   5.157  10.904 -0.4278  0.2939  0.1925
  173SOPE    HY19601   6.245   5.039  10.961  1.8933  1.1862  1.5265
  173SOPE   O3119602   6.267   5.091  10.757  0.3300  0.0899  0.0994
  173SOPE   C3119603   6.354   4.999  10.740  0.6001 -0.7087 -0.2218
  173SOPE   O3219604   6.416   4.940  10.825  0.6563  0.2236  0.5070
  173SOPE   C3219605   6.392   4.998  10.594 -0.3150  0.5688  0.0751
  173SOPE   H2X19606   6.471   5.075  10.585  2.4367 -2.0005  0.7292
  173SOPE   H2Y19607   6.296   5.015  10.540  0.2695  1.6660 -0.6507
  173SOPE   C2319608   6.600   5.578  10.725 -0.4467  0.3664  0.2669
  173SOPE   H3R19609   6.687   5.519  10.690 -0.0948  1.1357 -0.1742
  173SOPE   H3S19610   6.617   5.613  10.829  3.8355 -0.4968  0.0400
  173SOPE   C2419611   6.595   5.691  10.626  0.0002  0.3005 -0.2216
  173SOPE   H4R19612   6.509   5.758  10.648 -0.3580  1.0833 -3.4331
  173SOPE   H4S19613   6.685   5.756  10.627  0.0727  0.3189 -2.5902
  173SOPE   C2519614   6.566   5.657  10.478  0.6019 -0.7301  0.3254
  173SOPE   H5R19615   6.629   5.574  10.440  0.1755 -1.1337  0.4887
  173SOPE   H5S19616   6.464   5.611  10.473 -0.9459  2.6083 -2.0256
  173SOPE   C2619617   6.575   5.766  10.374  0.1233 -1.0354 -0.5700
  173SOPE   H6R19618   6.542   5.869  10.400  3.4256  0.3991 -1.5361
  173SOPE   H6S19619   6.681   5.789  10.352 -0.1969  1.0349 -0.0945
  173SOPE   C2719620   6.500   5.732  10.243  0.1715  0.0921 -0.0772
  173SOPE   H7R19621   6.559   5.665  10.177  0.4319 -0.1029  0.3503
  173SOPE   H7S19622   6.408   5.674  10.266  1.2738 -1.5493  0.3365
  173SOPE   C2819623   6.453   5.851  10.154 -0.6493  0.6366  0.4250
  173SOPE   H8R19624   6.376   5.804  10.090  0.8605 -1.5734  0.0922
  173SOPE   H8S19625   6.399   5.920  10.222 -0.5728  1.5038 -0.3760
  173SOPE   C2919626   6.575   5.904  10.083 -0.4954 -1.0534  0.2112
  173SOPE   H9119627   6.666   5.923  10.142  0.1700  0.4374 -1.2156
  173SOPE  C21019628   6.588   5.945   9.950  0.4968  0.4367 -0.1933
  173SOPE  H10119629   6.686   5.979   9.914  2.4857 -1.3872  3.0007
  173SOPE  C21119630   6.472   5.941   9.849  0.3064  0.5932 -0.4951
  173SOPE  H11R19631   6.451   6.043   9.809 -2.2567  0.0630 -0.6427
  173SOPE  H11S19632   6.379   5.910   9.899  0.2440  2.3952  0.5970
  173SOPE  C21219633   6.494   5.859   9.717  0.3810 -0.3951 -0.2022
  173SOPE  H12R19634   6.592   5.892   9.676 -1.1238  1.9410 -2.1374
  173SOPE  H12S19635   6.406   5.880   9.652  0.0210 -1.2546 -0.0146
  173SOPE  C21319636   6.488   5.707   9.760 -0.1643  0.3255  0.8289
  173SOPE  H13R19637   6.383   5.696   9.793 -0.3472 -0.4270  0.0505
  173SOPE  H13S19638   6.559   5.675   9.840  0.9718 -1.9466 -0.9569
  173SOPE  C21419639   6.524   5.608   9.648 -0.6698  0.4974  0.3927
  173SOPE  H14R19640   6.633   5.591   9.631 -1.1304 -0.8122 -1.5489
  173SOPE  H14S19641   6.488   5.637   9.547 -1.5329 -3.7273 -0.6963
  173SOPE  C21519642   6.446   5.480   9.677  0.5841 -0.0490  0.3006
  173SOPE  H15R19643   6.340   5.500   9.650  0.7102 -0.6769 -0.7041
  173SOPE  H15S19644   6.451   5.444   9.783 -0.2692  0.6438  0.5894
  173SOPE  C21619645   6.493   5.359   9.590 -0.2876 -0.4583 -0.3501
  173SOPE  H16R19646   6.602   5.336   9.594 -0.7600 -2.7402  1.0585
  173SOPE  H16S19647   6.459   5.383   9.487  1.2512  0.4523 -0.6813
  173SOPE  C21719648   6.404   5.232   9.627  0.1085  0.8265  0.6018
  173SOPE  H17R19649   6.297   5.255   9.644 -0.3016 -1.6417  1.8613
  173SOPE  H17S19650   6.434   5.208   9.731  1.8873 -0.3676 -0.1295
  173SOPE  C21819651   6.444   5.114   9.536  0.1085 -0.1767  0.5182
  173SOPE  H18R19652   6.555   5.111   9.544  0.1832  2.9693  1.8661
  173SOPE  H18S19653   6.410   5.132   9.432 -1.6697 -0.5402  1.0040
  173SOPE  H18T19654   6.383   5.032   9.579 -1.6023  1.8832  2.2237
  173SOPE   C3319655   6.454   4.858  10.561 -0.6849 -0.6896  0.0789
  173SOPE   H3X19656   6.377   4.781  10.583  0.0997 -0.9375  2.2078
  173SOPE   H3Y19657   6.544   4.836  10.621 -1.4759 -2.9652  0.5191
  173SOPE   C3419658   6.489   4.858  10.405 -0.2133  0.9263 -0.7441
  173SOPE   H4X19659   6.556   4.946  10.392  0.2547  0.8105  0.6533
  173SOPE   H4Y19660   6.396   4.877  10.348  0.2150  2.8552 -0.8681
  173SOPE   C3519661   6.548   4.726  10.367 -0.5946 -0.0255  0.1519
  173SOPE   H5X19662   6.488   4.634  10.387  1.0939 -1.5235 -1.3327
  173SOPE   H5Y19663   6.644   4.716  10.423 -0.1985 -0.0945 -0.5252
  173SOPE   C3619664   6.573   4.714  10.212 -0.4919  0.1444 -0.3165
  173SOPE   H6X19665   6.654   4.787  10.190  0.0198 -0.2413  0.2238
  173SOPE   H6Y19666   6.481   4.747  10.160 -0.6310  1.3793  0.6614
  173SOPE   C3719667   6.609   4.577  10.166 -0.1885  0.3409  0.1319
  173SOPE   H7X19668   6.551   4.496  10.216  0.8968 -0.0246  0.8539
  173SOPE   H7Y19669   6.713   4.556  10.199  0.3079  0.0393 -1.5643
  173SOPE   C3819670   6.601   4.574  10.015  0.4254 -0.1790 -0.4146
  173SOPE   H8X19671   6.635   4.676   9.986 -0.1388  0.3209  0.6262
  173SOPE   H8Y19672   6.496   4.565   9.982 -0.1486 -1.3229  1.5464
  173SOPE   C3919673   6.679   4.455   9.960 -0.2500  0.0368 -0.2255
  173SOPE   H9X19674   6.650   4.365  10.019 -2.1298 -0.2179 -1.4566
  173SOPE   H9Y19675   6.785   4.487   9.970 -0.5707  1.0982 -0.0727
  173SOPE  C31019676   6.642   4.413   9.818  0.6669  0.3580  0.9608
  173SOPE  H10X19677   6.533   4.398   9.831 -0.0960  2.7793 -1.6324
  173SOPE  H10Y19678   6.694   4.323   9.778 -1.1172 -0.3280  0.0832
  173SOPE  C31119679   6.655   4.520   9.705 -0.3036  0.4656 -0.2100
  173SOPE  H11X19680   6.763   4.527   9.677  0.1817  1.0403  1.6705
  173SOPE  H11Y19681   6.626   4.621   9.741 -0.2906 -0.0974  1.4567
  173SOPE  C31219682   6.564   4.477   9.590  0.3901 -0.5432  0.4748
  173SOPE  H12X19683   6.461   4.476   9.632  0.7774  0.9768  1.5800
  173SOPE  H12Y19684   6.585   4.373   9.557 -0.5611 -0.1578 -1.5139
  173SOPE  C31319685   6.575   4.582   9.479 -0.1776  0.3237  0.2064
  173SOPE  H13X19686   6.682   4.590   9.451  0.4504 -0.8713  2.0845
  173SOPE  H13Y19687   6.552   4.679   9.529 -2.2087  0.1815 -0.3681
  173SOPE  C31419688   6.489   4.552   9.354  0.6853  0.0096  0.1523
  173SOPE  H14X19689   6.383   4.527   9.376  1.0506 -2.4303 -0.5322
  173SOPE  H14Y19690   6.519   4.456   9.306  2.0656  0.7809 -0.5817
  173SOPE  C31519691   6.503   4.650   9.237 -0.1107  0.5696  0.3588
  173SOPE  H15X19692   6.522   4.590   9.145 -0.7849 -0.9257  1.1499
  173SOPE  H15Y19693   6.594   4.712   9.246 -0.6769  1.9667 -2.3348
  173SOPE  C31619694   6.381   4.740   9.231  0.3373 -0.3198 -0.1602
  173SOPE  H16X19695   6.390   4.796   9.327  0.4746 -0.2201 -0.2309
  173SOPE  H16Y19696   6.288   4.680   9.239  0.4248 -0.2532  1.6823
  173SOPE  C31719697   6.368   4.834   9.113  0.3186 -0.2689  0.2643
  173SOPE  H17X19698   6.277   4.897   9.113  0.2858 -0.2996 -0.5220
  173SOPE  H17Y19699   6.354   4.766   9.025  1.0832 -0.6560  0.4311
  173SOPE  C31819700   6.492   4.926   9.093 -0.4697 -0.7933 -0.4316
  173SOPE  H18X19701   6.577   4.857   9.079 -1.5603 -2.4082  0.6345
  173SOPE  H18Y19702   6.507   4.980   9.189 -0.6631 -0.9834 -0.2930
  173SOPE  H18Z19703   6.472   4.985   9.001 -1.1539  0.9177  0.7446
  174SOPE     N19704   5.362   2.583  11.388  0.0394 -0.4402 -0.1862
  174SOPE   HN119705   5.266   2.622  11.393 -0.1880 -0.9603 -0.4840
  174SOPE   HN219706   5.380   2.514  11.463 -1.8451 -0.3227  0.4316
  174SOPE   HN319707   5.427   2.662  11.411 -1.9358  0.5435  2.5273
  174SOPE   C1219708   5.389   2.542  11.253  0.0696 -0.0965  0.0719
  174SOPE  H12A19709   5.311   2.469  11.224 -0.2479 -0.3301  1.4463
  174SOPE  H12B19710   5.489   2.494  11.245  0.2114 -0.1769  1.9062
  174SOPE   C1119711   5.388   2.665  11.158  0.2677 -0.0296  0.1616
  174SOPE  H11A19712   5.289   2.686  11.114  0.3361 -2.6195 -1.4446
  174SOPE  H11B19713   5.431   2.628  11.063  0.0340 -0.3752  0.1872
  174SOPE     P19714   5.593   2.819  11.211 -0.3829 -0.4812  0.1657
  174SOPE   O1319715   5.676   2.705  11.256  0.3478 -0.0178 -0.2718
  174SOPE   O1419716   5.624   2.944  11.278  0.3848 -0.0551 -0.1769
  174SOPE   O1219717   5.441   2.776  11.229  0.3627 -1.0883 -0.3574
  174SOPE   O1119718   5.604   2.838  11.050  0.3529 -0.0158  0.1889
  174SOPE    C119719   5.541   2.955  10.992  0.2209 -0.0539 -0.0920
  174SOPE    HA19720   5.541   3.046  11.055 -0.4114 -1.3592  1.8783
  174SOPE    HB19721   5.431   2.948  10.981  0.1921  0.6352 -0.3508
  174SOPE    C219722   5.594   2.984  10.852  0.6119  0.5011  0.2855
  174SOPE    HS19723   5.542   3.069  10.803 -1.5311 -1.3474 -0.7857
  174SOPE   O2119724   5.588   2.880  10.750  0.9035  0.2720  0.5678
  174SOPE   C2119725   5.474   2.862  10.692 -0.2024 -0.4353  0.3751
  174SOPE   O2219726   5.377   2.933  10.698  0.4741 -0.3451  0.3138
  174SOPE   C2219727   5.489   2.742  10.596  0.6323  0.1687 -0.8356
  174SOPE   H2R19728   5.381   2.728  10.572 -0.5785  2.3468  2.5651
  174SOPE   H2S19729   5.522   2.657  10.658 -0.1098  0.0398 -0.6029
  174SOPE    C319730   5.743   3.021  10.873  0.2854  0.1306  0.4645
  174SOPE    HX19731   5.798   2.930  10.907  1.5083  0.4950 -0.4765
  174SOPE    HY19732   5.734   3.099  10.951 -1.7547 -0.3235  0.7441
  174SOPE   O3119733   5.795   3.064  10.747 -0.4880 -0.2957 -0.0141
  174SOPE   C3119734   5.773   3.193  10.722 -0.3464 -0.2960 -0.6957
  174SOPE   O3219735   5.721   3.274  10.802  0.5844 -0.2196  0.4675
  174SOPE   C3219736   5.844   3.235  10.592 -0.0024  0.1533 -0.4279
  174SOPE   H2X19737   5.941   3.181  10.590 -0.0726 -0.0831  1.2993
  174SOPE   H2Y19738   5.879   3.340  10.602  1.7663 -0.3709 -0.8092
  174SOPE   C2319739   5.586   2.751  10.482  0.1632 -0.2241 -0.2657
  174SOPE   H3R19740   5.577   2.657  10.423 -1.6741  0.8585 -1.8032
  174SOPE   H3S19741   5.690   2.774  10.513  0.1817  0.1975 -0.6380
  174SOPE   C2419742   5.539   2.847  10.371 -0.9204  0.1083  0.2097
  174SOPE   H4R19743   5.441   2.808  10.335 -1.5599 -0.2795  2.2437
  174SOPE   H4S19744   5.517   2.940  10.426 -0.0543  0.3825  0.1043
  174SOPE   C2519745   5.640   2.852  10.252 -0.1887  0.2166  0.3167
  174SOPE   H5R19746   5.728   2.908  10.289 -2.7173  3.5070  1.9208
  174SOPE   H5S19747   5.661   2.748  10.218 -1.2789  0.2892 -0.6585
  174SOPE   C2619748   5.586   2.932  10.131  0.1252  0.3274 -0.3943
  174SOPE   H6R19749   5.504   2.874  10.082  1.7741  0.6491 -3.8202
  174SOPE   H6S19750   5.554   3.034  10.159 -1.4354  0.2276 -1.6321
  174SOPE   C2719751   5.697   2.953  10.026  0.1517 -0.2667 -0.1194
  174SOPE   H7R19752   5.761   3.038  10.060 -3.4103  2.0948  1.2770
  174SOPE   H7S19753   5.763   2.864  10.036 -0.1421 -0.6098 -1.1300
  174SOPE   C2819754   5.650   2.978   9.878 -0.1094  0.6428  0.4776
  174SOPE   H8R19755   5.588   2.894   9.841 -1.2321  0.3545  2.8488
  174SOPE   H8S19756   5.579   3.063   9.886  0.6428  1.2717  0.6658
  174SOPE   C2919757   5.758   3.026   9.783  0.0093  0.3859  0.4723
  174SOPE   H9119758   5.839   3.083   9.830 -1.1066  1.9277  0.6265
  174SOPE  C21019759   5.756   3.006   9.648  0.2703  0.4389 -0.3648
  174SOPE  H10119760   5.846   3.038   9.593  1.4673 -0.6196  0.9138
  174SOPE  C21119761   5.641   2.946   9.574 -0.3828 -0.1092 -0.7366
  174SOPE  H11R19762   5.548   2.934   9.633 -1.0769 -0.4835 -1.8961
  174SOPE  H11S19763   5.665   2.843   9.541  0.1723 -0.0404 -0.5673
  174SOPE  C21219764   5.584   3.039   9.462  0.3892 -0.0061  0.2651
  174SOPE  H12R19765   5.532   3.127   9.505  0.7064  0.0707  0.5003
  174SOPE  H12S19766   5.500   2.986   9.411  0.4092 -0.8986  1.1186
  174SOPE  C21319767   5.688   3.080   9.352  0.8732 -0.9358 -0.7779
  174SOPE  H13R19768   5.725   2.984   9.310 -0.4015 -2.4843  1.4197
  174SOPE  H13S19769   5.760   3.150   9.401 -2.6650  1.4025  1.5542
  174SOPE  C21419770   5.635   3.163   9.236 -0.6719 -0.4847  0.1552
  174SOPE  H14R19771   5.581   3.250   9.277  0.5699  0.1267  0.5578
  174SOPE  H14S19772   5.560   3.103   9.180 -0.4705  0.8394 -1.6357
  174SOPE  C21519773   5.744   3.217   9.151 -0.0326  0.1351  0.1039
  174SOPE  H15R19774   5.811   3.148   9.094  2.0040  1.2659  1.0069
  174SOPE  H15S19775   5.818   3.266   9.218 -0.0552  0.9212 -0.4383
  174SOPE  C21619776   5.697   3.321   9.045  0.7809  0.0096  1.1406
  174SOPE  H16R19777   5.785   3.382   9.015  0.2802  0.1631 -0.0880
  174SOPE  H16S19778   5.611   3.376   9.088 -0.7211 -0.4821 -1.0588
  174SOPE  C21719779   5.638   3.248   8.921  0.3239 -0.2154 -0.0483
  174SOPE  H17R19780   5.566   3.168   8.950  1.4756 -2.1348 -2.0986
  174SOPE  H17S19781   5.722   3.198   8.868  0.3579 -0.3650  0.1460
  174SOPE  C21819782   5.572   3.341   8.815  0.0404 -0.1496 -0.0649
  174SOPE  H18R19783   5.651   3.413   8.784  2.4030 -0.3973  4.5065
  174SOPE  H18S19784   5.476   3.376   8.859  0.2641 -1.2157  1.3349
  174SOPE  H18T19785   5.537   3.280   8.729  1.1626 -1.0795  0.1251
  174SOPE   C3319786   5.768   3.213  10.461 -0.3027 -0.0651  0.4490
  174SOPE   H3X19787   5.660   3.230  10.476  0.2237  1.9850  2.4955
  174SOPE   H3Y19788   5.790   3.117  10.410  1.2320  1.2486 -1.5735
  174SOPE   C3419789   5.806   3.325  10.355 -0.1741  0.0392  0.4911
  174SOPE   H4X19790   5.911   3.316  10.319 -0.4066  0.5394 -0.3550
  174SOPE   H4Y19791   5.795   3.430  10.390  0.7989  0.4626 -0.4132
  174SOPE   C3519792   5.718   3.315  10.227 -0.0020 -0.7729  0.3538
  174SOPE   H5X19793   5.618   3.358  10.251  0.1926 -0.4406  0.5770
  174SOPE   H5Y19794   5.704   3.208  10.205  2.0615 -1.1075  0.4864
  174SOPE   C3619795   5.783   3.390  10.103 -0.0286  0.5201  0.7183
  174SOPE   H6X19796   5.869   3.324  10.079  0.6684  0.9033  2.0173
  174SOPE   H6Y19797   5.822   3.491  10.130  2.5420  0.3135 -1.7284
  174SOPE   C3719798   5.690   3.378   9.980 -0.1748  0.7020 -0.2350
  174SOPE   H7X19799   5.615   3.460   9.980  0.6028  1.4396 -0.8905
  174SOPE   H7Y19800   5.637   3.280   9.987  2.6997 -0.8437  2.3295
  174SOPE   C3819801   5.775   3.382   9.856 -0.1427 -0.4614 -0.6264
  174SOPE   H8X19802   5.834   3.288   9.852  0.7109  0.0263  0.0775
  174SOPE   H8Y19803   5.846   3.466   9.866 -0.9846  0.1476  0.4642
  174SOPE   C3919804   5.701   3.397   9.717 -0.1280  0.3840  0.2037
  174SOPE   H9X19805   5.624   3.476   9.727  0.0802  0.7341 -0.8327
  174SOPE   H9Y19806   5.647   3.301   9.700  0.8791 -0.4631  1.5838
  174SOPE  C31019807   5.792   3.429   9.588  0.6555 -0.7994 -0.2932
  174SOPE  H10X19808   5.865   3.346   9.583  0.0544 -1.3758  0.1830
  174SOPE  H10Y19809   5.849   3.521   9.611 -1.6939  0.6832 -0.0847
  174SOPE  C31119810   5.701   3.455   9.470  0.2345  0.4831  0.1413
  174SOPE  H11X19811   5.612   3.389   9.479 -0.9792  2.1571  1.0411
  174SOPE  H11Y19812   5.755   3.432   9.377  0.4347  3.7717 -0.6669
  174SOPE  C31219813   5.658   3.595   9.463 -0.6242 -1.1269 -0.1326
  174SOPE  H12X19814   5.750   3.657   9.471  0.6596 -2.8964 -0.3591
  174SOPE  H12Y19815   5.585   3.626   9.540 -0.5756 -1.8486  0.2112
  174SOPE  C31319816   5.578   3.635   9.338 -0.2555 -0.6018 -0.6113
  174SOPE  H13X19817   5.644   3.613   9.251  0.1311 -2.3027  0.0887
  174SOPE  H13Y19818   5.560   3.745   9.334  2.0270 -0.1317  0.3985
  174SOPE  C31419819   5.449   3.564   9.318  0.1871 -0.3762 -0.1948
  174SOPE  H14X19820   5.386   3.577   9.409  0.9977  1.6832  0.1325
  174SOPE  H14Y19821   5.471   3.458   9.296  0.0374 -0.3146 -0.6434
  174SOPE  C31519822   5.373   3.627   9.198 -0.1443 -0.3467 -0.8253
  174SOPE  H15X19823   5.416   3.583   9.106  1.7723 -1.3159  0.4690
  174SOPE  H15Y19824   5.390   3.736   9.198 -0.2108 -0.2910  1.3701
  174SOPE  C31619825   5.219   3.606   9.200 -0.6886 -0.0197  0.4111
  174SOPE  H16X19826   5.163   3.668   9.273 -0.1213  1.0333 -0.0269
  174SOPE  H16Y19827   5.210   3.496   9.201  1.2311 -0.2096  0.0218
  174SOPE  C31719828   5.159   3.669   9.072 -0.2628  0.3590 -0.1336
  174SOPE  H17X19829   5.208   3.618   8.986 -1.3110 -0.2377 -0.3926
  174SOPE  H17Y19830   5.174   3.779   9.072 -2.4400  0.7187  1.3467
  174SOPE  C31819831   5.012   3.636   9.065  0.1422  0.2133  1.4343
  174SOPE  H18X19832   4.954   3.678   9.151 -1.3991  0.3204  0.3816
  174SOPE  H18Y19833   5.005   3.526   9.051  0.5963  0.6084 -3.2685
  174SOPE  H18Z19834   4.968   3.691   8.979  0.2628  1.4685  2.1582
  175SOPE     N19835   1.841   5.305  11.131  1.2472  0.3450 -0.4011
  175SOPE   HN119836   1.854   5.341  11.228 -0.3932 -1.2258  0.4748
  175SOPE   HN219837   1.840   5.392  11.075  0.6227  0.4443 -0.2398
  175SOPE   HN319838   1.757   5.243  11.123  1.9871 -1.2662  2.5867
  175SOPE   C1219839   1.968   5.236  11.084  0.5409 -0.2668 -0.4858
  175SOPE  H12A19840   1.935   5.134  11.056  0.3803 -1.0052  2.1296
  175SOPE  H12B19841   2.035   5.233  11.173 -0.5817 -0.8771  0.3685
  175SOPE   C1119842   2.028   5.314  10.965 -0.3922  0.3946  0.1342
  175SOPE  H11A19843   1.957   5.294  10.882  0.3510 -0.3312 -0.3305
  175SOPE  H11B19844   2.129   5.272  10.947 -0.6286  0.7076 -2.2907
  175SOPE     P19845   2.091   5.559  10.899  0.0987 -0.1572 -0.2894
  175SOPE   O1319846   2.235   5.528  10.889 -0.5582 -0.5689  0.0288
  175SOPE   O1419847   2.052   5.686  10.969 -0.2374  0.3995 -0.6974
  175SOPE   O1219848   2.022   5.452  10.987 -0.9192  0.1063 -0.1833
  175SOPE   O1119849   2.012   5.556  10.760 -0.2484 -1.3790  0.0127
  175SOPE    C119850   2.071   5.509  10.645  0.1831 -0.7389 -0.3005
  175SOPE    HA19851   2.149   5.432  10.661 -1.1193 -1.9259  0.5244
  175SOPE    HB19852   2.114   5.597  10.591 -0.5975 -0.0861  0.1155
  175SOPE    C219853   1.958   5.441  10.556 -0.5004  0.4567  0.6795
  175SOPE    HS19854   1.939   5.343  10.605 -0.0277  0.2595  0.4728
  175SOPE   O2119855   1.979   5.431  10.418 -0.3700  0.3615  0.3027
  175SOPE   C2119856   2.069   5.341  10.393 -0.1264 -0.1619  0.4518
  175SOPE   O2219857   2.113   5.262  10.476 -0.9414 -0.4976  0.0779
  175SOPE   C2219858   2.112   5.336  10.248  0.2168 -0.6546 -0.0327
  175SOPE   H2R19859   2.222   5.339  10.235  0.0946  1.0922 -1.0868
  175SOPE   H2S19860   2.075   5.429  10.199  0.9115 -0.3396  0.0410
  175SOPE    C319861   1.828   5.521  10.574 -0.0054 -0.2093 -0.2709
  175SOPE    HX19862   1.868   5.621  10.549  1.5960 -0.8229 -0.2821
  175SOPE    HY19863   1.790   5.526  10.678  1.8913  0.2136  0.4419
  175SOPE   O3119864   1.721   5.496  10.478 -0.1643 -0.4281 -0.3380
  175SOPE   C3119865   1.661   5.387  10.493  0.6287  0.2800 -0.5296
  175SOPE   O3219866   1.662   5.319  10.594  0.2048 -0.2974 -0.1959
  175SOPE   C3219867   1.574   5.361  10.374 -0.6656 -0.0250  0.2743
  175SOPE   H2X19868   1.497   5.441  10.369  1.9316  2.5830 -0.6732
  175SOPE   H2Y19869   1.525   5.262  10.388 -0.2576 -0.2036  0.4539
  175SOPE   C2319870   2.067   5.211  10.167  0.0446 -0.1977 -0.2649
  175SOPE   H3R19871   1.956   5.204  10.165  0.0441 -0.3625  0.1280
  175SOPE   H3S19872   2.104   5.120  10.219  0.2426  0.1636  0.2400
  175SOPE   C2419873   2.119   5.209  10.023 -0.5326  0.7707  0.5161
  175SOPE   H4R19874   2.230   5.203  10.021 -0.6005 -0.6611 -0.1323
  175SOPE   H4S19875   2.075   5.120   9.973 -1.2765 -1.0075  3.9872
  175SOPE   C2519876   2.082   5.342   9.948 -0.9660 -0.0878  0.4194
  175SOPE   H5R19877   1.998   5.391  10.002  0.2967  0.0301  2.3592
  175SOPE   H5S19878   2.165   5.415   9.943 -1.0957  0.1178  1.1678
  175SOPE   C2619879   2.021   5.319   9.809  0.4321 -0.1975  0.4009
  175SOPE   H6R19880   1.926   5.263   9.821 -1.3397  2.9363  2.4036
  175SOPE   H6S19881   2.001   5.419   9.764  0.5369 -0.1074  0.5534
  175SOPE   C2719882   2.103   5.235   9.716  0.1058  0.2069 -0.0326
  175SOPE   H7R19883   2.131   5.133   9.751  0.9501  1.3320  2.8576
  175SOPE   H7S19884   2.036   5.223   9.628 -0.3730  0.9853  0.2220
  175SOPE   C2819885   2.238   5.295   9.666 -0.5287  0.0010 -0.2881
  175SOPE   H8R19886   2.300   5.330   9.751 -0.0736  1.2404 -1.1093
  175SOPE   H8S19887   2.302   5.217   9.620  1.6831 -0.2206  2.8693
  175SOPE   C2919888   2.210   5.406   9.565  0.2086 -0.2458 -0.2433
  175SOPE   H9119889   2.205   5.508   9.606  0.7471 -0.6429  0.8566
  175SOPE  C21019890   2.184   5.386   9.434 -0.6337  0.4589  1.1477
  175SOPE  H10119891   2.147   5.468   9.371 -1.1517 -0.5083  0.1738
  175SOPE  C21119892   2.173   5.252   9.378 -0.2857 -0.2376  0.4093
  175SOPE  H11R19893   2.083   5.250   9.313 -1.2336  0.2237  1.6904
  175SOPE  H11S19894   2.154   5.175   9.455  2.1804 -0.3928  0.9466
  175SOPE  C21219895   2.288   5.195   9.298  0.1538  0.0638  0.3755
  175SOPE  H12R19896   2.259   5.089   9.283  2.9592 -0.7781  0.1981
  175SOPE  H12S19897   2.384   5.184   9.355 -0.3255  0.2216  1.2349
  175SOPE  C21319898   2.315   5.249   9.164  0.5653 -0.0196  0.8488
  175SOPE  H13R19899   2.346   5.355   9.174 -1.2235  0.4515  1.6355
  175SOPE  H13S19900   2.223   5.244   9.101  0.9886 -0.9678  0.2813
  175SOPE  C21419901   2.419   5.173   9.075 -0.4940 -0.3019  0.9220
  175SOPE  H14R19902   2.500   5.139   9.143  1.9036  0.5948 -1.2968
  175SOPE  H14S19903   2.471   5.235   8.999  1.2789 -0.5798  1.8406
  175SOPE  C21519904   2.375   5.056   8.985 -0.0465 -0.3658 -0.0628
  175SOPE  H15R19905   2.283   5.080   8.927 -1.1101 -0.3886  1.5336
  175SOPE  H15S19906   2.355   4.969   9.052 -0.8086  1.1628  1.7751
  175SOPE  C21619907   2.481   5.010   8.889 -1.0586  0.3563 -0.0397
  175SOPE  H16R19908   2.559   4.974   8.960 -2.3137 -0.3355  1.0408
  175SOPE  H16S19909   2.503   5.102   8.831 -2.2704 -0.2953 -1.6087
  175SOPE  C21719910   2.435   4.900   8.799  0.0145 -0.4909 -0.4888
  175SOPE  H17R19911   2.350   4.935   8.736  0.7667 -0.2457 -1.3879
  175SOPE  H17S19912   2.393   4.819   8.862  2.1200  0.8133  2.8343
  175SOPE  C21819913   2.541   4.832   8.702 -0.4230 -0.2588 -0.7050
  175SOPE  H18R19914   2.586   4.898   8.625  1.4628  1.4265  1.6651
  175SOPE  H18S19915   2.495   4.740   8.660  0.5560 -0.2680 -1.7941
  175SOPE  H18T19916   2.628   4.802   8.764 -0.0098 -0.4151 -1.3573
  175SOPE   C3319917   1.650   5.369  10.243  0.2469 -0.4883  0.5050
  175SOPE   H3X19918   1.722   5.285  10.231  1.1898  0.3029  0.4579
  175SOPE   H3Y19919   1.708   5.464  10.239  0.8052 -0.7797  1.4120
  175SOPE   C3419920   1.562   5.356  10.124 -0.4694  0.0787 -0.4028
  175SOPE   H4X19921   1.503   5.450  10.111  0.0117  0.1031 -2.9447
  175SOPE   H4Y19922   1.493   5.271  10.139  2.5963 -2.0342  3.8782
  175SOPE   C3519923   1.649   5.327   9.999 -0.0264  0.3734  0.4137
  175SOPE   H5X19924   1.688   5.223  10.008 -0.0781  0.5092  2.8778
  175SOPE   H5Y19925   1.733   5.400   9.998  0.6906 -0.4037 -1.5189
  175SOPE   C3619926   1.567   5.335   9.867 -0.6756  0.4109 -0.2893
  175SOPE   H6X19927   1.526   5.438   9.867 -3.4115 -0.4499  3.2050
  175SOPE   H6Y19928   1.473   5.275   9.872  0.4797 -1.6815 -2.0717
  175SOPE   C3719929   1.659   5.308   9.749 -0.0234 -0.3534  0.2328
  175SOPE   H7X19930   1.695   5.204   9.763 -0.0165 -0.6421 -1.7210
  175SOPE   H7Y19931   1.750   5.371   9.750  1.3516 -2.2355  1.9617
  175SOPE   C3819932   1.579   5.324   9.613 -0.4292  0.6770 -0.4462
  175SOPE   H8X19933   1.508   5.410   9.615 -1.1082  0.1906 -2.0091
  175SOPE   H8Y19934   1.513   5.234   9.612  1.7838 -1.0421 -0.1113
  175SOPE   C3919935   1.671   5.332   9.497  0.3077 -0.1006  0.5484
  175SOPE   H9X19936   1.731   5.241   9.475 -2.0037 -1.4531 -0.4945
  175SOPE   H9Y19937   1.731   5.421   9.525 -2.8247  2.5161 -0.4825
  175SOPE  C31019938   1.585   5.355   9.362  0.3072 -1.0239  0.2530
  175SOPE  H10X19939   1.540   5.456   9.371 -1.8465 -1.8332 -0.9079
  175SOPE  H10Y19940   1.490   5.297   9.365 -0.4116 -0.0151 -1.4114
  175SOPE  C31119941   1.660   5.351   9.235 -0.6561  0.6582  0.4984
  175SOPE  H11X19942   1.589   5.343   9.150 -0.0447  2.0083 -0.1695
  175SOPE  H11Y19943   1.722   5.259   9.236  0.7949  1.6017  2.0124
  175SOPE  C31219944   1.754   5.466   9.214  0.0421 -0.1199  0.4012
  175SOPE  H12X19945   1.835   5.454   9.289  1.6752  1.8418 -0.9358
  175SOPE  H12Y19946   1.712   5.566   9.239  0.3951  0.0194  0.4444
  175SOPE  C31319947   1.825   5.476   9.074  0.4282  0.0693 -0.0169
  175SOPE  H13X19948   1.882   5.381   9.067 -1.9212 -1.3509 -1.2062
  175SOPE  H13Y19949   1.901   5.557   9.073  0.1269  0.3554  0.0747
  175SOPE  C31419950   1.735   5.519   8.962 -0.2072  0.1387 -0.0269
  175SOPE  H14X19951   1.649   5.449   8.954  0.0781 -0.5542  2.4223
  175SOPE  H14Y19952   1.793   5.515   8.867  2.5535 -1.0850  1.5920
  175SOPE  C31519953   1.680   5.662   8.976  0.3971  0.1665  0.3595
  175SOPE  H15X19954   1.749   5.748   8.991  0.1190  0.3054  0.8395
  175SOPE  H15Y19955   1.614   5.668   9.065 -1.8149  1.0716 -1.2470
  175SOPE  C31619956   1.590   5.692   8.853 -1.0293 -0.7773 -0.6118
  175SOPE  H16X19957   1.501   5.753   8.879  0.2066  0.6667  0.3796
  175SOPE  H16Y19958   1.554   5.598   8.806 -0.2549 -0.5107 -1.7732
  175SOPE  C31719959   1.665   5.769   8.738 -0.0663  0.2208  0.4904
  175SOPE  H17X19960   1.735   5.698   8.688  1.9252  1.6424  1.1365
  175SOPE  H17Y19961   1.725   5.857   8.771  0.1817  0.3853 -0.3572
  175SOPE  C31819962   1.563   5.798   8.626 -1.0634 -0.0143  0.1575
  175SOPE  H18X19963   1.484   5.867   8.663 -1.8934 -0.1122 -1.3451
  175SOPE  H18Y19964   1.526   5.706   8.576 -1.0879  1.0266 -1.8428
  175SOPE  H18Z19965   1.623   5.855   8.552  4.2557  0.4283  4.2036
  176SOPE     N19966   0.671   4.131  11.326  0.6579 -0.0834 -0.1939
  176SOPE   HN119967   0.601   4.058  11.352  1.2329 -1.2104 -1.6666
  176SOPE   HN219968   0.629   4.226  11.334 -1.2514 -0.9636  1.1546
  176SOPE   HN319969   0.683   4.107  11.225 -2.4939 -0.2071 -0.6281
  176SOPE   C1219970   0.800   4.123  11.400  0.2442  0.1352 -0.1212
  176SOPE  H12A19971   0.856   4.032  11.370 -0.5272 -0.9938  1.6663
  176SOPE  H12B19972   0.768   4.110  11.506  0.7239 -0.9088 -0.0918
  176SOPE   C1119973   0.899   4.240  11.390  0.1720 -0.6164 -0.2289
  176SOPE  H11A19974   0.952   4.221  11.294 -0.8371 -2.8242 -0.4126
  176SOPE  H11B19975   0.969   4.231  11.476 -1.3152 -0.3858  1.0445
  176SOPE     P19976   0.921   4.491  11.422 -0.0921 -0.0148  0.2061
  176SOPE   O1319977   1.064   4.453  11.420 -0.1417  0.0090  0.0772
  176SOPE   O1419978   0.873   4.549  11.547  0.4679  0.1509  0.5185
  176SOPE   O1219979   0.829   4.363  11.384  0.6147 -0.4741 -0.3878
  176SOPE   O1119980   0.894   4.600  11.308  0.5333 -0.0615 -0.6527
  176SOPE    C119981   0.770   4.579  11.234  0.2052 -0.3346 -0.6500
  176SOPE    HA19982   0.725   4.675  11.200  0.6188  0.3293  0.5803
  176SOPE    HB19983   0.688   4.539  11.297  0.7891  0.0216  0.3760
  176SOPE    C219984   0.797   4.497  11.100  0.2675 -0.3290  0.4330
  176SOPE    HS19985   0.846   4.400  11.122 -0.0919 -0.7103 -0.4217
  176SOPE   O2119986   0.876   4.578  11.010 -0.2202  0.5717 -0.0392
  176SOPE   C2119987   0.952   4.512  10.925 -0.0835 -0.2896  0.6068
  176SOPE   O2219988   0.976   4.393  10.920 -0.5716  0.4950 -0.0730
  176SOPE   C2219989   1.030   4.609  10.839  0.6657 -0.2970  0.0059
  176SOPE   H2R19990   1.129   4.634  10.882  0.2976  0.0543  0.6818
  176SOPE   H2S19991   0.969   4.702  10.837  0.3786 -0.4966 -0.8311
  176SOPE    C319992   0.667   4.454  11.023 -0.0904 -0.3629 -0.5636
  176SOPE    HX19993   0.623   4.548  10.984 -0.8529 -0.6998 -0.5346
  176SOPE    HY19994   0.599   4.406  11.096 -3.0697  3.8781 -0.1421
  176SOPE   O3119995   0.698   4.368  10.916 -0.2001  0.9974 -0.3874
  176SOPE   C3119996   0.720   4.239  10.951 -0.2491 -0.0539  0.5791
  176SOPE   O3219997   0.736   4.201  11.069 -0.5006 -0.2338  0.0906
  176SOPE   C3219998   0.695   4.147  10.831 -0.0766  0.8088 -0.4675
  176SOPE   H2X19999   0.588   4.119  10.835  0.4594 -1.3007  1.1557
  176SOPE   H2Y20000   0.748   4.055  10.866  0.8253  2.1958  2.0948
  176SOPE   C2320001   1.051   4.564  10.691  0.3667 -0.6886  0.3384
  176SOPE   H3R20002   1.076   4.456  10.694 -0.2059 -0.8171  0.6864
  176SOPE   H3S20003   1.134   4.624  10.648  0.7198  0.3512  2.3592
  176SOPE   C2420004   0.923   4.590  10.611 -0.1746  0.1969 -0.3673
  176SOPE   H4R20005   0.831   4.558  10.665 -0.5773  1.7931 -0.0465
  176SOPE   H4S20006   0.913   4.699  10.592  1.6557  0.2639 -1.1671
  176SOPE   C2520007   0.923   4.515  10.478 -0.0838 -0.0742 -0.3868
  176SOPE   H5R20008   1.001   4.566  10.418  0.1699 -0.0153 -0.0101
  176SOPE   H5S20009   0.957   4.413  10.503  2.0399  1.0682  1.7959
  176SOPE   C2620010   0.785   4.528  10.415 -0.0704 -0.6354  0.0629
  176SOPE   H6R20011   0.700   4.492  10.478 -2.1416  2.1613 -0.9440
  176SOPE   H6S20012   0.767   4.636  10.397 -0.7883 -1.1527 -2.8400
  176SOPE   C2720013   0.772   4.476  10.271 -0.2572 -0.0429 -0.0568
  176SOPE   H7R20014   0.833   4.538  10.202 -2.0321  0.6485 -1.0892
  176SOPE   H7S20015   0.838   4.388  10.280  2.4567  1.9493  0.7057
  176SOPE   C2820016   0.632   4.450  10.219  0.5741  0.5880 -0.1062
  176SOPE   H8R20017   0.645   4.399  10.121 -0.9163 -2.0512  0.9531
  176SOPE   H8S20018   0.586   4.371  10.282 -1.1998  1.4271 -0.2676
  176SOPE   C2920019   0.549   4.578  10.219 -0.1774 -0.7360  0.3555
  176SOPE   H9120020   0.496   4.608  10.311  0.8825  1.2031  0.3733
  176SOPE  C21020021   0.532   4.661  10.114 -0.7378 -0.1779 -0.4987
  176SOPE  H10120022   0.452   4.735  10.129  0.2075  0.8877 -0.5537
  176SOPE  C21120023   0.589   4.637   9.973 -0.2087 -0.3112 -0.6727
  176SOPE  H11R20024   0.669   4.561   9.985 -1.6916 -1.4638  4.2742
  176SOPE  H11S20025   0.635   4.733   9.939 -0.6233  0.1831  0.1312
  176SOPE  C21220026   0.482   4.584   9.878  0.1181  0.7200 -0.5031
  176SOPE  H12R20027   0.403   4.660   9.862  1.0016  1.8940  0.5160
  176SOPE  H12S20028   0.434   4.497   9.928 -0.3664  1.6996  0.7739
  176SOPE  C21320029   0.543   4.558   9.742  0.3180  0.2713 -0.1193
  176SOPE  H13R20030   0.640   4.504   9.748  0.0403 -0.1665  0.4133
  176SOPE  H13S20031   0.554   4.653   9.685 -0.4953 -1.5496 -3.6090
  176SOPE  C21420032   0.448   4.482   9.654  0.1220  0.4626  0.5684
  176SOPE  H14R20033   0.428   4.380   9.693 -0.0756 -0.1096 -0.9453
  176SOPE  H14S20034   0.501   4.472   9.557  1.5266 -1.4402  1.4586
  176SOPE  C21520035   0.316   4.550   9.621  0.0983  0.1498 -0.2417
  176SOPE  H15R20036   0.337   4.654   9.587 -0.1374 -0.5604 -2.7847
  176SOPE  H15S20037   0.247   4.549   9.708 -1.2090  0.8931 -1.2133
  176SOPE  C21620038   0.246   4.477   9.497  0.0081 -0.9098 -0.1899
  176SOPE  H16R20039   0.171   4.550   9.462  0.5983 -0.0665  0.2697
  176SOPE  H16S20040   0.186   4.387   9.521 -2.9701  0.8025 -0.8228
  176SOPE  C21720041   0.334   4.444   9.375  0.7831  0.1384 -0.0775
  176SOPE  H17R20042   0.401   4.359   9.400  1.8440  0.4341 -1.8257
  176SOPE  H17S20043   0.396   4.532   9.348 -1.6201  1.5761 -1.2489
  176SOPE  C21820044   0.247   4.380   9.269  0.0145  0.3021  0.2867
  176SOPE  H18R20045   0.171   4.440   9.215  1.2198 -0.8276 -2.9167
  176SOPE  H18S20046   0.199   4.290   9.313 -1.3689 -0.5236 -2.6444
  176SOPE  H18T20047   0.315   4.339   9.191 -1.2283  1.3742 -1.4354
  176SOPE   C3320048   0.747   4.192  10.691  0.4196  0.1210 -0.5996
  176SOPE   H3X20049   0.857   4.179  10.693  0.1939 -1.9777  0.0975
  176SOPE   H3Y20050   0.725   4.299  10.670  1.7880 -0.0474 -3.2767
  176SOPE   C3420051   0.682   4.107  10.583  0.2282  0.3650 -0.0883
  176SOPE   H4X20052   0.571   4.111  10.590  0.1775 -1.7350  1.5747
  176SOPE   H4Y20053   0.688   3.997  10.602 -0.2990  0.0260 -1.6891
  176SOPE   C3520054   0.745   4.150  10.453 -0.4121  0.2988  0.2576
  176SOPE   H5X20055   0.853   4.123  10.449 -0.2528  0.9700 -0.1979
  176SOPE   H5Y20056   0.741   4.260  10.440 -4.0951  0.5036  1.9296
  176SOPE   C3620057   0.683   4.073  10.338 -0.7276  0.0734 -0.2857
  176SOPE   H6X20058   0.589   4.129  10.315 -1.2801 -1.5003 -2.0510
  176SOPE   H6Y20059   0.668   3.964  10.356  0.7078 -0.3657 -1.5452
  176SOPE   C3720060   0.766   4.075  10.208  0.3817 -0.1463  0.1043
  176SOPE   H7X20061   0.848   4.004  10.228  0.6744  0.5994  1.7253
  176SOPE   H7Y20062   0.823   4.169  10.192  1.0090 -0.5254  0.1228
  176SOPE   C3820063   0.693   4.037  10.080 -0.0202  0.8287  1.0638
  176SOPE   H8X20064   0.620   4.112  10.044 -1.2245 -0.0538  1.6161
  176SOPE   H8Y20065   0.638   3.944  10.105 -0.7429  0.6930 -0.9243
  176SOPE   C3920066   0.785   4.009   9.960  0.8919 -0.3779  0.8300
  176SOPE   H9X20067   0.822   3.904   9.966  2.4523  0.0839 -0.1591
  176SOPE   H9Y20068   0.872   4.078   9.969  0.9447  0.3328 -3.3136
  176SOPE  C31020069   0.718   4.027   9.828 -0.0210 -0.4823 -0.2325
  176SOPE  H10X20070   0.669   4.125   9.810  1.2351  0.0624 -0.7792
  176SOPE  H10Y20071   0.633   3.955   9.819 -0.8629  0.5362 -0.6749
  176SOPE  C31120072   0.809   3.987   9.711 -0.3442  0.2641  1.2341
  176SOPE  H11X20073   0.842   3.881   9.719 -0.9739 -0.0766 -0.3865
  176SOPE  H11Y20074   0.897   4.056   9.720  0.1827 -0.3600  0.9440
  176SOPE  C31220075   0.746   3.995   9.570  0.3905 -0.5339 -0.2795
  176SOPE  H12X20076   0.636   3.984   9.573  0.2135  0.9356 -0.7665
  176SOPE  H12Y20077   0.782   3.914   9.502 -0.2701 -0.0096 -1.2823
  176SOPE  C31320078   0.762   4.139   9.503 -0.8770  0.3440  0.0389
  176SOPE  H13X20079   0.866   4.175   9.518 -0.7602  0.0221  0.0173
  176SOPE  H13Y20080   0.709   4.209   9.572  0.6093 -0.8484  2.5765
  176SOPE  C31420081   0.697   4.142   9.369 -0.9552  0.3132  0.0010
  176SOPE  H14X20082   0.591   4.114   9.382 -0.7847 -0.0493  0.6589
  176SOPE  H14Y20083   0.737   4.060   9.305 -0.1463  0.7314 -0.0482
  176SOPE  C31520084   0.706   4.273   9.304 -0.0092  0.1853 -0.4628
  176SOPE  H15X20085   0.811   4.303   9.282  0.5869 -1.6631 -0.3655
  176SOPE  H15Y20086   0.661   4.353   9.366 -0.6182 -0.6722  0.2144
  176SOPE  C31620087   0.627   4.277   9.169 -0.1457 -0.0641 -0.1564
  176SOPE  H16X20088   0.616   4.383   9.138  0.8155  0.2315  0.4404
  176SOPE  H16Y20089   0.531   4.223   9.177 -1.1658  1.1867 -2.8507
  176SOPE  C31720090   0.710   4.224   9.056  0.3572  0.2909  0.4126
  176SOPE  H17X20091   0.643   4.203   8.970  1.2831 -1.6719  0.1285
  176SOPE  H17Y20092   0.769   4.135   9.088  0.6739  0.7353  1.1140
  176SOPE  C31820093   0.811   4.315   8.986 -0.0185 -0.3359 -0.2352
  176SOPE  H18X20094   0.904   4.333   9.045  1.1536 -1.3216 -1.7163
  176SOPE  H18Y20095   0.770   4.418   8.971  1.2357  0.2959  0.4980
  176SOPE  H18Z20096   0.839   4.273   8.887  0.6852  2.3330 -1.2631
  177SOPE     N20097   6.625   3.020  11.192 -0.2883 -0.7165  0.1295
  177SOPE   HN120098   6.566   3.062  11.117 -0.0724  1.3374  1.0381
  177SOPE   HN220099   6.721   3.037  11.158 -0.9037  1.0056 -0.8810
  177SOPE   HN320100   6.614   2.919  11.210  2.0414 -0.7203  2.0508
  177SOPE   C1220101   6.603   3.119  11.305 -0.3441  0.2223  0.1274
  177SOPE  H12A20102   6.657   3.210  11.270  0.3719  0.3014  1.3767
  177SOPE  H12B20103   6.658   3.065  11.386  0.2457 -0.2973 -0.5946
  177SOPE   C1120104   6.458   3.151  11.324 -0.9339 -0.1789  0.8132
  177SOPE  H11A20105   6.458   3.202  11.422 -1.3147  1.5982 -0.0696
  177SOPE  H11B20106   6.394   3.061  11.325 -0.6890 -0.3983 -0.6856
  177SOPE     P20107   6.280   3.320  11.253 -0.2446 -0.1138 -0.2300
  177SOPE   O1320108   6.338   3.457  11.264  0.2039 -0.2123 -0.1354
  177SOPE   O1420109   6.217   3.265  11.374  0.4137 -0.1976 -0.0567
  177SOPE   O1220110   6.413   3.234  11.222  0.4175  0.2996  1.1935
  177SOPE   O1120111   6.193   3.311  11.123 -0.1208 -0.0496  0.0220
  177SOPE    C120112   6.152   3.193  11.067  0.0049 -0.0695  0.6781
  177SOPE    HA20113   6.042   3.187  11.052  0.0601 -0.6661  0.4732
  177SOPE    HB20114   6.174   3.106  11.132 -0.4951 -0.5943  0.1568
  177SOPE    C220115   6.233   3.148  10.936 -0.7214 -0.0795  0.3485
  177SOPE    HS20116   6.336   3.188  10.948 -0.8369  0.7586 -1.1303
  177SOPE   O2120117   6.174   3.216  10.823 -0.0355  0.2260  0.1254
  177SOPE   C2120118   6.240   3.340  10.797  0.4745  0.4345  0.2252
  177SOPE   O2220119   6.337   3.377  10.849 -0.2845 -0.0051 -0.8006
  177SOPE   C2220120   6.171   3.409  10.682  0.7079 -0.3608  0.3711
  177SOPE   H2R20121   6.211   3.513  10.676  0.4744 -0.1853  1.5695
  177SOPE   H2S20122   6.060   3.414  10.681  0.7249  0.8161 -1.5856
  177SOPE    C320123   6.239   2.999  10.898  0.2834 -0.0037  0.2336
  177SOPE    HX20124   6.141   2.954  10.873 -0.6216  1.7925  0.3912
  177SOPE    HY20125   6.277   2.953  10.992  3.5172 -2.6382 -2.0911
  177SOPE   O3120126   6.331   2.974  10.788 -0.1684 -0.4200 -0.0827
  177SOPE   C3120127   6.460   2.989  10.812 -0.8815  0.3529 -0.4661
  177SOPE   O3220128   6.511   3.012  10.928  0.0388 -0.4581 -0.5476
  177SOPE   C3220129   6.551   2.975  10.695  0.0044 -0.3689  0.7491
  177SOPE   H2X20130   6.544   2.874  10.649  0.0899  0.4302 -1.1340
  177SOPE   H2Y20131   6.650   2.993  10.741  0.1837 -0.8500  0.5637
  177SOPE   C2320132   6.219   3.346  10.550 -0.7724 -0.1606  0.2043
  177SOPE   H3R20133   6.167   3.252  10.523 -0.8940  0.5420 -2.3030
  177SOPE   H3S20134   6.326   3.315  10.554 -0.4422  1.0449  1.8959
  177SOPE   C2420135   6.194   3.430  10.429  0.0854 -0.1706 -1.1645
  177SOPE   H4R20136   6.084   3.444  10.417  0.0515  1.0639  0.3272
  177SOPE   H4S20137   6.239   3.531  10.437  0.3972 -0.1751 -2.6375
  177SOPE   C2520138   6.250   3.379  10.290  0.3394 -0.1487 -0.1630
  177SOPE   H5R20139   6.361   3.377  10.293  0.3350 -1.5214  2.2354
  177SOPE   H5S20140   6.221   3.272  10.295  1.3091 -0.3715  2.7667
  177SOPE   C2620141   6.202   3.451  10.163  0.9351 -0.0071 -0.1857
  177SOPE   H6R20142   6.121   3.401  10.107  0.7917  0.4278 -0.3675
  177SOPE   H6S20143   6.165   3.553  10.188  0.0205  0.0347 -1.6199
  177SOPE   C2720144   6.303   3.467  10.051  0.2290 -0.0407  0.2441
  177SOPE   H7R20145   6.397   3.503  10.098  0.1905  0.7415 -0.2645
  177SOPE   H7S20146   6.316   3.366  10.007  0.9994  0.0756  0.2020
  177SOPE   C2820147   6.270   3.560   9.939 -0.2761 -0.0675  0.0391
  177SOPE   H8R20148   6.169   3.531   9.902 -2.0968  1.4650  3.3653
  177SOPE   H8S20149   6.256   3.662   9.982 -0.7211 -0.3204  0.5085
  177SOPE   C2920150   6.361   3.564   9.820  0.3414 -0.4152 -0.0294
  177SOPE   H9120151   6.453   3.623   9.834 -0.4474  1.3029 -1.5786
  177SOPE  C21020152   6.351   3.499   9.709  0.2035  0.0976  0.8198
  177SOPE  H10120153   6.428   3.509   9.631 -0.9992 -1.6639 -0.6838
  177SOPE  C21120154   6.244   3.407   9.672  0.2155  0.3605  0.3375
  177SOPE  H11R20155   6.146   3.422   9.721 -0.4406  0.9503 -1.1079
  177SOPE  H11S20156   6.266   3.300   9.694 -2.8002 -0.5217 -0.4460
  177SOPE  C21220157   6.215   3.407   9.519  1.1032 -0.3753 -0.4320
  177SOPE  H12R20158   6.130   3.338   9.497  0.2539  0.8876 -1.1911
  177SOPE  H12S20159   6.304   3.380   9.459  2.3955  2.2308  0.1781
  177SOPE  C21320160   6.167   3.549   9.464 -0.8995  0.9268 -0.1067
  177SOPE  H13R20161   6.261   3.607   9.451 -1.0850  0.8975 -1.9175
  177SOPE  H13S20162   6.105   3.605   9.537 -1.9623  0.8203 -0.9098
  177SOPE  C21420163   6.096   3.548   9.324 -0.5238  0.6772  0.1075
  177SOPE  H14R20164   6.067   3.645   9.278 -2.5412 -0.4487 -1.1195
  177SOPE  H14S20165   5.997   3.500   9.336  0.4053 -1.9309 -1.8419
  177SOPE  C21520166   6.169   3.469   9.217  0.2256  0.3077 -0.2218
  177SOPE  H15R20167   6.181   3.370   9.267  3.1435  0.1269 -1.1338
  177SOPE  H15S20168   6.265   3.520   9.196 -1.4522  3.1509 -1.5281
  177SOPE  C21620169   6.092   3.451   9.076 -0.4299 -0.1384 -0.1307
  177SOPE  H16R20170   6.057   3.555   9.056  3.2677  2.0803  3.3603
  177SOPE  H16S20171   6.004   3.384   9.087  0.0444 -0.9660 -1.3050
  177SOPE  C21720172   6.179   3.411   8.956 -0.2652 -0.0896 -0.3381
  177SOPE  H17R20173   6.189   3.301   8.972 -0.2078  0.0040  0.2631
  177SOPE  H17S20174   6.276   3.464   8.962 -0.8831  1.1180 -0.6600
  177SOPE  C21820175   6.132   3.442   8.816  0.2492 -0.4683  0.1596
  177SOPE  H18R20176   6.123   3.550   8.794 -0.2638 -0.5723 -0.1499
  177SOPE  H18S20177   6.033   3.398   8.793 -0.0656  0.6671 -0.7022
  177SOPE  H18T20178   6.209   3.401   8.747 -2.2982 -0.8349 -2.6626
  177SOPE   C3320179   6.513   3.079  10.589 -0.5180 -0.1656  0.2224
  177SOPE   H3X20180   6.493   3.183  10.622 -1.4835 -0.6085  1.1036
  177SOPE   H3Y20181   6.419   3.036  10.548 -0.0640  0.5134 -1.6264
  177SOPE   C3420182   6.601   3.080  10.467  0.6435  0.3375 -0.5497
  177SOPE   H4X20183   6.629   2.979  10.430 -0.2912 -0.3044  0.4350
  177SOPE   H4Y20184   6.688   3.145  10.491 -1.2737  2.4817  1.0888
  177SOPE   C3520185   6.534   3.128  10.340 -0.8705 -0.1511  0.5922
  177SOPE   H5X20186   6.520   3.234  10.369 -0.2450  0.2079 -0.3636
  177SOPE   H5Y20187   6.437   3.077  10.324 -1.3658 -0.0130  2.8458
  177SOPE   C3620188   6.603   3.106  10.205 -0.2487  0.0981  0.2179
  177SOPE   H6X20189   6.634   2.999  10.200 -0.8663 -0.0352 -1.1434
  177SOPE   H6Y20190   6.703   3.154  10.199  1.3466 -2.7412  1.6803
  177SOPE   C3720191   6.524   3.140  10.078  0.5782 -0.8160 -0.5226
  177SOPE   H7X20192   6.490   3.246  10.084 -2.2072 -1.6933  0.5074
  177SOPE   H7Y20193   6.425   3.091  10.065  0.3824 -0.0824 -2.0984
  177SOPE   C3820194   6.610   3.101   9.954  0.7106  0.4717 -0.2285
  177SOPE   H8X20195   6.614   2.990   9.951 -3.0050  0.1556  1.4194
  177SOPE   H8Y20196   6.714   3.137   9.964  1.4394 -1.6552  0.2562
  177SOPE   C3920197   6.551   3.148   9.825  0.0396 -0.6610 -0.2839
  177SOPE   H9X20198   6.544   3.259   9.816  0.8622 -0.6503 -0.8791
  177SOPE   H9Y20199   6.446   3.112   9.839  1.0999 -3.7386  0.5859
  177SOPE  C31020200   6.617   3.096   9.699 -0.0700  0.0634 -1.1693
  177SOPE  H10X20201   6.641   2.991   9.727  0.4096  0.3301 -0.5452
  177SOPE  H10Y20202   6.714   3.143   9.676  1.3923 -0.4795  2.9212
  177SOPE  C31120203   6.525   3.087   9.585  0.9635 -0.1588  0.2447
  177SOPE  H11X20204   6.475   3.186   9.582 -0.8559 -0.9449  2.3787
  177SOPE  H11Y20205   6.442   3.020   9.614 -0.9797  2.3898  0.9441
  177SOPE  C31220206   6.601   3.068   9.449  0.4367  0.3563 -0.3055
  177SOPE  H12X20207   6.673   2.985   9.461  0.1628  0.4646  3.1609
  177SOPE  H12Y20208   6.649   3.169   9.446  0.3893  0.4844  1.8266
  177SOPE  C31320209   6.499   3.073   9.339  0.3346  0.2749 -0.3232
  177SOPE  H13X20210   6.415   3.143   9.353 -2.2407 -3.1421  3.9049
  177SOPE  H13Y20211   6.449   2.975   9.329 -0.2521  0.4090  1.0815
  177SOPE  C31420212   6.576   3.097   9.203  0.1087 -0.4737  0.0591
  177SOPE  H14X20213   6.520   3.047   9.121 -0.3055  0.4593 -0.2350
  177SOPE  H14Y20214   6.675   3.046   9.201  1.7633  2.3948 -3.9049
  177SOPE  C31520215   6.613   3.245   9.163  0.1520  0.4546 -0.0592
  177SOPE  H15X20216   6.670   3.302   9.239  0.5592  2.5707 -1.8637
  177SOPE  H15Y20217   6.517   3.299   9.148  0.5123  0.6683 -1.7037
  177SOPE  C31620218   6.694   3.239   9.035 -0.2108  0.5342 -1.0619
  177SOPE  H16X20219   6.779   3.169   9.045 -2.3231 -1.9560  1.0184
  177SOPE  H16Y20220   6.729   3.342   9.014 -0.3482  0.8861  0.3841
  177SOPE  C31720221   6.619   3.191   8.914  0.0105 -0.6390 -0.7072
  177SOPE  H17X20222   6.600   3.082   8.926 -1.3885 -0.4288 -0.8687
  177SOPE  H17Y20223   6.685   3.200   8.825  0.9504  1.7636  0.1622
  177SOPE  C31820224   6.490   3.267   8.889 -0.1850 -0.1546  0.3805
  177SOPE  H18X20225   6.498   3.377   8.908 -1.5502  0.0922 -0.3416
  177SOPE  H18Y20226   6.417   3.227   8.963 -0.4591 -0.9773 -0.3212
  177SOPE  H18Z20227   6.467   3.251   8.782  0.0465 -1.8094  0.5497
  178SOPE     N20228   4.665   0.102  10.702 -0.0404  0.5383  0.3500
  178SOPE   HN120229   4.582   0.042  10.722  1.9911 -3.2994 -1.7653
  178SOPE   HN220230   4.691   0.091  10.602  1.8617 -1.3092  0.9817
  178SOPE   HN320231   4.743   0.072  10.764 -1.0328  0.9016  1.8410
  178SOPE   C1220232   4.632   0.241  10.745  0.0141  0.0372  0.0502
  178SOPE  H12A20233   4.709   0.302  10.693  1.0272 -1.2543 -0.0039
  178SOPE  H12B20234   4.654   0.258  10.852  0.9332 -2.5413  0.3264
  178SOPE   C1120235   4.485   0.272  10.703 -0.2520 -0.0782  0.4539
  178SOPE  H11A20236   4.480   0.275  10.592 -1.0600  0.8048  0.5030
  178SOPE  H11B20237   4.478   0.377  10.740  1.7648 -0.3647  1.8404
  178SOPE     P20238   4.242   0.207  10.794  0.1118  0.3873  0.3869
  178SOPE   O1320239   4.204   0.352  10.804  0.0132 -0.2557 -0.2159
  178SOPE   O1420240   4.211   0.127  10.912 -0.2644  0.3399 -0.0479
  178SOPE   O1220241   4.392   0.178  10.761  0.1455  0.2528 -0.4007
  178SOPE   O1120242   4.171   0.139  10.678  0.6268  1.1157 -0.0687
  178SOPE    C120243   4.190   0.144  10.538 -0.3646  0.0208 -0.4378
  178SOPE    HA20244   4.230   0.243  10.507  2.2042 -0.9245 -0.3903
  178SOPE    HB20245   4.092   0.127  10.488 -0.0140  1.5361 -1.7210
  178SOPE    C220246   4.286   0.026  10.490 -0.5099  1.7860 -0.4823
  178SOPE    HS20247   4.389   0.054  10.522 -0.2451  0.8050 -0.4410
  178SOPE   O2120248   4.263   0.005  10.346 -0.1385 -0.0825 -0.1244
  178SOPE   C2120249   4.366  -0.037  10.280  0.1841 -0.0090 -0.6974
  178SOPE   O2220250   4.483  -0.033  10.314 -0.2574 -0.2772 -0.0765
  178SOPE   C2220251   4.323  -0.097  10.140  0.5667  0.1101 -0.5694
  178SOPE   H2R20252   4.278  -0.013  10.083 -1.5852  0.7950  1.9495
  178SOPE   H2S20253   4.255  -0.183  10.157  1.5865 -1.0820 -2.1210
  178SOPE    C320254   4.256  -0.113  10.563  0.5413 -0.9868  0.3787
  178SOPE    HX20255   4.159  -0.154  10.527  0.4629 -0.1770 -0.3423
  178SOPE    HY20256   4.244  -0.092  10.672  0.2976 -2.1500  0.5963
  178SOPE   O3120257   4.352  -0.218  10.547 -0.8699  0.2245  0.0975
  178SOPE   C3120258   4.461  -0.214  10.619  0.1705  0.8455 -0.2285
  178SOPE   O3220259   4.497  -0.131  10.701  0.2068 -0.2691  0.2712
  178SOPE   C3220260   4.536  -0.340  10.597 -0.3651  0.0654 -0.0516
  178SOPE   H2X20261   4.489  -0.392  10.512 -1.3307 -0.6695  0.9060
  178SOPE   H2Y20262   4.527  -0.413  10.681 -0.7424 -1.0029 -1.0008
  178SOPE   C2320263   4.450  -0.160  10.068 -0.2668 -0.9526 -0.0914
  178SOPE   H3R20264   4.492  -0.233  10.141 -0.0952  1.7393  2.7333
  178SOPE   H3S20265   4.525  -0.079  10.055 -1.1193 -0.0729  0.3414
  178SOPE   C2420266   4.406  -0.226   9.939 -0.0256  0.2624 -0.4647
  178SOPE   H4R20267   4.484  -0.284   9.887  0.1988 -0.9863  1.1767
  178SOPE   H4S20268   4.314  -0.287   9.956  0.5546  0.0696  2.6338
  178SOPE   C2520269   4.387  -0.115   9.833  0.7864  0.3299 -0.1418
  178SOPE   H5R20270   4.320  -0.031   9.863  0.8835  0.3090  0.1323
  178SOPE   H5S20271   4.489  -0.077   9.811  0.2313  0.9519 -1.8216
  178SOPE   C2620272   4.314  -0.173   9.714  0.2719  0.4709  0.8184
  178SOPE   H6R20273   4.357  -0.273   9.690 -0.1522  0.5635 -0.3936
  178SOPE   H6S20274   4.206  -0.174   9.741  0.4154  0.9380  1.4273
  178SOPE   C2720275   4.313  -0.085   9.588  0.3070  0.6677  0.3839
  178SOPE   H7R20276   4.227  -0.015   9.598  1.5096  2.0647  1.2662
  178SOPE   H7S20277   4.408  -0.029   9.583 -0.0984  1.4205  0.8942
  178SOPE   C2820278   4.296  -0.160   9.450  0.5976 -0.1174 -0.0988
  178SOPE   H8R20279   4.352  -0.256   9.438  2.8268  1.1722 -0.6366
  178SOPE   H8S20280   4.189  -0.182   9.432  0.4777  2.2885 -3.0456
  178SOPE   C2920281   4.333  -0.075   9.334  0.8546  0.2479 -0.5909
  178SOPE   H9120282   4.442  -0.062   9.327  0.8649  0.8498  0.5206
  178SOPE  C21020283   4.256  -0.011   9.247 -0.3076  0.2579 -0.6211
  178SOPE  H10120284   4.318   0.045   9.176  1.1894  0.6836  0.9634
  178SOPE  C21120285   4.100  -0.004   9.246 -0.3024 -0.2069 -0.9336
  178SOPE  H11R20286   4.064   0.090   9.200 -2.8082 -0.1079  1.0351
  178SOPE  H11S20287   4.058  -0.007   9.349  1.5898  1.1427 -0.0591
  178SOPE  C21220288   4.055  -0.117   9.156  0.4298  0.1545 -0.1283
  178SOPE  H12R20289   4.049  -0.209   9.219  0.5005 -1.1922 -2.0109
  178SOPE  H12S20290   4.123  -0.141   9.071 -2.7489 -0.3388 -2.7384
  178SOPE  C21320291   3.921  -0.102   9.090  0.5223  0.2850  0.0365
  178SOPE  H13R20292   3.934  -0.032   9.004 -0.1441  0.0095 -0.2899
  178SOPE  H13S20293   3.845  -0.049   9.151  0.7658 -0.2249  0.7925
  178SOPE  C21420294   3.865  -0.227   9.035  0.7869  0.1705  0.3589
  178SOPE  H14R20295   3.863  -0.314   9.104  3.7234 -1.6098 -1.5481
  178SOPE  H14S20296   3.938  -0.257   8.956 -0.4181 -1.2712 -0.2384
  178SOPE  C21520297   3.723  -0.203   8.980 -0.3549 -0.7818 -0.0227
  178SOPE  H15R20298   3.728  -0.114   8.913 -0.4367  0.5529  1.6672
  178SOPE  H15S20299   3.667  -0.163   9.067  0.9419 -0.1085  0.5266
  178SOPE  C21620300   3.670  -0.339   8.911  0.1431 -0.7898 -0.4444
  178SOPE  H16R20301   3.680  -0.414   8.993  1.6138 -0.2196 -0.0717
  178SOPE  H16S20302   3.739  -0.363   8.827 -0.2782  0.4217 -1.1556
  178SOPE  C21720303   3.531  -0.325   8.842 -0.0811 -0.0831 -0.1773
  178SOPE  H17R20304   3.510  -0.396   8.759 -2.2625  0.2223  0.0690
  178SOPE  H17S20305   3.531  -0.228   8.788  2.3878  1.2260  1.9306
  178SOPE  C21820306   3.421  -0.340   8.941  1.1193 -0.2398 -0.9047
  178SOPE  H18R20307   3.425  -0.272   9.029 -1.5714 -1.2555  0.1205
  178SOPE  H18S20308   3.414  -0.445   8.977  0.4739  0.3751  0.9268
  178SOPE  H18T20309   3.327  -0.317   8.886  0.5645 -1.3263 -0.4517
  178SOPE   C3320310   4.685  -0.329  10.561  0.8705  1.0346  0.0217
  178SOPE   H3X20311   4.721  -0.434  10.574  0.7223  1.1632  1.8242
  178SOPE   H3Y20312   4.743  -0.283  10.644  0.8173  0.5159  0.3515
  178SOPE   C3420313   4.721  -0.252  10.432 -0.0943  0.6368 -0.2364
  178SOPE   H4X20314   4.687  -0.147  10.429  0.0078  0.6840  0.2695
  178SOPE   H4Y20315   4.691  -0.321  10.350  0.4910  0.7953 -0.5979
  178SOPE   C3520316   4.876  -0.254  10.418 -0.4377  0.0761 -0.6022
  178SOPE   H5X20317   4.912  -0.359  10.410  1.5243  0.6372  0.1404
  178SOPE   H5Y20318   4.927  -0.227  10.513  2.3545 -0.5944 -1.8044
  178SOPE   C3620319   4.927  -0.168  10.304  0.4356 -0.0737 -0.5796
  178SOPE   H6X20320   5.035  -0.190  10.292  0.3155 -0.2358 -1.4762
  178SOPE   H6Y20321   4.931  -0.063  10.338  1.8102 -0.3091  0.0588
  178SOPE   C3720322   4.855  -0.181  10.167 -0.2233  0.5102 -0.4236
  178SOPE   H7X20323   4.749  -0.159  10.192 -0.1707 -0.5296  0.8234
  178SOPE   H7Y20324   4.863  -0.290  10.147 -1.0060  0.2005  0.8181
  178SOPE   C3820325   4.923  -0.114  10.052 -0.5546 -0.2150  0.5203
  178SOPE   H8X20326   5.033  -0.127  10.058 -0.6002 -0.1806  1.6689
  178SOPE   H8Y20327   4.918  -0.005  10.072 -1.2909 -0.2441  0.5120
  178SOPE   C3920328   4.869  -0.171   9.912 -0.1758  0.5830 -0.5005
  178SOPE   H9X20329   4.759  -0.169   9.924  0.0091  1.8238  1.5046
  178SOPE   H9Y20330   4.901  -0.277   9.925  0.3084  0.9723  2.2980
  178SOPE  C31020331   4.921  -0.098   9.792  0.0253  0.1445 -0.6869
  178SOPE  H10X20332   4.889  -0.144   9.695 -3.0958  0.6221  0.0152
  178SOPE  H10Y20333   5.032  -0.097   9.798 -0.0335  1.3167  0.4808
  178SOPE  C31120334   4.876   0.051   9.801  0.1240 -0.3119 -0.9227
  178SOPE  H11X20335   4.934   0.103   9.881 -0.0031 -1.0211 -0.3592
  178SOPE  H11Y20336   4.769   0.052   9.829  0.5455  3.0714  1.1564
  178SOPE  C31220337   4.898   0.144   9.682 -0.0801 -0.4249 -1.0899
  178SOPE  H12X20338   5.006   0.160   9.665  0.0814  0.1741  0.3349
  178SOPE  H12Y20339   4.852   0.240   9.714  0.5226  0.1934 -2.0216
  178SOPE  C31320340   4.826   0.097   9.551 -0.4246 -0.1986  0.5274
  178SOPE  H13X20341   4.725   0.057   9.576 -0.3000  1.2147  3.7540
  178SOPE  H13Y20342   4.896   0.020   9.512 -0.2934  0.3385 -0.3137
  178SOPE  C31420343   4.810   0.210   9.445  0.4318 -0.6362  0.1554
  178SOPE  H14X20344   4.908   0.257   9.423  0.4437 -1.3993 -1.6080
  178SOPE  H14Y20345   4.741   0.282   9.494  1.1786 -2.3135  4.0618
  178SOPE  C31520346   4.750   0.164   9.320  0.3617 -0.6469  0.9602
  178SOPE  H15X20347   4.655   0.111   9.342  0.0204  0.1996  1.5288
  178SOPE  H15Y20348   4.804   0.084   9.265 -0.9128 -1.0898  0.3185
  178SOPE  C31620349   4.702   0.280   9.223 -0.0614  0.0060  0.8811
  178SOPE  H16X20350   4.794   0.340   9.208 -0.3667 -0.0838 -2.0846
  178SOPE  H16Y20351   4.626   0.333   9.284 -1.5814 -1.5021  0.3848
  178SOPE  C31720352   4.636   0.224   9.095 -0.5410 -0.0991  0.2432
  178SOPE  H17X20353   4.531   0.191   9.115 -0.8012 -0.6274 -1.7632
  178SOPE  H17Y20354   4.694   0.132   9.074 -2.0469 -1.0915  0.2310
  178SOPE  C31820355   4.640   0.324   8.973  0.1716  0.0727 -0.1200
  178SOPE  H18X20356   4.608   0.427   9.002 -0.5791 -0.8796  2.7453
  178SOPE  H18Y20357   4.589   0.293   8.879  0.9622 -1.2695 -0.1273
  178SOPE  H18Z20358   4.746   0.329   8.941  0.2813 -1.7278 -0.1393
  179SOPE     N20359   1.408   3.899   6.508 -0.8374  0.4394  0.1400
  179SOPE   HN120360   1.423   3.799   6.482  0.5186  1.1943 -2.2767
  179SOPE   HN220361   1.481   3.963   6.471 -1.7991  0.2311 -2.2602
  179SOPE   HN320362   1.406   3.894   6.612  1.3958  0.0126  0.2265
  179SOPE   C1220363   1.277   3.942   6.447 -0.6573  0.5924 -0.0637
  179SOPE  H12A20364   1.203   3.870   6.490 -0.7317 -0.3668 -1.7209
  179SOPE  H12B20365   1.287   3.921   6.339  2.6153  0.6963  0.1236
  179SOPE   C1120366   1.237   4.080   6.488 -0.4500 -0.1105 -0.0227
  179SOPE  H11A20367   1.148   4.102   6.426 -1.1672  0.0402  1.0293
  179SOPE  H11B20368   1.310   4.160   6.462  0.6695 -0.7828  0.9274
  179SOPE     P20369   1.222   4.220   6.721 -0.2211  0.3181 -0.2833
  179SOPE   O1320370   1.351   4.282   6.685 -0.2899  0.3290 -0.0285
  179SOPE   O1420371   1.193   4.188   6.860  0.4571 -0.3048 -0.8245
  179SOPE   O1220372   1.207   4.090   6.630 -0.1817  0.2102 -0.1471
  179SOPE   O1120373   1.104   4.316   6.673 -0.0042 -0.4423 -0.4362
  179SOPE    C120374   0.982   4.269   6.612 -0.6560 -0.1877  0.4739
  179SOPE    HA20375   0.973   4.158   6.611 -1.3856 -0.1341 -0.0516
  179SOPE    HB20376   0.988   4.300   6.505  1.9577 -1.8581  0.0698
  179SOPE    C220377   0.854   4.336   6.662 -0.5149  0.2060  0.4980
  179SOPE    HS20378   0.863   4.441   6.628 -1.0322  0.2792  0.5768
  179SOPE   O2120379   0.838   4.311   6.804 -0.0283 -0.5629 -0.7123
  179SOPE   C2120380   0.911   4.398   6.877  0.4436 -0.5254 -0.4459
  179SOPE   O2220381   0.939   4.510   6.847 -0.2261  0.5649 -0.1536
  179SOPE   C2220382   0.933   4.346   7.015 -0.0941 -0.3599  0.4448
  179SOPE   H2R20383   0.938   4.235   7.018 -1.0558 -0.4168  0.1813
  179SOPE   H2S20384   0.856   4.382   7.085 -0.4070  1.7834 -0.8954
  179SOPE    C320385   0.743   4.268   6.581  0.7071 -0.9754 -0.3318
  179SOPE    HX20386   0.733   4.161   6.610 -3.1087 -0.1824  2.0834
  179SOPE    HY20387   0.762   4.298   6.476  0.6404 -0.7372 -0.2758
  179SOPE   O3120388   0.624   4.342   6.613 -0.2703  0.0797  0.1319
  179SOPE   C3120389   0.548   4.303   6.725  0.5196 -0.0417 -0.4303
  179SOPE   O3220390   0.566   4.199   6.784 -0.0964  0.0746  0.5030
  179SOPE   C3220391   0.423   4.389   6.753  0.6964  0.0455 -0.0589
  179SOPE   H2X20392   0.341   4.315   6.754  1.2264 -0.5570 -0.2909
  179SOPE   H2Y20393   0.411   4.462   6.670  0.0916  0.4446  0.3685
  179SOPE   C2320394   1.065   4.402   7.074  1.0113 -0.1922  1.4006
  179SOPE   H3R20395   1.064   4.509   7.106 -1.3362 -0.3027  1.9027
  179SOPE   H3S20396   1.147   4.376   7.004  0.7556 -1.0513  1.4134
  179SOPE   C2420397   1.106   4.311   7.190  0.4131  0.5201  0.3473
  179SOPE   H4R20398   1.090   4.206   7.158 -0.3892  1.0344 -1.0096
  179SOPE   H4S20399   1.216   4.306   7.193  0.3867 -2.4861 -0.3055
  179SOPE   C2520400   1.027   4.347   7.319  0.3533  0.4349 -0.2148
  179SOPE   H5R20401   1.093   4.423   7.366 -0.6578 -0.0303  2.0993
  179SOPE   H5S20402   0.932   4.397   7.290  3.3074  5.2971 -2.8923
  179SOPE   C2620403   1.018   4.229   7.422  0.0450 -0.9730 -0.0048
  179SOPE   H6R20404   0.944   4.158   7.379  0.5214 -1.3731 -0.1920
  179SOPE   H6S20405   1.116   4.175   7.425 -0.3029 -1.6684 -0.8116
  179SOPE   C2720406   0.965   4.274   7.560  0.5107 -0.1411  0.4995
  179SOPE   H7R20407   0.880   4.344   7.548  0.9759  0.3784  0.2344
  179SOPE   H7S20408   0.926   4.179   7.604  0.5443 -1.4246 -2.0601
  179SOPE   C2820409   1.066   4.320   7.673  0.4289  0.0146  0.1261
  179SOPE   H8R20410   1.121   4.407   7.632  2.6016  0.2095  3.1321
  179SOPE   H8S20411   0.994   4.360   7.747  1.4280  1.0133  0.5774
  179SOPE   C2920412   1.147   4.206   7.737 -0.2000  0.0650 -0.2809
  179SOPE   H9120413   1.164   4.132   7.658  1.2901  0.7889 -0.6723
  179SOPE  C21020414   1.199   4.199   7.864 -0.3074 -0.5939  0.4213
  179SOPE  H10120415   1.258   4.109   7.889 -0.0892 -0.1579  1.5334
  179SOPE  C21120416   1.169   4.299   7.975 -1.0096 -0.0443  1.0221
  179SOPE  H11R20417   1.173   4.404   7.939  0.8686 -0.1834  0.6911
  179SOPE  H11S20418   1.255   4.293   8.045  1.9072 -0.7417 -2.3471
  179SOPE  C21220419   1.036   4.267   8.048 -0.1865  0.0190  0.2280
  179SOPE  H12R20420   1.024   4.163   8.087 -1.1321  0.1380  0.2812
  179SOPE  H12S20421   0.950   4.276   7.978 -0.7704 -1.4167  0.7037
  179SOPE  C21320422   0.999   4.359   8.161 -0.1116  0.1944  0.4798
  179SOPE  H13R20423   0.895   4.331   8.189 -0.9725  1.6485 -1.0289
  179SOPE  H13S20424   0.986   4.466   8.132 -0.8314  1.0891  3.6949
  179SOPE  C21420425   1.083   4.341   8.286 -0.5971 -0.1027  0.0329
  179SOPE  H14R20426   1.058   4.412   8.367  0.9813  1.0958 -0.4864
  179SOPE  H14S20427   1.185   4.380   8.266 -1.0104  0.6976 -0.5922
  179SOPE  C21520428   1.088   4.196   8.336  0.2589 -1.3760  0.7439
  179SOPE  H15R20429   1.155   4.141   8.266 -0.0496 -2.0131  0.9438
  179SOPE  H15S20430   0.986   4.153   8.343  1.3951 -4.1490  2.1241
  179SOPE  C21620431   1.154   4.189   8.483 -0.2974  0.1201 -1.4721
  179SOPE  H16R20432   1.247   4.248   8.478  0.1209 -0.4462 -0.7486
  179SOPE  H16S20433   1.176   4.084   8.513 -0.8595  0.6146  0.9095
  179SOPE  C21720434   1.071   4.235   8.599  0.2633  0.3824 -0.3966
  179SOPE  H17R20435   0.969   4.190   8.601  1.1489 -1.7664 -0.0366
  179SOPE  H17S20436   1.057   4.342   8.576  1.3895  0.7829  0.6697
  179SOPE  C21820437   1.153   4.215   8.732  0.6484 -0.1471 -0.5826
  179SOPE  H18R20438   1.089   4.239   8.820  0.4671 -1.3941 -0.3545
  179SOPE  H18S20439   1.240   4.284   8.720 -0.7507  1.6551 -0.8155
  179SOPE  H18T20440   1.190   4.110   8.737 -1.7185 -0.9929  0.9372
  179SOPE   C3320441   0.431   4.456   6.896  0.1001  0.0786  0.8466
  179SOPE   H3X20442   0.479   4.393   6.974 -0.4533 -1.3453  0.0808
  179SOPE   H3Y20443   0.329   4.479   6.933  0.4766  0.5260  1.6352
  179SOPE   C3420444   0.511   4.585   6.899 -0.6493 -0.1843 -0.2855
  179SOPE   H4X20445   0.475   4.661   6.827  0.7990 -1.5366 -2.5303
  179SOPE   H4Y20446   0.615   4.561   6.871 -0.2983 -1.9146  2.2217
  179SOPE   C3520447   0.501   4.652   7.032  0.8077  0.0856  0.3664
  179SOPE   H5X20448   0.398   4.671   7.068  0.8893  0.1122  0.5840
  179SOPE   H5Y20449   0.559   4.746   7.018  0.6633 -0.1407 -2.3267
  179SOPE   C3620450   0.580   4.580   7.140  0.6122 -0.6659 -0.5470
  179SOPE   H6X20451   0.683   4.577   7.098  0.8701  0.3818 -0.0060
  179SOPE   H6Y20452   0.550   4.475   7.164 -2.8503  0.6056  1.3906
  179SOPE   C3720453   0.561   4.654   7.270 -0.0173 -0.2928  0.1657
  179SOPE   H7X20454   0.453   4.633   7.289  0.1724 -1.8792 -0.4071
  179SOPE   H7Y20455   0.583   4.762   7.253 -1.9987  0.0674 -0.3697
  179SOPE   C3820456   0.651   4.610   7.386  0.7070 -0.4876 -0.3635
  179SOPE   H8X20457   0.758   4.632   7.365  1.6560 -0.8553  3.3966
  179SOPE   H8Y20458   0.646   4.501   7.409 -1.4469 -0.7102 -1.6264
  179SOPE   C3920459   0.606   4.692   7.509 -0.4547  0.0948 -0.4403
  179SOPE   H9X20460   0.496   4.682   7.521 -0.2120 -1.0659  1.0707
  179SOPE   H9Y20461   0.625   4.800   7.489 -1.5199  0.6839  1.4946
  179SOPE  C31020462   0.689   4.646   7.631  0.1407 -0.0055 -0.1622
  179SOPE  H10X20463   0.796   4.654   7.605  0.3402  1.3534  0.9992
  179SOPE  H10Y20464   0.658   4.541   7.652  2.8042 -0.9126 -0.3857
  179SOPE  C31120465   0.653   4.727   7.748 -0.1942  0.6011 -0.9991
  179SOPE  H11X20466   0.542   4.728   7.756 -0.1098 -1.3239  3.2399
  179SOPE  H11Y20467   0.676   4.835   7.734  0.4596  0.7578  1.0203
  179SOPE  C31220468   0.714   4.663   7.879 -0.2120 -0.1338  0.5229
  179SOPE  H12X20469   0.818   4.635   7.850 -1.4347 -1.5232 -3.0994
  179SOPE  H12Y20470   0.665   4.565   7.898  2.1310 -1.3651  0.5743
  179SOPE  C31320471   0.696   4.745   8.006 -0.4537 -0.9642 -0.3841
  179SOPE  H13X20472   0.604   4.805   7.995 -0.7693 -1.3513  0.1092
  179SOPE  H13Y20473   0.777   4.820   8.019  1.6416 -3.5161  3.1477
  179SOPE  C31420474   0.678   4.660   8.139  0.6412  0.2383  0.1287
  179SOPE  H14X20475   0.757   4.583   8.152  0.0262 -0.1165  2.0372
  179SOPE  H14Y20476   0.585   4.602   8.123  0.5627 -0.1822  1.8982
  179SOPE  C31520477   0.681   4.746   8.264  0.1330  0.5877 -0.1585
  179SOPE  H15X20478   0.654   4.854   8.259  2.4261  1.4346  2.6150
  179SOPE  H15Y20479   0.787   4.751   8.296  0.4262 -0.1873 -0.9743
  179SOPE  C31620480   0.578   4.692   8.371 -0.0279 -0.6726  0.2264
  179SOPE  H16X20481   0.579   4.581   8.382  0.1706 -0.6039  0.9164
  179SOPE  H16Y20482   0.479   4.716   8.327  0.5012 -1.5652 -1.6008
  179SOPE  C31720483   0.601   4.749   8.506 -0.3098 -0.0903 -0.6530
  179SOPE  H17X20484   0.698   4.709   8.541 -1.2797 -2.6983 -0.7702
  179SOPE  H17Y20485   0.525   4.726   8.584  0.7308 -0.3293  0.3149
  179SOPE  C31820486   0.609   4.899   8.514 -0.3831 -0.5063 -0.2625
  179SOPE  H18X20487   0.511   4.935   8.477  0.9757  1.5163 -2.1026
  179SOPE  H18Y20488   0.695   4.939   8.455  0.4052 -1.1976  0.3928
  179SOPE  H18Z20489   0.619   4.934   8.618  0.6597  1.9185 -1.1208
  180SOPE     N20490   2.144   1.221   6.242 -0.2447 -0.3690  0.0854
  180SOPE   HN120491   2.129   1.151   6.318  0.8455 -1.4635 -0.6691
  180SOPE   HN220492   2.233   1.191   6.197 -0.3408  0.2493 -0.5287
  180SOPE   HN320493   2.179   1.307   6.288  1.9123 -0.3941 -1.3619
  180SOPE   C1220494   2.040   1.246   6.141 -0.7332 -0.4207  0.3041
  180SOPE  H12A20495   2.046   1.172   6.059  1.4821  0.3079 -0.2580
  180SOPE  H12B20496   2.067   1.351   6.113  0.8705 -1.1491 -1.0287
  180SOPE   C1120497   1.895   1.239   6.204 -0.0425 -0.0177 -0.4089
  180SOPE  H11A20498   1.864   1.134   6.220 -0.2631 -0.4183 -2.9286
  180SOPE  H11B20499   1.827   1.292   6.133  1.3257  2.0632 -0.2544
  180SOPE     P20500   1.765   1.316   6.422  0.0166  0.0883 -0.0981
  180SOPE   O1320501   1.688   1.187   6.413  0.3278  0.1171  0.0158
  180SOPE   O1420502   1.697   1.440   6.375  0.2422 -0.3992 -0.0155
  180SOPE   O1220503   1.898   1.310   6.331  0.0615 -0.1667 -0.0885
  180SOPE   O1120504   1.819   1.328   6.574 -0.1614 -0.0090 -0.0656
  180SOPE    C120505   1.947   1.286   6.625  0.0803 -0.3017  0.2358
  180SOPE    HA20506   1.983   1.356   6.702  0.7664 -1.7622  1.2937
  180SOPE    HB20507   2.020   1.265   6.544  0.6314 -1.2334  0.9525
  180SOPE    C220508   1.943   1.151   6.695  0.7135  0.7898  0.2836
  180SOPE    HS20509   1.917   1.071   6.623 -0.4888 -0.8655  2.4460
  180SOPE   O2120510   1.837   1.160   6.800 -0.2638 -0.3043  0.6143
  180SOPE   C2120511   1.822   1.056   6.876  0.4884 -0.4058  0.6615
  180SOPE   O2220512   1.862   0.946   6.858  0.3296 -0.1563  0.3420
  180SOPE   C2220513   1.727   1.100   6.990 -0.2972  0.1610 -0.4372
  180SOPE   H2R20514   1.686   1.007   7.034  3.0400 -0.9279  0.6836
  180SOPE   H2S20515   1.653   1.170   6.944 -0.9128 -0.8006 -0.9296
  180SOPE    C320516   2.084   1.111   6.742 -0.6290  0.4209 -0.1524
  180SOPE    HX20517   2.152   1.123   6.655  1.1750  0.3408  1.1729
  180SOPE    HY20518   2.069   1.004   6.768 -0.4835  0.6459  0.9301
  180SOPE   O3120519   2.127   1.192   6.852  0.2392  0.6701  0.0539
  180SOPE   C3120520   2.214   1.139   6.939  0.3988 -0.2384 -0.1668
  180SOPE   O3220521   2.253   1.022   6.929 -0.1246  0.0882  0.2288
  180SOPE   C3220522   2.229   1.245   7.056 -0.1962  0.8870  0.2267
  180SOPE   H2X20523   2.134   1.252   7.112 -1.3672 -1.6996 -1.2460
  180SOPE   H2Y20524   2.288   1.328   7.012  1.2810 -1.4440 -2.5130
  180SOPE   C2320525   1.813   1.174   7.099  0.0957  0.2245 -0.4075
  180SOPE   H3R20526   1.850   1.270   7.058 -0.1269 -0.5708 -2.5687
  180SOPE   H3S20527   1.900   1.116   7.139  1.6878  1.4368 -1.9521
  180SOPE   C2420528   1.740   1.208   7.223 -0.3007 -0.0789 -0.2490
  180SOPE   H4R20529   1.660   1.280   7.193 -2.0527 -1.8340  0.0009
  180SOPE   H4S20530   1.701   1.116   7.272  3.3718 -1.9850 -0.5965
  180SOPE   C2520531   1.825   1.281   7.329 -0.0367 -0.4719  0.7405
  180SOPE   H5R20532   1.928   1.239   7.336 -0.5835 -1.6338  2.3226
  180SOPE   H5S20533   1.839   1.386   7.297 -0.8687 -0.9932 -1.5552
  180SOPE   C2620534   1.760   1.289   7.465  0.4634 -0.5555 -0.2958
  180SOPE   H6R20535   1.652   1.300   7.439  0.8911  0.8078 -1.6328
  180SOPE   H6S20536   1.783   1.192   7.514  0.8900  0.4051  1.4976
  180SOPE   C2720537   1.823   1.399   7.560 -0.1613  0.5865  1.0096
  180SOPE   H7R20538   1.931   1.402   7.533  0.0032  0.2907  1.6207
  180SOPE   H7S20539   1.801   1.505   7.535  3.2143  1.4343  1.1145
  180SOPE   C2820540   1.823   1.372   7.705 -0.0065 -0.7501  0.8589
  180SOPE   H8R20541   1.854   1.266   7.720 -3.0802 -2.1745 -1.6759
  180SOPE   H8S20542   1.906   1.429   7.754 -1.1034  2.0772 -0.3862
  180SOPE   C2920543   1.691   1.418   7.762  0.1264 -0.0553  0.0207
  180SOPE   H9120544   1.645   1.509   7.721 -1.3052 -0.5301  0.5316
  180SOPE  C21020545   1.632   1.363   7.870 -0.5381 -0.0716 -0.4661
  180SOPE  H10120546   1.530   1.394   7.897 -0.4842  0.0066 -0.3503
  180SOPE  C21120547   1.678   1.244   7.948  0.1912 -0.0638 -1.0435
  180SOPE  H11R20548   1.746   1.182   7.887  0.2381  0.7929 -1.8851
  180SOPE  H11S20549   1.590   1.181   7.976  1.0199  0.0678  2.2871
  180SOPE  C21220550   1.740   1.301   8.082 -0.4039 -0.0371 -0.2312
  180SOPE  H12R20551   1.674   1.368   8.142 -0.4404  0.1276 -0.4542
  180SOPE  H12S20552   1.820   1.375   8.059 -1.2394  0.5472 -1.3363
  180SOPE  C21320553   1.792   1.184   8.168  0.1093 -0.2359  0.1347
  180SOPE  H13R20554   1.853   1.107   8.115  0.5799  0.2695 -0.0752
  180SOPE  H13S20555   1.704   1.120   8.189  1.9091 -4.0679 -2.7523
  180SOPE  C21420556   1.848   1.216   8.306 -0.4029 -0.1547 -0.3576
  180SOPE  H14R20557   1.804   1.309   8.347  0.8218 -0.5735  2.0957
  180SOPE  H14S20558   1.955   1.238   8.283 -0.6170  1.1243 -0.2016
  180SOPE  C21520559   1.838   1.101   8.410 -0.6525 -0.8736 -0.5581
  180SOPE  H15R20560   1.891   1.012   8.371  0.9424  0.2813 -1.1063
  180SOPE  H15S20561   1.736   1.061   8.431 -0.2503 -0.0376  4.0989
  180SOPE  C21620562   1.879   1.143   8.552  0.3103  0.2736  0.8400
  180SOPE  H16R20563   1.792   1.131   8.620  1.0218  1.7131  2.0571
  180SOPE  H16S20564   1.891   1.254   8.554 -2.6395  0.7501 -1.3021
  180SOPE  C21720565   2.001   1.069   8.610  0.1763  0.8281 -0.5334
  180SOPE  H17R20566   1.963   0.965   8.622  0.1149  0.8712 -0.3432
  180SOPE  H17S20567   2.020   1.114   8.710  1.0325  1.6687 -1.0594
  180SOPE  C21820568   2.130   1.064   8.530 -0.3882  0.2241  0.3085
  180SOPE  H18R20569   2.182   1.162   8.528 -0.0313  0.0313 -1.2187
  180SOPE  H18S20570   2.106   1.029   8.427  0.1063 -1.3508  0.6921
  180SOPE  H18T20571   2.199   0.994   8.582 -1.1489  0.3413  1.5126
  180SOPE   C3320572   2.325   1.183   7.163  0.9271  0.1615  0.0243
  180SOPE   H3X20573   2.412   1.146   7.105  0.5482  2.0897 -1.8833
  180SOPE   H3Y20574   2.274   1.094   7.205  0.1106  1.1998  1.3136
  180SOPE   C3420575   2.357   1.282   7.278 -0.4292 -0.2245 -0.4800
  180SOPE   H4X20576   2.391   1.380   7.238  1.0955 -0.3479  0.4491
  180SOPE   H4Y20577   2.443   1.243   7.336  0.4991  1.4302 -0.6744
  180SOPE   C3520578   2.246   1.306   7.380  0.0440  0.2486  0.3414
  180SOPE   H5X20579   2.187   1.212   7.395 -1.4682  0.7302 -2.0931
  180SOPE   H5Y20580   2.165   1.376   7.352 -2.0718 -0.2485  4.5069
  180SOPE   C3620581   2.300   1.328   7.517  0.3692  0.4416 -0.5419
  180SOPE   H6X20582   2.352   1.425   7.517  1.9125 -0.3232 -2.0891
  180SOPE   H6Y20583   2.382   1.258   7.545 -1.6477 -1.4290  1.0693
  180SOPE   C3720584   2.194   1.334   7.637  0.0938  0.0360  0.3332
  180SOPE   H7X20585   2.122   1.249   7.628  0.1167  0.1236 -0.8789
  180SOPE   H7Y20586   2.131   1.422   7.613 -1.2299 -0.6116  1.2999
  180SOPE   C3820587   2.262   1.357   7.776  0.2493  0.2178  0.4024
  180SOPE   H8X20588   2.350   1.424   7.768  1.0191 -0.7905  0.1614
  180SOPE   H8Y20589   2.302   1.259   7.811 -1.4471 -0.1479  1.4365
  180SOPE   C3920590   2.173   1.407   7.889  0.3098  0.1453  0.0157
  180SOPE   H9X20591   2.091   1.334   7.910  0.7232 -0.0682  0.9469
  180SOPE   H9Y20592   2.136   1.512   7.880  1.4820  0.4773 -1.1534
  180SOPE  C31020593   2.243   1.420   8.024 -1.3150  0.6666 -0.5365
  180SOPE  H10X20594   2.348   1.455   8.009 -0.6285 -0.9619  0.1644
  180SOPE  H10Y20595   2.259   1.314   8.055 -1.8194 -0.4368 -3.7089
  180SOPE  C31120596   2.167   1.486   8.144  0.0189 -0.3792  0.1554
  180SOPE  H11X20597   2.059   1.470   8.121 -0.2647  1.2866  0.2345
  180SOPE  H11Y20598   2.186   1.595   8.148  1.0085 -0.3229 -2.9989
  180SOPE  C31220599   2.206   1.426   8.281  0.8531 -0.1107 -0.4661
  180SOPE  H12X20600   2.202   1.315   8.278  1.4352 -0.1642  0.3511
  180SOPE  H12Y20601   2.123   1.456   8.347  1.1776 -2.5847  1.2150
  180SOPE  C31320602   2.345   1.465   8.313  0.1975 -0.1290  0.3512
  180SOPE  H13X20603   2.359   1.564   8.265 -1.1420 -0.4802 -0.8430
  180SOPE  H13Y20604   2.420   1.402   8.261  1.0613  1.6516 -0.6581
  180SOPE  C31420605   2.374   1.465   8.459  0.5603  0.5745 -0.2849
  180SOPE  H14X20606   2.384   1.360   8.493 -1.1750  0.1150 -1.0631
  180SOPE  H14Y20607   2.284   1.506   8.509  0.2865 -1.1828  0.6930
  180SOPE  C31520608   2.495   1.554   8.500 -0.8020  0.8198  0.1025
  180SOPE  H15X20609   2.488   1.659   8.464  1.7659  0.3897 -2.0507
  180SOPE  H15Y20610   2.591   1.517   8.457 -1.4106  1.1321 -1.6100
  180SOPE  C31620611   2.514   1.554   8.650  0.3440  0.6279 -0.4433
  180SOPE  H16X20612   2.617   1.589   8.675  1.5714 -1.5535 -2.1177
  180SOPE  H16Y20613   2.515   1.449   8.687  0.1688  0.5850 -0.5619
  180SOPE  C31720614   2.423   1.649   8.731  0.8121 -0.3207 -0.0182
  180SOPE  H17X20615   2.318   1.618   8.712  0.5258  0.2889  0.5236
  180SOPE  H17Y20616   2.425   1.749   8.684 -0.7958 -1.0090 -1.6725
  180SOPE  C31820617   2.450   1.653   8.882  0.0743  0.1151 -0.3214
  180SOPE  H18X20618   2.546   1.708   8.887  0.7535 -1.1296  1.4651
  180SOPE  H18Y20619   2.450   1.553   8.931 -0.9483  0.4402  0.3822
  180SOPE  H18Z20620   2.367   1.712   8.928  0.7374  0.2510  0.7362
  181SOPE     N20621   1.762   5.830   6.277  0.1741 -0.2274  0.5016
  181SOPE   HN120622   1.860   5.800   6.260  0.7523  0.2955  2.6224
  181SOPE   HN220623   1.718   5.736   6.276  0.3722 -0.3708 -2.4103
  181SOPE   HN320624   1.726   5.877   6.192 -2.0450  1.1674  2.1229
  181SOPE   C1220625   1.736   5.915   6.394 -0.1746  0.4409 -0.0309
  181SOPE  H12A20626   1.676   6.003   6.364 -2.0343 -0.5481  0.6370
  181SOPE  H12B20627   1.827   5.961   6.438  0.3961 -0.7446  0.0611
  181SOPE   C1120628   1.659   5.842   6.506  0.1639 -0.2154 -0.2142
  181SOPE  H11A20629   1.655   5.911   6.593  0.7225 -1.3410  0.7326
  181SOPE  H11B20630   1.727   5.763   6.546  0.8934  0.4305 -0.1722
  181SOPE     P20631   1.402   5.866   6.502  0.4250  0.0370  0.4505
  181SOPE   O1320632   1.306   5.753   6.506  0.4214 -0.5353 -0.4451
  181SOPE   O1420633   1.362   5.974   6.412 -0.0745 -0.5039  0.8101
  181SOPE   O1220634   1.538   5.792   6.461  0.7428  0.2320  0.0400
  181SOPE   O1120635   1.429   5.905   6.651 -0.0182  0.6089 -0.2337
  181SOPE    C120636   1.449   5.804   6.743  0.0270 -0.3150  0.1168
  181SOPE    HA20637   1.530   5.735   6.710 -0.9630 -0.4218 -2.2506
  181SOPE    HB20638   1.353   5.749   6.757  0.2568 -0.7569 -0.0289
  181SOPE    C220639   1.479   5.859   6.889 -0.1084  0.2255  0.7315
  181SOPE    HS20640   1.503   5.776   6.958 -0.2146  0.3822  0.9567
  181SOPE   O2120641   1.355   5.929   6.935  0.1702 -0.1631 -0.6915
  181SOPE   C2120642   1.355   5.943   7.071  0.6562 -0.5653 -0.4923
  181SOPE   O2220643   1.436   5.898   7.143  0.1565 -0.3950  0.0322
  181SOPE   C2220644   1.247   6.033   7.116  0.3842 -0.4621 -0.3034
  181SOPE   H2R20645   1.166   6.029   7.040  0.6374  0.1050 -0.6031
  181SOPE   H2S20646   1.294   6.133   7.118  0.4240 -0.4564 -1.1953
  181SOPE    C320647   1.597   5.955   6.873 -0.0836  0.0264 -0.0505
  181SOPE    HX20648   1.572   6.044   6.810 -0.8911 -1.5319 -2.0564
  181SOPE    HY20649   1.676   5.901   6.816  0.2262 -0.9264  1.2305
  181SOPE   O3120650   1.663   6.000   7.000 -0.2706  0.1097  0.9726
  181SOPE   C3120651   1.741   5.908   7.064 -1.0720 -1.0709  0.3536
  181SOPE   O3220652   1.748   5.786   7.041  0.5334 -0.3299 -0.2967
  181SOPE   C3220653   1.803   5.960   7.200  0.7559 -0.1229  0.6128
  181SOPE   H2X20654   1.716   5.984   7.265 -0.5917 -0.1637 -1.0975
  181SOPE   H2Y20655   1.848   6.057   7.169  0.7881  0.0340  1.1384
  181SOPE   C2320656   1.172   6.002   7.260  0.1219  0.0569 -0.0426
  181SOPE   H3R20657   1.174   5.893   7.279  0.2988  0.0634 -0.0235
  181SOPE   H3S20658   1.067   6.038   7.267  0.5913  1.3954  0.5597
  181SOPE   C2420659   1.239   6.082   7.379 -0.0584  0.5245  0.2178
  181SOPE   H4R20660   1.334   6.119   7.334  0.7457 -3.0211 -1.3582
  181SOPE   H4S20661   1.184   6.171   7.414 -0.0836  0.0818  1.3592
  181SOPE   C2520662   1.284   5.986   7.492  0.5102  0.0527  0.6301
  181SOPE   H5R20663   1.206   5.909   7.511  0.2804 -0.1256 -0.9204
  181SOPE   H5S20664   1.375   5.929   7.460  0.2953  0.2052 -0.2647
  181SOPE   C2620665   1.326   6.065   7.618  1.0237 -0.1587  0.6548
  181SOPE   H6R20666   1.408   6.135   7.594 -0.2518  2.7342  3.8577
  181SOPE   H6S20667   1.243   6.121   7.666  0.9624  1.2665 -1.0255
  181SOPE   C2720668   1.380   5.975   7.733 -0.7926 -0.5776  0.7492
  181SOPE   H7R20669   1.370   5.866   7.712 -0.5825 -0.0290 -2.8089
  181SOPE   H7S20670   1.491   5.984   7.735 -0.7829 -0.2680 -0.4328
  181SOPE   C2820671   1.323   6.006   7.867  0.9602  0.4071 -0.1394
  181SOPE   H8R20672   1.212   6.016   7.865  0.6747 -0.4473  3.5161
  181SOPE   H8S20673   1.342   5.913   7.925  0.8390 -0.0254 -0.7768
  181SOPE   C2920674   1.370   6.132   7.933  0.4389 -0.1459 -0.0721
  181SOPE   H9120675   1.386   6.216   7.863 -1.1792  1.4940  1.4181
  181SOPE  C21020676   1.379   6.156   8.068 -0.1280  0.7025  0.1338
  181SOPE  H10120677   1.415   6.255   8.099 -0.9368  1.3780 -1.0304
  181SOPE  C21120678   1.339   6.063   8.186 -0.6398  0.3920  0.0560
  181SOPE  H11R20679   1.433   6.017   8.224 -2.5410 -1.6831  2.6638
  181SOPE  H11S20680   1.278   5.975   8.157 -0.9390  0.3759  0.7004
  181SOPE  C21220681   1.268   6.138   8.300  0.8761 -0.0055  0.0633
  181SOPE  H12R20682   1.175   6.175   8.252  0.3803 -0.4915  0.6219
  181SOPE  H12S20683   1.328   6.228   8.325  0.3637  0.3319  0.0989
  181SOPE  C21320684   1.249   6.039   8.422 -0.2669 -0.0860  0.7145
  181SOPE  H13R20685   1.339   5.993   8.467 -0.9971 -0.9876  1.3210
  181SOPE  H13S20686   1.175   5.959   8.395 -0.4474  0.7564 -1.4947
  181SOPE  C21420687   1.187   6.110   8.542 -0.1680 -0.1564  0.5973
  181SOPE  H14R20688   1.078   6.117   8.519 -0.1237 -1.8669 -0.3152
  181SOPE  H14S20689   1.237   6.205   8.570 -0.8880  0.2704  0.4826
  181SOPE  C21520690   1.183   6.016   8.660 -0.4751  0.4131 -0.4383
  181SOPE  H15R20691   1.289   6.005   8.691  0.1843  2.4813 -1.7501
  181SOPE  H15S20692   1.132   5.922   8.632  0.9001 -0.2064 -0.9545
  181SOPE  C21620693   1.107   6.078   8.782 -0.1245  0.6015  0.1530
  181SOPE  H16R20694   0.999   6.078   8.755  0.5626 -3.5912 -3.7756
  181SOPE  H16S20695   1.143   6.173   8.825 -0.8085  0.1362  1.8623
  181SOPE  C21720696   1.126   5.971   8.890 -0.1848 -0.3200 -0.1085
  181SOPE  H17R20697   1.234   5.950   8.906 -0.4186 -1.4505  0.0882
  181SOPE  H17S20698   1.079   5.878   8.851  0.8295  0.0191 -2.2696
  181SOPE  C21820699   1.079   6.018   9.027  0.5156 -0.2843  0.2657
  181SOPE  H18R20700   0.970   6.039   9.031  0.5917 -0.0875  2.8188
  181SOPE  H18S20701   1.134   6.110   9.057 -0.7094  0.8658 -0.8280
  181SOPE  H18T20702   1.090   5.933   9.098 -0.9693 -2.7837 -2.2965
  181SOPE   C3320703   1.902   5.866   7.263  0.1356 -0.2411 -0.0643
  181SOPE   H3X20704   1.989   5.851   7.196 -0.2148 -0.6481 -0.4353
  181SOPE   H3Y20705   1.856   5.765   7.273 -2.3274  0.7795 -0.1868
  181SOPE   C3420706   1.958   5.908   7.399 -0.6959 -0.5575  0.0158
  181SOPE   H4X20707   2.016   6.002   7.385  1.4315 -1.9102 -0.9661
  181SOPE   H4Y20708   2.039   5.838   7.428  0.7819  1.0464 -0.0467
  181SOPE   C3520709   1.862   5.929   7.522 -0.5726  0.2272  0.1937
  181SOPE   H5X20710   1.802   5.838   7.543 -1.7062  0.6356 -1.1139
  181SOPE   H5Y20711   1.788   6.006   7.491 -1.1939  0.7005  2.6872
  181SOPE   C3620712   1.926   5.976   7.648  0.5643  0.0250 -0.4418
  181SOPE   H6X20713   1.993   6.063   7.628  1.7341 -0.0832  2.5047
  181SOPE   H6Y20714   1.993   5.892   7.677  0.4195 -0.0739 -0.3938
  181SOPE   C3720715   1.829   6.010   7.764  0.7703  0.3615  0.1034
  181SOPE   H7X20716   1.773   5.915   7.781 -0.1716  0.8682 -0.0933
  181SOPE   H7Y20717   1.753   6.089   7.750  0.0810  0.2249  2.5118
  181SOPE   C3820718   1.900   6.049   7.895  0.4415 -0.2779 -0.3384
  181SOPE   H8X20719   1.957   6.143   7.877 -0.9655  0.5388 -0.6771
  181SOPE   H8Y20720   1.971   5.969   7.925  1.0757  0.8517  1.3299
  181SOPE   C3920721   1.803   6.078   8.017  0.1344 -0.3768 -0.7909
  181SOPE   H9X20722   1.742   5.988   8.040 -1.9878  1.5007  1.4993
  181SOPE   H9Y20723   1.739   6.157   7.973  0.3828  0.1695 -0.1760
  181SOPE  C31020724   1.873   6.130   8.143 -0.5299 -0.3795  0.5212
  181SOPE  H10X20725   1.929   6.221   8.113 -2.9545  0.8220 -0.6296
  181SOPE  H10Y20726   1.949   6.054   8.171 -1.3170 -1.6559 -0.6812
  181SOPE  C31120727   1.777   6.169   8.255 -0.0854  0.3919 -0.5270
  181SOPE  H11X20728   1.749   6.080   8.316 -0.0173  1.6547  1.4143
  181SOPE  H11Y20729   1.685   6.210   8.208 -0.4994 -0.1765 -0.2283
  181SOPE  C31220730   1.834   6.278   8.351  0.4780 -0.5711  0.1595
  181SOPE  H12X20731   1.862   6.360   8.282 -1.3733 -0.3452 -0.3902
  181SOPE  H12Y20732   1.929   6.244   8.397  1.4625 -0.5147 -1.7441
  181SOPE  C31320733   1.728   6.322   8.453  0.2823  0.1801  0.0579
  181SOPE  H13X20734   1.776   6.393   8.523  1.7681  1.4723 -2.1150
  181SOPE  H13Y20735   1.684   6.235   8.505 -0.6300 -0.1745 -1.2385
  181SOPE  C31420736   1.619   6.414   8.387  0.3284 -0.0334  0.1465
  181SOPE  H14X20737   1.565   6.369   8.300 -2.7618 -0.8476  2.3231
  181SOPE  H14Y20738   1.659   6.515   8.363 -2.5934  1.0255 -0.7817
  181SOPE  C31520739   1.501   6.441   8.490 -0.1574 -0.0288  1.5697
  181SOPE  H15X20740   1.467   6.338   8.513 -3.9829  0.8560  0.5087
  181SOPE  H15Y20741   1.413   6.491   8.445  0.0254 -1.1247 -0.0951
  181SOPE  C31620742   1.551   6.522   8.607  0.3192 -0.2724  0.3117
  181SOPE  H16X20743   1.654   6.497   8.641  0.5284 -3.1016 -2.0180
  181SOPE  H16Y20744   1.473   6.496   8.681 -0.9421 -0.8188 -1.1528
  181SOPE  C31720745   1.547   6.677   8.596  0.6343  0.4643  0.5648
  181SOPE  H17X20746   1.447   6.709   8.631 -0.2865  0.6935 -2.0149
  181SOPE  H17Y20747   1.567   6.712   8.492 -0.7620 -0.7188 -0.1353
  181SOPE  C31820748   1.653   6.738   8.690 -0.9181 -0.7582 -0.4569
  181SOPE  H18X20749   1.684   6.683   8.781  1.1235  1.4343  0.2891
  181SOPE  H18Y20750   1.635   6.843   8.722  0.0603 -1.0465  1.1334
  181SOPE  H18Z20751   1.746   6.755   8.630 -0.4741  1.4904  0.7455
  182SOPE     N20752   6.241   3.583   6.763  0.1293 -0.1573 -0.5157
  182SOPE   HN120753   6.286   3.675   6.784 -0.0265  0.2112 -1.7401
  182SOPE   HN220754   6.141   3.598   6.736 -0.6145 -2.9589  0.3691
  182SOPE   HN320755   6.240   3.521   6.847  1.6097 -0.6583 -0.8415
  182SOPE   C1220756   6.294   3.503   6.656  0.0538  0.2806 -0.0146
  182SOPE  H12A20757   6.230   3.412   6.649 -0.5815  0.5368  1.8872
  182SOPE  H12B20758   6.398   3.473   6.678  0.5941  0.9993 -1.4657
  182SOPE   C1120759   6.291   3.572   6.514  0.4774  0.1371  0.4720
  182SOPE  H11A20760   6.192   3.595   6.469  1.1219  0.2877 -0.9176
  182SOPE  H11B20761   6.318   3.486   6.449 -3.2862  0.7698 -2.2393
  182SOPE     P20762   6.352   3.822   6.524  0.5644  0.0827  0.1182
  182SOPE   O1320763   6.213   3.842   6.492 -0.4716  0.3022 -0.5860
  182SOPE   O1420764   6.450   3.908   6.453  0.3257  0.4851  0.1815
  182SOPE   O1220765   6.391   3.673   6.487  0.0354 -0.1004 -0.3561
  182SOPE   O1120766   6.381   3.820   6.678 -0.2229 -0.0135  0.8153
  182SOPE    C120767   6.518   3.809   6.719  0.3248  0.5206 -0.2674
  182SOPE    HA20768   6.593   3.861   6.656  0.9570 -0.0743 -0.0228
  182SOPE    HB20769   6.549   3.703   6.733 -3.2099 -0.5001  0.8209
  182SOPE    C220770   6.536   3.869   6.866  0.0365 -0.3591  0.7142
  182SOPE    HS20771   6.643   3.846   6.887  0.5445 -1.1356 -2.2811
  182SOPE   O2120772   6.452   3.795   6.951  0.3778  0.3431  0.3095
  182SOPE   C2120773   6.484   3.778   7.078 -0.3914 -0.3232 -0.4731
  182SOPE   O2220774   6.585   3.821   7.130 -0.2745  0.3591 -0.0217
  182SOPE   C2220775   6.364   3.713   7.156 -0.1776 -0.3892 -0.1278
  182SOPE   H2R20776   6.295   3.679   7.076  0.5608  2.3887 -2.0908
  182SOPE   H2S20777   6.318   3.797   7.213  1.0613 -1.1112  2.0199
  182SOPE    C320778   6.521   4.025   6.866  1.4906 -0.1063  0.3513
  182SOPE    HX20779   6.421   4.049   6.824  1.2950 -0.3010  0.7051
  182SOPE    HY20780   6.589   4.058   6.784  1.8826 -2.3784 -0.3148
  182SOPE   O3120781   6.545   4.098   6.987 -0.1665  0.5151  0.7462
  182SOPE   C3120782   6.667   4.101   7.025 -0.1072 -0.1757  0.4841
  182SOPE   O3220783   6.766   4.056   6.968  0.0879  0.9332 -0.0089
  182SOPE   C3220784   6.670   4.176   7.161  0.1483  0.1457 -0.3967
  182SOPE   H2X20785   6.573   4.230   7.172 -0.8150 -1.3940 -0.9938
  182SOPE   H2Y20786   6.753   4.250   7.155  0.6874 -0.4698 -0.5680
  182SOPE   C2320787   6.399   3.592   7.245  0.5051 -0.5504  0.1224
  182SOPE   H3R20788   6.449   3.506   7.195  0.3243 -0.1788 -0.7172
  182SOPE   H3S20789   6.298   3.565   7.283  0.2965  0.3288  0.1995
  182SOPE   C2420790   6.473   3.636   7.374  0.3382 -0.6580  0.3295
  182SOPE   H4R20791   6.577   3.599   7.366 -0.2926 -2.3878 -0.1718
  182SOPE   H4S20792   6.483   3.747   7.366 -0.8384 -0.4031  1.8221
  182SOPE   C2520793   6.407   3.593   7.508  0.1283 -0.3124  0.9311
  182SOPE   H5R20794   6.297   3.611   7.507  0.3224  0.9269  0.6430
  182SOPE   H5S20795   6.419   3.482   7.513  1.7160 -0.2063  0.0528
  182SOPE   C2620796   6.434   3.672   7.644 -0.2485  0.1822 -0.0110
  182SOPE   H6R20797   6.539   3.643   7.668  0.9494  3.4946 -0.6688
  182SOPE   H6S20798   6.429   3.781   7.624 -2.9986  0.1003 -0.1895
  182SOPE   C2720799   6.329   3.648   7.753 -0.1033  0.3601  0.3189
  182SOPE   H7R20800   6.237   3.699   7.718 -0.8343 -0.5558  0.8549
  182SOPE   H7S20801   6.298   3.541   7.756 -1.0860  0.6141 -0.4964
  182SOPE   C2820802   6.369   3.700   7.887  0.5710  0.4665  0.1671
  182SOPE   H8R20803   6.364   3.811   7.884 -0.2488  0.4836  1.4793
  182SOPE   H8S20804   6.288   3.671   7.956  1.4351  0.0519  1.0356
  182SOPE   C2920805   6.502   3.664   7.946 -0.9219 -0.0031  0.1986
  182SOPE   H9120806   6.577   3.671   7.865  0.3344 -2.4985  1.0538
  182SOPE  C21020807   6.530   3.621   8.073  0.0584  0.1350  0.2358
  182SOPE  H10120808   6.637   3.604   8.094  0.3106  2.3286  0.9672
  182SOPE  C21120809   6.439   3.602   8.195 -0.8924  0.1520  0.8847
  182SOPE  H11R20810   6.448   3.497   8.230 -2.0712 -0.0879  0.4961
  182SOPE  H11S20811   6.336   3.615   8.157  0.1343  1.5133 -1.6821
  182SOPE  C21220812   6.474   3.691   8.313 -0.1986 -0.0721 -0.5618
  182SOPE  H12R20813   6.444   3.798   8.304 -1.7609 -0.3612  0.8578
  182SOPE  H12S20814   6.582   3.678   8.337 -0.1427  1.0217 -0.1401
  182SOPE  C21320815   6.395   3.659   8.447 -0.5777  0.1411  0.3689
  182SOPE  H13R20816   6.415   3.561   8.493  1.1715  1.3636  2.3675
  182SOPE  H13S20817   6.288   3.656   8.416  0.1317  0.5635 -2.4611
  182SOPE  C21420818   6.433   3.769   8.558  0.3641  0.6445 -0.7175
  182SOPE  H14R20819   6.409   3.872   8.523  1.1994  0.6426 -1.3145
  182SOPE  H14S20820   6.540   3.755   8.584  0.3473 -1.0485 -1.4232
  182SOPE  C21520821   6.357   3.753   8.696 -0.0281  0.9674 -0.1411
  182SOPE  H15R20822   6.393   3.662   8.749  0.2608  1.0294 -0.2312
  182SOPE  H15S20823   6.247   3.744   8.688 -0.3428 -0.6061  3.7681
  182SOPE  C21620824   6.393   3.868   8.793  0.0782  0.5508  0.0155
  182SOPE  H16R20825   6.362   3.966   8.751  0.1157  1.8959  2.8881
  182SOPE  H16S20826   6.503   3.870   8.812 -0.2807  1.3688  2.2505
  182SOPE  C21720827   6.321   3.854   8.932  0.1305 -0.4255 -0.2349
  182SOPE  H17R20828   6.314   3.747   8.959  0.2437 -0.7938 -1.5839
  182SOPE  H17S20829   6.218   3.895   8.928  0.4879  0.4362 -0.7731
  182SOPE  C21820830   6.397   3.940   9.038 -0.0928 -0.5537 -0.1350
  182SOPE  H18R20831   6.392   4.048   9.012 -4.6965 -0.3315  0.8301
  182SOPE  H18S20832   6.505   3.917   9.030  0.2226  0.2987  1.3456
  182SOPE  H18T20833   6.358   3.926   9.141 -2.0455 -0.5295 -0.8180
  182SOPE   C3320834   6.680   4.076   7.280 -0.6019  0.0969  0.3674
  182SOPE   H3X20835   6.770   4.015   7.256 -0.0497  2.1162 -3.3300
  182SOPE   H3Y20836   6.596   4.004   7.291  1.2015 -1.8486  2.5854
  182SOPE   C3420837   6.691   4.139   7.415 -1.0846 -0.1783  0.2148
  182SOPE   H4X20838   6.612   4.217   7.426 -0.4411  0.4461  0.4183
  182SOPE   H4Y20839   6.780   4.201   7.394  0.3187 -1.9576  0.6123
  182SOPE   C3520840   6.690   4.028   7.523 -0.5679 -0.3750 -0.1923
  182SOPE   H5X20841   6.730   3.927   7.501  0.2882 -0.7400  2.6235
  182SOPE   H5Y20842   6.585   3.993   7.538  0.4847 -3.6174  0.5071
  182SOPE   C3620843   6.748   4.086   7.654 -0.1939 -0.2542 -0.4101
  182SOPE   H6X20844   6.735   4.196   7.650  0.8712 -0.1541 -3.1491
  182SOPE   H6Y20845   6.858   4.073   7.642 -0.3396 -0.2076 -2.1002
  182SOPE   C3720846   6.694   4.012   7.774 -0.8135  0.1627 -0.0122
  182SOPE   H7X20847   6.720   3.904   7.764  2.5949  0.8343  0.0989
  182SOPE   H7Y20848   6.589   4.004   7.738 -0.8392  1.4477 -0.2614
  182SOPE   C3820849   6.716   4.078   7.908  0.9794  0.2707  0.2896
  182SOPE   H8X20850   6.650   4.166   7.919  0.9957  0.2552  0.5247
  182SOPE   H8Y20851   6.819   4.120   7.911  1.5220 -0.8077 -1.7054
  182SOPE   C3920852   6.700   3.977   8.017  0.3113  0.0251 -0.4485
  182SOPE   H9X20853   6.740   3.880   7.977  2.5642 -0.0644  1.7746
  182SOPE   H9Y20854   6.596   3.962   8.050  0.1479  1.2918 -0.3513
  182SOPE  C31020855   6.789   4.009   8.139  0.3561 -0.4559 -0.0096
  182SOPE  H10X20856   6.773   4.117   8.160 -0.5275 -0.7559  0.9236
  182SOPE  H10Y20857   6.898   4.002   8.121  0.4513 -0.4309  0.5358
  182SOPE  C31120858   6.755   3.940   8.266 -0.3922  0.1763 -0.3508
  182SOPE  H11X20859   6.728   3.833   8.253 -0.7354  0.4261 -1.9200
  182SOPE  H11Y20860   6.666   3.986   8.315 -2.0364 -1.3011 -1.8140
  182SOPE  C31220861   6.869   3.935   8.365  0.3243 -0.6381 -0.1481
  182SOPE  H12X20862   6.887   4.043   8.381 -3.2172 -0.2809  2.6059
  182SOPE  H12Y20863   6.964   3.894   8.324  0.7738  0.6771 -0.4625
  182SOPE  C31320864   6.838   3.860   8.495  0.4321  0.3969 -0.5941
  182SOPE  H13X20865   6.937   3.840   8.540  1.8265  2.8009 -2.3163
  182SOPE  H13Y20866   6.794   3.760   8.479  0.6530 -0.0258  1.3083
  182SOPE  C31420867   6.744   3.928   8.593  0.2427  0.4257 -0.3900
  182SOPE  H14X20868   6.715   3.844   8.660  0.0718  1.6894  1.1810
  182SOPE  H14Y20869   6.650   3.966   8.546 -1.1016 -1.6443  0.4635
  182SOPE  C31520870   6.804   4.033   8.687 -0.0558  0.4367  0.8242
  182SOPE  H15X20871   6.833   4.129   8.638  3.0956 -0.1073  1.3738
  182SOPE  H15Y20872   6.898   3.992   8.729  0.2981 -0.8606 -1.0923
  182SOPE  C31620873   6.733   4.054   8.817  0.1014  0.1902  0.2699
  182SOPE  H16X20874   6.692   3.959   8.860 -0.5068 -0.6537 -2.0061
  182SOPE  H16Y20875   6.646   4.116   8.787  1.4544  0.3354 -3.8938
  182SOPE  C31720876   6.816   4.132   8.921 -0.9445  0.5328  0.0778
  182SOPE  H17X20877   6.834   4.237   8.887 -1.7791  0.5382 -0.3728
  182SOPE  H17Y20878   6.914   4.085   8.942 -1.7971 -1.1533  0.3786
  182SOPE  C31820879   6.748   4.147   9.059 -0.0925  0.3271 -0.1854
  182SOPE  H18X20880   6.797   4.212   9.134 -0.3297 -0.4602  0.6599
  182SOPE  H18Y20881   6.728   4.043   9.090 -2.5156  0.8886  0.3993
  182SOPE  H18Z20882   6.651   4.199   9.040  0.6091  1.5908 -0.4549
  183SOPE     N20883   4.852   5.268   6.355 -0.1263  0.2955  0.5261
  183SOPE   HN120884   4.943   5.249   6.403  0.1750  0.2623 -0.0428
  183SOPE   HN220885   4.875   5.336   6.280  0.5626  1.5451  1.8170
  183SOPE   HN320886   4.789   5.308   6.427 -0.9413 -1.4199  0.8127
  183SOPE   C1220887   4.790   5.141   6.306 -0.1374 -0.3977 -0.4747
  183SOPE  H12A20888   4.837   5.107   6.211 -2.5216  2.7819 -2.9836
  183SOPE  H12B20889   4.684   5.160   6.280 -0.2922 -0.6311 -0.0254
  183SOPE   C1120890   4.807   5.032   6.414  0.3702  0.2350 -0.6953
  183SOPE  H11A20891   4.785   4.937   6.362 -0.6061  2.1483 -4.0615
  183SOPE  H11B20892   4.730   5.047   6.494 -0.0977 -2.4761 -0.5416
  183SOPE     P20893   4.980   4.904   6.561 -0.2740  0.2667  0.1120
  183SOPE   O1320894   5.124   4.930   6.595  0.0190 -0.5697 -0.2002
  183SOPE   O1420895   4.952   4.772   6.496 -0.0994  0.0619 -0.3163
  183SOPE   O1220896   4.935   5.025   6.463  0.4311  0.5086 -0.1798
  183SOPE   O1120897   4.887   4.925   6.683  0.6715 -0.4024 -0.3633
  183SOPE    C120898   4.891   5.045   6.765  0.1347  0.6121 -0.0584
  183SOPE    HA20899   4.885   5.134   6.699  0.9007  0.1557 -0.7600
  183SOPE    HB20900   4.989   5.046   6.817  0.5848  0.1514 -0.8754
  183SOPE    C220901   4.778   5.052   6.867 -0.1498  0.1272 -0.0799
  183SOPE    HS20902   4.793   5.137   6.936 -0.6949  2.4921 -2.6646
  183SOPE   O2120903   4.760   4.924   6.943 -0.2477 -0.3429  0.2924
  183SOPE   C2120904   4.861   4.908   7.022 -0.2889  0.2525  0.2038
  183SOPE   O2220905   4.956   4.981   7.043 -0.2287  0.3233  0.5789
  183SOPE   C2220906   4.843   4.776   7.083 -0.8640 -0.2052  0.1220
  183SOPE   H2R20907   4.932   4.762   7.148 -0.0576  0.5694 -0.7770
  183SOPE   H2S20908   4.848   4.701   7.000 -0.4363 -0.5461  0.4502
  183SOPE    C320909   4.643   5.084   6.794 -0.4128 -0.4658 -0.7486
  183SOPE    HX20910   4.612   4.993   6.738 -0.8219 -0.1567 -1.0302
  183SOPE    HY20911   4.664   5.167   6.723 -3.0552  1.2406  0.3094
  183SOPE   O3120912   4.548   5.128   6.895 -0.2183 -0.4178  0.0028
  183SOPE   C3120913   4.458   5.037   6.930 -0.8176 -0.4064 -0.1668
  183SOPE   O3220914   4.455   4.917   6.896  0.4629 -0.8658 -0.4239
  183SOPE   C3220915   4.361   5.116   7.018 -0.4618 -0.0804 -0.6046
  183SOPE   H2X20916   4.275   5.151   6.956 -0.4636  2.2518  0.6200
  183SOPE   H2Y20917   4.406   5.209   7.058 -0.6244 -1.1649  2.3957
  183SOPE   C2320918   4.716   4.776   7.165  0.3871  0.0817 -0.8763
  183SOPE   H3R20919   4.717   4.682   7.224  2.5841  1.1760  0.9456
  183SOPE   H3S20920   4.618   4.785   7.112 -0.6601  0.9768  1.1041
  183SOPE   C2420921   4.720   4.880   7.274  1.0332  0.2859 -0.0594
  183SOPE   H4R20922   4.817   4.860   7.325  0.5573 -1.0644  0.3622
  183SOPE   H4S20923   4.714   4.986   7.242 -0.7104  0.8202  1.7822
  183SOPE   C2520924   4.617   4.864   7.391 -0.4452  0.2199 -0.4306
  183SOPE   H5R20925   4.517   4.877   7.346 -0.2902 -1.0761 -1.1852
  183SOPE   H5S20926   4.624   4.761   7.432  1.7684  0.5461  0.1998
  183SOPE   C2620927   4.638   4.966   7.495 -0.5494  0.3074 -0.0808
  183SOPE   H6R20928   4.735   4.960   7.548 -0.3609  1.2442 -0.3118
  183SOPE   H6S20929   4.640   5.062   7.440 -1.0429  1.2380  1.4816
  183SOPE   C2720930   4.524   4.984   7.603  0.0360  0.7334  0.0972
  183SOPE   H7R20931   4.549   5.082   7.649 -0.4155 -0.3463  2.8843
  183SOPE   H7S20932   4.424   4.992   7.556 -1.5527 -0.5155  2.9559
  183SOPE   C2820933   4.530   4.869   7.702 -0.8269  1.0069 -0.1270
  183SOPE   H8R20934   4.481   4.781   7.655  2.0887 -0.3505 -0.8557
  183SOPE   H8S20935   4.635   4.838   7.722 -1.3493  0.2896  1.7033
  183SOPE   C2920936   4.450   4.905   7.826 -0.1862 -0.4162 -0.1615
  183SOPE   H9120937   4.346   4.869   7.827 -0.2944 -0.0959 -0.0703
  183SOPE  C21020938   4.486   4.981   7.934 -0.2897 -0.5805  0.9908
  183SOPE  H10120939   4.415   4.995   8.016 -1.7343 -0.7816 -0.1876
  183SOPE  C21120940   4.624   5.042   7.940 -0.6959 -0.0214 -0.2090
  183SOPE  H11R20941   4.624   5.136   7.999  1.2124 -0.1349  0.0194
  183SOPE  H11S20942   4.658   5.057   7.835  0.7005 -2.7155 -0.2027
  183SOPE  C21220943   4.729   4.955   8.010  0.0961 -0.2959 -0.5462
  183SOPE  H12R20944   4.829   5.002   7.997 -0.3732  1.0796  0.5997
  183SOPE  H12S20945   4.745   4.858   7.959 -0.2068 -1.0191  0.6950
  183SOPE  C21320946   4.694   4.914   8.155 -0.1135 -0.0713 -1.3099
  183SOPE  H13R20947   4.771   4.846   8.197 -2.6238 -1.0201  2.2685
  183SOPE  H13S20948   4.597   4.860   8.161  0.5486 -1.4093 -2.0587
  183SOPE  C21420949   4.702   5.032   8.258 -0.7947 -0.8190  0.6111
  183SOPE  H14R20950   4.633   5.116   8.234  0.0179 -0.7986 -1.9676
  183SOPE  H14S20951   4.803   5.077   8.250 -0.5115 -1.4977  0.2900
  183SOPE  C21520952   4.690   4.984   8.412 -0.2812  0.1899 -0.3447
  183SOPE  H15R20953   4.736   5.058   8.480 -0.6119  0.2605 -0.1959
  183SOPE  H15S20954   4.767   4.905   8.403  1.3320  1.5536  1.0177
  183SOPE  C21620955   4.551   4.927   8.436  0.0595 -0.4839 -1.5934
  183SOPE  H16R20956   4.535   4.851   8.356 -0.5546  1.4163 -3.3722
  183SOPE  H16S20957   4.466   4.998   8.429 -1.5674 -2.3458 -1.5512
  183SOPE  C21720958   4.552   4.865   8.578  0.1445 -0.2327  0.1298
  183SOPE  H17R20959   4.590   4.931   8.658  0.6547 -1.6393  1.0965
  183SOPE  H17S20960   4.636   4.792   8.578 -0.3288 -0.9650  3.7733
  183SOPE  C21820961   4.414   4.822   8.615  0.3730 -0.1985 -0.3448
  183SOPE  H18R20962   4.411   4.751   8.700  2.6690 -0.5339 -0.4613
  183SOPE  H18S20963   4.367   4.766   8.532  1.0492  0.5790 -1.2765
  183SOPE  H18T20964   4.344   4.908   8.623  1.1721  0.3647  0.9684
  183SOPE   C3320965   4.318   5.034   7.135  0.2903  0.2802  0.4433
  183SOPE   H3X20966   4.401   5.006   7.203 -0.5831 -0.9146  1.0577
  183SOPE   H3Y20967   4.266   4.940   7.107 -1.9535  1.1795  1.3351
  183SOPE   C3420968   4.208   5.116   7.211  0.6754  0.8107 -0.0407
  183SOPE   H4X20969   4.113   5.118   7.155  0.2307  0.4086  0.6861
  183SOPE   H4Y20970   4.242   5.222   7.206  0.1792  0.9545 -0.4130
  183SOPE   C3520971   4.206   5.073   7.356  0.0448 -0.0876  0.3364
  183SOPE   H5X20972   4.310   5.090   7.392  0.2759 -0.2896 -0.2299
  183SOPE   H5Y20973   4.184   4.965   7.349 -1.2421  0.2773 -1.9852
  183SOPE   C3620974   4.112   5.149   7.448  0.0806 -0.3062 -0.4584
  183SOPE   H6X20975   4.007   5.146   7.414  0.3308 -0.4281 -1.2367
  183SOPE   H6Y20976   4.158   5.248   7.464  1.0648 -1.0744  2.0135
  183SOPE   C3720977   4.111   5.094   7.593  0.3677  0.0959 -0.2075
  183SOPE   H7X20978   4.217   5.085   7.626  0.4668 -1.1371 -0.7722
  183SOPE   H7Y20979   4.063   4.994   7.596 -0.1213  0.2899 -1.1289
  183SOPE   C3820980   4.043   5.182   7.694 -0.0382  0.3274 -0.4502
  183SOPE   H8X20981   3.970   5.250   7.644 -0.9754 -0.3123  0.0233
  183SOPE   H8Y20982   4.110   5.251   7.751 -1.2261  1.6072 -0.5428
  183SOPE   C3920983   3.963   5.100   7.802  0.4824 -0.0343  0.3562
  183SOPE   H9X20984   3.903   5.022   7.750  2.0131 -2.0939  1.5182
  183SOPE   H9Y20985   3.891   5.168   7.853  1.3328  1.8489 -0.8190
  183SOPE  C31020986   4.058   5.034   7.899 -0.0337 -0.4785 -0.2752
  183SOPE  H10X20987   4.145   5.095   7.932  0.1379 -1.4882  1.2904
  183SOPE  H10Y20988   4.112   4.957   7.839  3.0167  1.7673 -0.6343
  183SOPE  C31120989   3.989   4.960   8.010  0.0055 -0.2491 -0.6450
  183SOPE  H11X20990   3.891   4.927   7.971 -1.1759  0.4236  1.6078
  183SOPE  H11Y20991   3.967   5.030   8.094 -1.6816 -1.4612 -0.0394
  183SOPE  C31220992   4.051   4.833   8.065 -1.0290  0.3312 -0.2805
  183SOPE  H12X20993   4.071   4.770   7.976 -2.3911  1.3235 -1.3229
  183SOPE  H12Y20994   3.984   4.780   8.136 -1.4132 -0.7094 -1.3811
  183SOPE  C31320995   4.190   4.857   8.137  0.2831  0.4666  0.8899
  183SOPE  H13X20996   4.169   4.931   8.217 -1.7851 -1.8329  2.5857
  183SOPE  H13Y20997   4.248   4.899   8.051 -3.5281  4.0334 -0.2739
  183SOPE  C31420998   4.249   4.732   8.186  0.2545 -0.0730 -0.4187
  183SOPE  H14X20999   4.350   4.740   8.232  0.2337 -0.8281 -0.2241
  183SOPE  H14Y21000   4.284   4.668   8.103  0.4679 -0.6047  0.0726
  183SOPE  C31521001   4.158   4.668   8.295  0.8574 -0.4323 -0.5181
  183SOPE  H15X21002   4.067   4.632   8.244 -0.2451  2.2731 -0.5749
  183SOPE  H15Y21003   4.128   4.737   8.377  0.5126 -0.0431 -0.9723
  183SOPE  C31621004   4.236   4.552   8.360  0.7094  0.5384 -0.4027
  183SOPE  H16X21005   4.320   4.596   8.417  1.9572 -1.6162 -0.4749
  183SOPE  H16Y21006   4.282   4.482   8.286  1.1458 -0.9336  1.2105
  183SOPE  C31721007   4.148   4.472   8.449 -0.3407  0.2395  0.0753
  183SOPE  H17X21008   4.203   4.385   8.492 -1.8870 -1.6692 -1.5952
  183SOPE  H17Y21009   4.064   4.429   8.391 -0.4930 -0.3302  0.6995
  183SOPE  C31821010   4.096   4.548   8.571 -0.1989  0.3204 -0.4537
  183SOPE  H18X21011   4.051   4.482   8.648  0.9192 -0.9684 -0.8643
  183SOPE  H18Y21012   4.025   4.628   8.541 -1.7780 -0.9549 -0.2594
  183SOPE  H18Z21013   4.176   4.596   8.632 -1.1381  1.9928 -0.4878
  184SOPE     N21014   5.037   5.754   6.455 -0.1294 -0.5734 -0.4514
  184SOPE   HN121015   5.089   5.837   6.421 -0.9503 -0.4350 -1.4432
  184SOPE   HN221016   4.976   5.783   6.534 -1.1699  1.1934 -1.8380
  184SOPE   HN321017   5.101   5.680   6.492 -1.0513 -1.5773 -0.7954
  184SOPE   C1221018   4.949   5.693   6.354 -0.1706  1.1422  0.1231
  184SOPE  H12A21019   5.008   5.618   6.296  0.1031  1.5451 -0.1308
  184SOPE  H12B21020   4.910   5.780   6.295  1.0136  3.0066  1.9510
  184SOPE   C1121021   4.838   5.619   6.423  0.0105 -0.3879  0.8331
  184SOPE  H11A21022   4.772   5.696   6.467 -0.7072 -1.4448  1.6422
  184SOPE  H11B21023   4.884   5.554   6.500 -0.0558 -0.3780  0.8805
  184SOPE     P21024   4.600   5.554   6.307  0.3338  0.2628 -0.3293
  184SOPE   O1321025   4.555   5.416   6.267 -0.1709 -0.1825 -0.2725
  184SOPE   O1421026   4.563   5.672   6.221 -0.2506  0.0506 -0.3216
  184SOPE   O1221027   4.757   5.537   6.328 -0.2312 -0.5053 -0.7928
  184SOPE   O1121028   4.547   5.581   6.452  0.4071  0.0778  0.7123
  184SOPE    C121029   4.438   5.669   6.476 -0.0246 -0.6162  0.0516
  184SOPE    HA21030   4.351   5.607   6.510 -1.0184  1.3545  1.2931
  184SOPE    HB21031   4.412   5.733   6.389 -0.1419 -1.0487 -0.2340
  184SOPE    C221032   4.463   5.766   6.592 -0.0331 -0.5232  0.8009
  184SOPE    HS21033   4.562   5.812   6.569 -0.8020  0.4225 -0.8034
  184SOPE   O2121034   4.451   5.699   6.717  0.6446 -0.1417 -0.2444
  184SOPE   C2121035   4.559   5.722   6.794  0.0563 -0.1672 -0.5585
  184SOPE   O2221036   4.645   5.804   6.770  0.3004 -0.1174  0.5011
  184SOPE   C2221037   4.568   5.626   6.908 -0.2585  0.5156 -0.2948
  184SOPE   H2R21038   4.577   5.520   6.876 -1.4039  0.5182 -0.6593
  184SOPE   H2S21039   4.469   5.624   6.958  1.0121  1.2409  2.4616
  184SOPE    C321040   4.361   5.884   6.573 -0.2681 -0.1708  0.2681
  184SOPE    HX21041   4.260   5.839   6.567  0.1801 -1.0682 -0.7620
  184SOPE    HY21042   4.377   5.937   6.477 -1.4695 -0.4048 -0.0764
  184SOPE   O3121043   4.383   5.979   6.676 -0.5415  0.0912 -0.0956
  184SOPE   C3121044   4.304   5.976   6.779 -0.1476  0.0071 -0.4268
  184SOPE   O3221045   4.212   5.893   6.799 -0.3705  0.1484  0.1638
  184SOPE   C3221046   4.341   6.089   6.878  0.0597 -0.4900 -0.5160
  184SOPE   H2X21047   4.348   6.186   6.826 -2.5207  0.5730  0.9305
  184SOPE   H2Y21048   4.440   6.069   6.924 -0.8409  1.1835  2.4649
  184SOPE   C2321049   4.673   5.654   7.022  0.1218  0.3743  0.9955
  184SOPE   H3R21050   4.684   5.763   7.042  1.8199  0.2182  1.0709
  184SOPE   H3S21051   4.767   5.608   6.986 -0.4262  0.9254 -1.2921
  184SOPE   C2421052   4.635   5.580   7.148  0.1616 -0.3711  0.0263
  184SOPE   H4R21053   4.610   5.481   7.103 -1.0456  0.8935 -2.3113
  184SOPE   H4S21054   4.726   5.571   7.211 -0.6579  0.8217  1.4395
  184SOPE   C2521055   4.524   5.644   7.240 -0.1865 -0.1594  0.0997
  184SOPE   H5R21056   4.564   5.736   7.287  2.6628 -1.4328  0.3967
  184SOPE   H5S21057   4.443   5.663   7.167 -1.5732 -0.2155  1.5714
  184SOPE   C2621058   4.494   5.544   7.354 -0.3502  0.1780  0.7195
  184SOPE   H6R21059   4.398   5.575   7.401  0.2365  1.9568  0.8416
  184SOPE   H6S21060   4.488   5.445   7.306  0.4447  0.3697  0.2044
  184SOPE   C2721061   4.594   5.545   7.471 -0.5348 -0.1134 -0.4551
  184SOPE   H7R21062   4.694   5.526   7.426 -1.3681 -0.5967 -2.2010
  184SOPE   H7S21063   4.587   5.648   7.512  0.8802 -0.5303  0.9110
  184SOPE   C2821064   4.565   5.435   7.583 -0.7089  0.7017  0.8758
  184SOPE   H8R21065   4.602   5.344   7.532 -0.4141  1.7521 -0.8871
  184SOPE   H8S21066   4.647   5.433   7.658 -1.1834 -1.0220  1.3964
  184SOPE   C2921067   4.421   5.419   7.642  0.1271 -0.3183 -0.0461
  184SOPE   H9121068   4.347   5.370   7.576 -0.6053 -3.1609  2.6806
  184SOPE  C21021069   4.389   5.440   7.770 -0.4604 -0.4315 -0.5304
  184SOPE  H10121070   4.289   5.408   7.802  0.4805 -1.4164  1.6770
  184SOPE  C21121071   4.488   5.477   7.878 -0.2056 -0.1012  0.7746
  184SOPE  H11R21072   4.502   5.586   7.894 -1.9253  0.1756  0.6033
  184SOPE  H11S21073   4.591   5.442   7.857 -0.3763 -0.1281 -0.0740
  184SOPE  C21221074   4.437   5.427   8.016 -0.2100  0.2613 -0.1163
  184SOPE  H12R21075   4.503   5.473   8.092  4.1226 -2.9752 -1.5171
  184SOPE  H12S21076   4.451   5.317   8.024  2.6626  0.5188 -0.6503
  184SOPE  C21321077   4.292   5.476   8.052  0.2536  0.4379  0.2186
  184SOPE  H13R21078   4.219   5.417   7.992  0.2121  0.1891  0.5090
  184SOPE  H13S21079   4.279   5.582   8.022 -1.9271  0.9758  2.7345
  184SOPE  C21421080   4.270   5.459   8.198 -0.7521 -0.5263 -0.2391
  184SOPE  H14R21081   4.352   5.505   8.256 -0.7112 -0.1970 -0.5530
  184SOPE  H14S21082   4.262   5.350   8.218  2.5910 -0.9216 -0.4302
  184SOPE  C21521083   4.132   5.517   8.245 -0.3752  0.5059 -1.1665
  184SOPE  H15R21084   4.045   5.471   8.193 -0.8979  0.7337 -0.5095
  184SOPE  H15S21085   4.125   5.628   8.239 -1.2263  0.5905  0.7297
  184SOPE  C21621086   4.121   5.492   8.399  0.2585 -0.8715 -0.3298
  184SOPE  H16R21087   4.039   5.560   8.431 -1.6395 -4.0285  2.0758
  184SOPE  H16S21088   4.220   5.517   8.441  0.1060  1.1238 -1.0663
  184SOPE  C21721089   4.068   5.354   8.449  0.0306 -0.7348  0.0358
  184SOPE  H17R21090   4.145   5.276   8.430  0.8374 -0.7352  2.7472
  184SOPE  H17S21091   3.981   5.331   8.385  0.7334 -2.1104 -0.4582
  184SOPE  C21821092   4.018   5.364   8.599  0.2565  0.0104  0.2302
  184SOPE  H18R21093   3.947   5.280   8.611 -2.3085  2.1053  0.5937
  184SOPE  H18S21094   3.962   5.458   8.619 -0.6411  0.1291 -2.4681
  184SOPE  H18T21095   4.103   5.351   8.669 -1.4573  1.4577  2.7496
  184SOPE   C3321096   4.267   6.077   7.006  0.5455  0.0609 -0.5248
  184SOPE   H3X21097   4.158   6.070   6.987  0.6064 -0.2678 -0.7634
  184SOPE   H3Y21098   4.283   6.177   7.052  2.1579 -0.6064  0.4601
  184SOPE   C3421099   4.317   5.974   7.105 -0.6584 -0.0950 -0.2340
  184SOPE   H4X21100   4.426   5.994   7.100 -0.1807 -2.6032 -2.7938
  184SOPE   H4Y21101   4.306   5.870   7.068 -0.1968 -0.5674  0.9048
  184SOPE   C3521102   4.262   5.990   7.249 -0.1979 -0.0741  0.6731
  184SOPE   H5X21103   4.155   5.961   7.241  0.2140 -1.2517 -0.9726
  184SOPE   H5Y21104   4.265   6.100   7.270  0.6626 -0.1633  1.0926
  184SOPE   C3621105   4.332   5.918   7.366  0.5872 -0.0406  0.4096
  184SOPE   H6X21106   4.442   5.931   7.362  0.3582  1.8528 -0.5893
  184SOPE   H6Y21107   4.320   5.808   7.352 -0.0022  0.0120  0.4731
  184SOPE   C3721108   4.297   5.967   7.504 -0.0066  0.1928 -0.3243
  184SOPE   H7X21109   4.188   5.949   7.519 -0.2487  1.5520 -0.3818
  184SOPE   H7Y21110   4.318   6.075   7.509  0.2077  0.0955  1.2519
  184SOPE   C3821111   4.381   5.893   7.612 -1.1807 -0.8320  0.1036
  184SOPE   H8X21112   4.487   5.922   7.597 -0.6842 -2.1635  0.9343
  184SOPE   H8Y21113   4.386   5.782   7.604  0.3951 -0.8873  1.4729
  184SOPE   C3921114   4.345   5.953   7.750 -0.0824 -0.3947 -0.0810
  184SOPE   H9X21115   4.235   5.938   7.760 -0.1040  0.7194  2.0174
  184SOPE   H9Y21116   4.361   6.063   7.747 -0.9393 -0.2712 -1.0342
  184SOPE  C31021117   4.427   5.896   7.870 -0.1007  0.7139  0.0535
  184SOPE  H10X21118   4.537   5.910   7.857 -0.1583  2.1168  0.9182
  184SOPE  H10Y21119   4.419   5.785   7.878 -0.8437  0.6946 -0.8148
  184SOPE  C31121120   4.375   5.943   8.010 -0.2893  0.6329 -0.1202
  184SOPE  H11X21121   4.265   5.924   8.010 -0.1110 -0.6299 -1.9231
  184SOPE  H11Y21122   4.390   6.053   8.012  1.3362  0.4214  0.4413
  184SOPE  C31221123   4.447   5.866   8.120  0.0353 -0.2756  0.0732
  184SOPE  H12X21124   4.550   5.904   8.132 -0.0798 -0.1232  0.6326
  184SOPE  H12Y21125   4.451   5.759   8.090 -1.4946 -0.1549 -0.6900
  184SOPE  C31321126   4.388   5.879   8.260  0.3100  0.5509  0.0493
  184SOPE  H13X21127   4.281   5.848   8.254 -0.4632  2.2742  2.8966
  184SOPE  H13Y21128   4.391   5.982   8.301  1.1181  0.0105  1.4110
  184SOPE  C31421129   4.455   5.789   8.364 -0.1622 -0.0420  0.3483
  184SOPE  H14X21130   4.563   5.813   8.372 -0.2724  0.2404  1.1755
  184SOPE  H14Y21131   4.441   5.688   8.320 -0.7209  0.1943 -0.0233
  184SOPE  C31521132   4.393   5.781   8.498  0.7320  0.0214 -0.6452
  184SOPE  H15X21133   4.289   5.744   8.485  0.5450  0.4906 -0.4973
  184SOPE  H15Y21134   4.389   5.887   8.531 -0.3214 -0.4126  0.7244
  184SOPE  C31621135   4.463   5.690   8.596  0.3695  0.2994 -0.1664
  184SOPE  H16X21136   4.559   5.743   8.614  0.4585  0.0280  0.1767
  184SOPE  H16Y21137   4.483   5.600   8.535 -0.2730 -1.9908  2.7623
  184SOPE  C31721138   4.373   5.660   8.717  0.3881  0.4429 -0.4890
  184SOPE  H17X21139   4.268   5.687   8.696  0.6893  1.9246 -0.2443
  184SOPE  H17Y21140   4.403   5.724   8.803 -0.5748  0.6896 -0.3324
  184SOPE  C31821141   4.379   5.513   8.763  0.3980 -0.3420  0.2350
  184SOPE  H18X21142   4.351   5.444   8.681 -2.1655 -0.4537  1.1205
  184SOPE  H18Y21143   4.311   5.501   8.850  0.5202  0.2055  0.4104
  184SOPE  H18Z21144   4.488   5.496   8.779  0.4121 -0.4173  0.0561
  185SAPI   C1221145   5.704   3.798  11.199  0.7250 -0.0517 -0.5585
  185SAPI    H221146   5.779   3.745  11.137 -0.3332  0.2189 -2.1271
  185SAPI    O221147   5.633   3.880  11.115  0.4188 -0.8976 -0.2841
  185SAPI   HO221148   5.672   3.966  11.131 -0.1879 -0.8091  0.7406
  185SAPI   C1321149   5.627   3.691  11.268 -0.5119 -0.0661 -0.0146
  185SAPI    H321150   5.696   3.633  11.333  1.3499  3.0039  0.9203
  185SAPI    O321151   5.585   3.603  11.166 -0.1033  0.7740 -0.7052
  185SAPI   HO321152   5.523   3.654  11.113 -0.5180  2.6337  1.4342
  185SAPI   C1421153   5.515   3.746  11.354 -0.8777  0.9101 -0.0618
  185SAPI    H421154   5.444   3.807  11.294 -1.8699  2.0095  2.1202
  185SAPI    O421155   5.451   3.640  11.414 -0.1434  0.1539 -0.8987
  185SAPI   HO421156   5.356   3.645  11.428 -0.1993 -0.1887 -1.1316
  185SAPI   C1521157   5.581   3.839  11.460  0.5950 -0.1710  0.1569
  185SAPI    H521158   5.646   3.770  11.517 -1.9179 -3.6996 -0.9129
  185SAPI    O521159   5.474   3.893  11.540  0.2152  0.2176 -0.6687
  185SAPI   HO521160   5.413   3.951  11.495  0.9380  1.0860 -0.5559
  185SAPI   C1621161   5.668   3.949  11.394 -0.0640 -0.1863  0.4431
  185SAPI    H621162   5.595   4.015  11.343  1.7041  1.9620  0.5440
  185SAPI    O621163   5.728   4.029  11.495 -0.2536  0.6408  0.0130
  185SAPI   HO621164   5.678   4.111  11.500 -0.4119  0.6625 -1.5825
  185SAPI   C1121165   5.770   3.887  11.310 -0.3634  0.2569  0.5455
  185SAPI    H121166   5.832   3.822  11.374 -2.0416 -0.8827  1.0796
  185SAPI     P21167   6.018   3.949  11.229 -0.1895 -0.5334  0.1383
  185SAPI   O1321168   6.056   3.871  11.348 -0.2797  0.7557 -0.2649
  185SAPI   O1421169   6.089   4.076  11.205  0.1772  0.2926  0.1135
  185SAPI   O1221170   5.855   3.981  11.241  0.3638  0.0854 -0.1286
  185SAPI   O1121171   6.038   3.857  11.102 -0.2939 -0.0744 -0.5658
  185SAPI    C121172   5.981   3.909  10.979  0.6672 -1.0815  0.4224
  185SAPI    HA21173   6.014   3.835  10.903 -0.8438 -1.0645 -0.2886
  185SAPI    HB21174   5.870   3.914  10.986  0.7436 -0.4990  1.3622
  185SAPI    C221175   6.036   4.047  10.926 -0.5618  0.4876  0.1475
  185SAPI    HS21176   6.024   4.124  11.005  3.0397 -0.0461  1.4177
  185SAPI   O2121177   5.962   4.075  10.801 -0.3256  0.1098 -0.1615
  185SAPI   C2121178   5.947   4.200  10.782  0.2257  0.3778  0.1792
  185SAPI   O2221179   5.978   4.287  10.867  0.7679  0.0520 -0.9713
  185SAPI   C2221180   5.872   4.233  10.651 -1.4518  0.2639 -0.5126
  185SAPI   H2R21181   5.952   4.224  10.574 -0.7231  0.6571  0.1806
  185SAPI   H2S21182   5.796   4.156  10.628 -0.3584 -1.3537  0.9596
  185SAPI    C321183   6.191   4.036  10.909  0.1996 -0.0982  0.0732
  185SAPI    HX21184   6.223   4.016  11.013 -3.2352 -1.3366  1.0421
  185SAPI    HY21185   6.214   4.142  10.886 -1.8257 -0.1362 -2.7792
  185SAPI   O3121186   6.229   3.945  10.800 -0.3742  0.0468 -0.8595
  185SAPI   C3121187   6.361   3.924  10.797  0.6198 -0.1635  0.6863
  185SAPI   O3221188   6.448   3.997  10.848  0.3520  0.2723  0.1969
  185SAPI   C3221189   6.390   3.788  10.736  0.0563 -0.4669  0.5079
  185SAPI   H2X21190   6.334   3.782  10.640  1.1993  1.7811 -0.3749
  185SAPI   H2Y21191   6.352   3.709  10.804  0.8774 -0.1779  1.3295
  185SAPI   C2321192   5.810   4.369  10.640 -0.3087  0.0459 -0.0071
  185SAPI   H3R21193   5.886   4.449  10.626 -1.1234  0.6103 -1.4065
  185SAPI   H3S21194   5.748   4.391  10.729 -0.6533  1.6606 -0.6118
  185SAPI   C2421195   5.717   4.370  10.511 -0.0457  0.1987 -0.3828
  185SAPI   H4R21196   5.678   4.266  10.506 -0.2610  0.2823 -0.4377
  185SAPI   H4S21197   5.762   4.389  10.411  0.2095  2.6267  0.1445
  185SAPI   C2521198   5.601   4.460  10.541 -0.3603  0.6809  0.2867
  185SAPI   H5R21199   5.552   4.450  10.639  0.8705  0.6559  0.9198
  185SAPI   C2621200   5.547   4.542  10.449 -0.2890  0.4534 -0.2347
  185SAPI   H6R21201   5.461   4.595  10.491 -0.9355 -1.8252  1.5287
  185SAPI   C2721202   5.582   4.549  10.305  0.1871  0.2286  0.9382
  185SAPI   H7R21203   5.643   4.461  10.276  0.0330  0.7686 -1.2428
  185SAPI   H7S21204   5.632   4.647  10.286 -2.3117  1.5240  0.6704
  185SAPI   C2821205   5.472   4.552  10.202 -0.6751  0.0478  0.1647
  185SAPI   H8R21206   5.375   4.577  10.249 -0.6745  0.2179  0.0746
  185SAPI   C2921207   5.486   4.525  10.069  0.1262  0.4210 -0.1388
  185SAPI   H9R21208   5.400   4.536  10.001 -0.4555 -1.5665  0.1973
  185SAPI  C21021209   5.619   4.502   9.996  1.0201 -0.1578  0.4092
  185SAPI  H10R21210   5.698   4.462  10.063  0.0074 -1.5568  0.8221
  185SAPI  H10S21211   5.658   4.602   9.966  2.2758 -0.3908  1.1698
  185SAPI  C21121212   5.605   4.426   9.869  0.1518  0.4580 -0.2494
  185SAPI  H11R21213   5.571   4.325   9.897  0.5042  0.5332  0.4754
  185SAPI  C21221214   5.619   4.459   9.735 -0.2675  0.1447 -0.7804
  185SAPI  H12R21215   5.599   4.384   9.657  2.0375 -1.3545 -0.0460
  185SAPI  C21321216   5.665   4.594   9.681 -0.3857  0.5431  0.7333
  185SAPI  H13R21217   5.771   4.587   9.650 -0.9496 -2.3526 -0.8740
  185SAPI  H13S21218   5.655   4.665   9.766 -0.8701  2.0252 -0.5132
  185SAPI  C21421219   5.594   4.659   9.558 -0.3818 -1.1579  0.3918
  185SAPI  H14R21220   5.510   4.726   9.584  0.5849 -0.4208  1.7490
  185SAPI  C21521221   5.618   4.636   9.431  0.1345 -0.4386  0.7200
  185SAPI  H15R21222   5.559   4.697   9.362  2.8414  1.3817 -0.1610
  185SAPI  C21621223   5.726   4.541   9.382  0.3525  0.4855  0.3448
  185SAPI  H16R21224   5.675   4.460   9.325 -0.3789  0.1053  1.5057
  185SAPI  H16S21225   5.782   4.501   9.469 -0.9479  1.8456  1.9011
  185SAPI  C21721226   5.823   4.617   9.280 -0.3086  0.4484 -0.3487
  185SAPI  H17R21227   5.843   4.715   9.327 -0.9004 -0.2532  1.4769
  185SAPI  H17S21228   5.775   4.637   9.182  1.6770  1.1605 -1.2220
  185SAPI  C21821229   5.946   4.526   9.241  0.3336 -0.2322 -0.0869
  185SAPI  H18R21230   5.901   4.429   9.209  0.6941  0.2919 -2.3468
  185SAPI  H18S21231   6.025   4.513   9.318 -0.6973  1.6176  1.3755
  185SAPI  C21921232   6.025   4.575   9.119  0.8005 -0.1828 -0.0100
  185SAPI  H19R21233   6.126   4.529   9.119 -0.1440 -2.4199  1.2502
  185SAPI  H19S21234   6.033   4.685   9.131  0.3439 -0.2533  1.0759
  185SAPI  C22021235   5.956   4.564   8.985 -0.1989  0.0556  0.1479
  185SAPI  H20R21236   5.868   4.631   8.974  1.1655  1.5784 -3.0936
  185SAPI  H20S21237   5.916   4.463   8.964 -0.2613  0.3484 -1.2419
  185SAPI  H20T21238   6.031   4.591   8.907 -0.6825 -0.1494 -0.3938
  185SAPI   C3321239   6.541   3.747  10.723 -0.5400  0.1838  0.9147
  185SAPI   H3X21240   6.582   3.749  10.827  2.5024 -1.6587 -0.1212
  185SAPI   H3Y21241   6.600   3.826  10.672 -0.1219  0.3731  1.6683
  185SAPI   C3421242   6.569   3.605  10.668 -0.0097  0.1945 -0.5728
  185SAPI   H4X21243   6.481   3.543  10.695 -0.3915  0.4736 -1.1576
  185SAPI   H4Y21244   6.654   3.570  10.730 -1.4946 -1.3597  0.7039
  185SAPI   C3521245   6.607   3.613  10.520  0.2103  0.5264 -0.4683
  185SAPI   H5X21246   6.686   3.690  10.519  1.6295 -0.8774 -0.4955
  185SAPI   H5Y21247   6.525   3.640  10.451 -0.4884 -0.1807  0.0664
  185SAPI   C3621248   6.654   3.480  10.473 -0.0471 -0.1289  0.3070
  185SAPI   H6X21249   6.567   3.412  10.485 -0.8776  0.6871 -0.9440
  185SAPI   H6Y21250   6.740   3.440  10.530  1.4804  1.1326 -1.0169
  185SAPI   C3721251   6.687   3.484  10.320  0.3844  0.0917  0.5430
  185SAPI   H7X21252   6.587   3.469  10.274 -0.0774 -2.1149  2.1287
  185SAPI   H7Y21253   6.748   3.393  10.302  1.4642  0.8499  0.2155
  185SAPI   C3821254   6.767   3.603  10.260  0.1459  0.3006 -0.8978
  185SAPI   H8X21255   6.877   3.587  10.259  0.0510 -0.4874 -2.0697
  185SAPI   H8Y21256   6.756   3.694  10.321 -0.3577 -0.9522  0.9569
  185SAPI   C3921257   6.722   3.654  10.122 -0.0743  0.0254 -0.7452
  185SAPI   H9X21258   6.757   3.759  10.110  0.2410  0.0084 -0.0532
  185SAPI   H9Y21259   6.612   3.667  10.120  0.0396  1.0936 -1.2509
  185SAPI  C31021260   6.761   3.567  10.001  0.0585 -0.2578 -0.3535
  185SAPI  H10X21261   6.699   3.476   9.988  0.2769 -0.5158  0.3766
  185SAPI  H10Y21262   6.857   3.516  10.027 -0.6389 -0.5230  1.9855
  185SAPI  C31121263   6.768   3.641   9.864 -1.4612  0.3935 -0.2509
  185SAPI  H11X21264   6.838   3.727   9.870 -0.7305 -0.2698  1.1774
  185SAPI  H11Y21265   6.665   3.677   9.840 -1.4394  0.2445 -0.5683
  185SAPI  C31221266   6.800   3.541   9.750 -0.0850 -0.6667  0.8787
  185SAPI  H12X21267   6.731   3.455   9.761 -1.7039  0.2724 -1.1738
  185SAPI  H12Y21268   6.904   3.504   9.760 -0.1603 -0.9779  0.5507
  185SAPI  C31321269   6.758   3.606   9.616 -0.0931 -0.6386  0.0395
  185SAPI  H13X21270   6.819   3.695   9.590 -2.2171 -0.0380 -3.5558
  185SAPI  H13Y21271   6.655   3.646   9.623  1.0731  2.6683  0.2792
  185SAPI  C31421272   6.773   3.512   9.498  0.1874  0.5361 -0.2113
  185SAPI  H14X21273   6.702   3.426   9.505 -0.2298  0.8116 -0.9175
  185SAPI  H14Y21274   6.875   3.474   9.520  0.3018  1.1440  0.3291
  185SAPI  C31521275   6.735   3.582   9.368 -0.5884 -0.1514 -0.6529
  185SAPI  H15X21276   6.781   3.530   9.281  1.8210  1.0989 -0.2216
  185SAPI  H15Y21277   6.800   3.672   9.372  0.0849 -0.6447  2.3004
  185SAPI  C31621278   6.587   3.592   9.330  0.1936 -0.7761 -0.0795
  185SAPI  H16X21279   6.528   3.623   9.419  0.5105 -2.2923  0.6929
  185SAPI  H16Y21280   6.555   3.486   9.319  0.2421 -0.8561  0.5321
  185SAPI  C31721281   6.547   3.666   9.202 -0.6042  0.1717 -0.2747
  185SAPI  H17X21282   6.582   3.771   9.210  2.0621 -0.7027  0.7541
  185SAPI  H17Y21283   6.437   3.672   9.210 -0.7423 -1.0710 -0.9681
  185SAPI  C31821284   6.584   3.610   9.057 -0.2083  0.1149  0.0053
  185SAPI  H18X21285   6.526   3.518   9.032  2.6927 -1.9785  0.4895
  185SAPI  H18Y21286   6.692   3.583   9.061 -0.3198 -0.3503 -0.0890
  185SAPI  H18Z21287   6.567   3.688   8.979 -2.2726  1.1496  1.3936
  186SAPI   C1221288   0.909   0.917  11.388  0.5513  0.0243 -0.0656
  186SAPI    H221289   0.988   0.984  11.348  0.8514 -0.5273 -0.4120
  186SAPI    O221290   0.944   0.783  11.398  0.2970  0.5368 -0.3474
  186SAPI   HO221291   0.910   0.743  11.317 -0.6986  1.4912 -0.4275
  186SAPI   C1321292   0.880   0.974  11.531  0.3704  0.3886  0.0321
  186SAPI    H321293   0.836   1.076  11.531 -1.8933 -0.5222 -0.3113
  186SAPI    O321294   1.001   0.988  11.607  0.2003 -0.2404 -0.2618
  186SAPI   HO321295   1.044   1.071  11.584  0.0604  0.3547  1.4557
  186SAPI   C1421296   0.770   0.883  11.595  0.2649  0.0062 -0.3488
  186SAPI    H421297   0.793   0.774  11.594 -1.2218 -0.3646  1.0974
  186SAPI    O421298   0.747   0.924  11.728 -0.3692  0.4948 -0.2095
  186SAPI   HO421299   0.714   0.850  11.779  1.1811 -1.3470 -1.7230
  186SAPI   C1521300   0.642   0.888  11.509  0.3269  0.1906 -0.3455
  186SAPI    H521301   0.613   0.992  11.486 -0.2800 -0.4078 -2.5149
  186SAPI    O521302   0.522   0.835  11.566  0.0754  0.2537  0.1385
  186SAPI   HO521303   0.497   0.767  11.503 -1.4909  0.8386  0.0803
  186SAPI   C1621304   0.675   0.832  11.372  0.3123  0.1394  0.1940
  186SAPI    H621305   0.703   0.724  11.373 -2.5016 -0.8403  5.0584
  186SAPI    O621306   0.559   0.833  11.289  0.6908 -0.1113 -0.3557
  186SAPI   HO621307   0.572   0.907  11.230  0.9144  0.8923  0.9041
  186SAPI   C1121308   0.781   0.916  11.298  0.8295 -0.1601 -0.1987
  186SAPI    H121309   0.745   1.021  11.299 -0.8882 -0.7278 -0.3203
  186SAPI     P21310   0.875   0.956  11.051 -0.1090  0.3287 -0.0705
  186SAPI   O1321311   0.943   0.876  10.950 -0.2568 -0.0031  0.2039
  186SAPI   O1421312   0.961   1.061  11.116 -0.1582  0.4148  0.0545
  186SAPI   O1221313   0.809   0.867  11.165  0.2302  0.4025 -0.3698
  186SAPI   O1121314   0.749   1.032  10.997 -0.0293  0.1464 -0.2893
  186SAPI    C121315   0.634   0.971  10.936  0.1573 -0.0565  0.2091
  186SAPI    HA21316   0.600   0.883  10.996  2.0066 -1.7319 -1.0703
  186SAPI    HB21317   0.556   1.046  10.915 -2.1317 -2.7556 -1.7084
  186SAPI    C221318   0.656   0.918  10.790 -0.8500 -0.3746  0.0130
  186SAPI    HS21319   0.717   0.828  10.815  0.8373 -0.0932 -2.7218
  186SAPI   O2121320   0.746   1.015  10.725  0.3872  0.4062  1.0812
  186SAPI   C2121321   0.811   0.963  10.625 -0.1297  0.4335 -0.1287
  186SAPI   O2221322   0.840   0.845  10.614 -0.0353 -0.1850  0.2920
  186SAPI   C2221323   0.845   1.072  10.527  0.5993 -0.2536  0.2484
  186SAPI   H2R21324   0.747   1.090  10.477  0.1018  0.9956  1.5953
  186SAPI   H2S21325   0.879   1.164  10.580  0.5932 -0.0281 -0.1318
  186SAPI    C321326   0.520   0.877  10.715 -0.1619 -0.3949  0.4760
  186SAPI    HX21327   0.463   0.968  10.686 -1.7865 -2.1676 -2.2596
  186SAPI    HY21328   0.454   0.813  10.777  1.9020 -3.0942  0.0936
  186SAPI   O3121329   0.550   0.819  10.589 -0.0294 -0.4277  0.6062
  186SAPI   C3121330   0.561   0.695  10.581 -0.5141  0.2310 -0.2924
  186SAPI   O3221331   0.554   0.618  10.681  0.6248  0.3244 -0.3207
  186SAPI   C3221332   0.570   0.649  10.437  0.1874  0.1162 -0.3256
  186SAPI   H2X21333   0.463   0.639  10.406  0.0403  0.7928 -0.0396
  186SAPI   H2Y21334   0.612   0.546  10.433 -1.1818 -0.6264  2.2113
  186SAPI   C2321335   0.952   1.043  10.416 -0.1780  0.3237  0.0605
  186SAPI   H3R21336   0.927   1.110  10.330  0.2004  0.9069  0.4013
  186SAPI   H3S21337   0.950   0.936  10.386 -1.0550  0.1517  0.6986
  186SAPI   C2421338   1.097   1.061  10.454 -0.2765 -0.5103  0.5796
  186SAPI   H4R21339   1.158   0.991  10.393  1.9692  0.0217  2.0793
  186SAPI   H4S21340   1.106   1.030  10.560 -1.3686  2.3697  1.6148
  186SAPI   C2521341   1.140   1.209  10.441  0.6773  0.2475 -0.4774
  186SAPI   H5R21342   1.120   1.279  10.524 -0.6107  2.1981 -2.3345
  186SAPI   C2621343   1.215   1.257  10.341 -0.0177 -1.2430  0.0757
  186SAPI   H6R21344   1.221   1.367  10.338  0.2392 -1.2062  1.3188
  186SAPI   C2721345   1.263   1.188  10.218  0.0353 -0.0413 -0.1828
  186SAPI   H7R21346   1.282   1.080  10.239 -0.9817 -0.2201 -0.1435
  186SAPI   H7S21347   1.359   1.238  10.192  1.1788 -2.2072 -0.3872
  186SAPI   C2821348   1.163   1.174  10.114 -0.1839  0.2879  0.4240
  186SAPI   H8R21349   1.058   1.194  10.140 -0.4668  1.6796 -1.5737
  186SAPI   C2921350   1.185   1.152   9.983  0.4454  0.1783  0.5365
  186SAPI   H9R21351   1.105   1.153   9.908  3.7095  0.4494 -3.3092
  186SAPI  C21021352   1.317   1.131   9.915 -0.4318  0.4195  0.9680
  186SAPI  H10R21353   1.375   1.043   9.950  4.0023  1.9323 -1.7527
  186SAPI  H10S21354   1.380   1.215   9.950 -2.8209  2.8192 -0.0474
  186SAPI  C21121355   1.304   1.123   9.766  0.0106 -0.3195 -0.2647
  186SAPI  H11R21356   1.203   1.106   9.727 -0.0653  1.1991 -0.8390
  186SAPI  C21221357   1.403   1.134   9.670 -0.4059 -0.8374  0.2399
  186SAPI  H12R21358   1.379   1.138   9.562  1.6939 -0.0029 -0.2385
  186SAPI  C21321359   1.541   1.180   9.697 -0.5599  0.7428  0.4406
  186SAPI  H13R21360   1.604   1.095   9.665 -2.1192 -0.8706  1.4807
  186SAPI  H13S21361   1.555   1.187   9.807 -1.0412  0.7265  0.5056
  186SAPI  C21421362   1.578   1.313   9.636 -0.1389  0.0736 -0.6232
  186SAPI  H14R21363   1.513   1.399   9.657 -0.0617 -0.4042  1.8619
  186SAPI  C21521364   1.677   1.329   9.548  0.0663  0.2195  0.6460
  186SAPI  H15R21365   1.702   1.426   9.503  0.5942 -0.4831 -0.6452
  186SAPI  C21621366   1.764   1.215   9.497  0.7403  0.0620 -0.3970
  186SAPI  H16R21367   1.708   1.119   9.486  0.3727  0.3915 -1.6210
  186SAPI  H16S21368   1.842   1.191   9.572 -0.0423 -3.4687 -0.5191
  186SAPI  C21721369   1.836   1.251   9.364 -0.0920 -0.4037  0.3929
  186SAPI  H17R21370   1.920   1.179   9.357  0.4719  0.0869  1.8120
  186SAPI  H17S21371   1.879   1.353   9.372 -2.1130  0.6387 -1.0447
  186SAPI  C21821372   1.751   1.240   9.234 -0.3425  0.7067  0.1119
  186SAPI  H18R21373   1.661   1.306   9.232  0.0309  1.2511  0.8207
  186SAPI  H18S21374   1.719   1.134   9.234 -1.1858  0.9264 -1.6864
  186SAPI  C21921375   1.823   1.255   9.103 -0.3891 -0.6940  0.2011
  186SAPI  H19R21376   1.914   1.192   9.098 -0.7072 -1.0774 -1.2532
  186SAPI  H19S21377   1.869   1.356   9.100  0.2093 -0.9718 -2.0620
  186SAPI  C22021378   1.745   1.240   8.976  0.3095  0.5762 -0.5965
  186SAPI  H20R21379   1.645   1.289   8.974  1.0265  2.1375  0.0318
  186SAPI  H20S21380   1.727   1.132   8.953  1.9685  0.1428  0.0311
  186SAPI  H20T21381   1.816   1.259   8.892 -0.6933 -1.9545 -2.1357
  186SAPI   C3321382   0.640   0.753  10.346  0.0252 -0.2372  0.3597
  186SAPI   H3X21383   0.749   0.747  10.368 -0.0266 -2.7622  0.2582
  186SAPI   H3Y21384   0.594   0.849  10.375  0.8056 -0.3000  1.9053
  186SAPI   C3421385   0.618   0.716  10.200 -0.4878 -0.1522 -0.1083
  186SAPI   H4X21386   0.511   0.688  10.192 -0.4239 -0.8961  1.2182
  186SAPI   H4Y21387   0.670   0.620  10.177  0.1265  0.3550 -0.8661
  186SAPI   C3521388   0.665   0.831  10.105 -0.0925  0.2156  0.5715
  186SAPI   H5X21389   0.770   0.868  10.107 -0.5850  1.7076 -0.1002
  186SAPI   H5Y21390   0.609   0.922  10.132  0.3804  0.2129  1.6011
  186SAPI   C3621391   0.629   0.786   9.961 -0.5173  0.0290 -0.3884
  186SAPI   H6X21392   0.518   0.783   9.954 -0.5928  2.0429 -0.4949
  186SAPI   H6Y21393   0.672   0.684   9.949 -0.0604  0.2780 -0.8614
  186SAPI   C3721394   0.689   0.878   9.854  0.2549 -0.1768  1.0355
  186SAPI   H7X21395   0.795   0.888   9.887  0.2449 -3.6860  2.5282
  186SAPI   H7Y21396   0.641   0.978   9.847  0.4124 -0.0123  2.2022
  186SAPI   C3821397   0.681   0.819   9.711  0.8404 -0.1181 -0.3348
  186SAPI   H8X21398   0.574   0.816   9.680  0.5455  2.1645  0.2389
  186SAPI   H8Y21399   0.733   0.721   9.708  0.0604 -0.6952  2.3579
  186SAPI   C3921400   0.747   0.909   9.606 -0.7352 -0.2358 -0.1147
  186SAPI   H9X21401   0.853   0.924   9.633 -1.0285  1.0267  0.3748
  186SAPI   H9Y21402   0.705   1.011   9.593  0.4681  0.4853  1.3018
  186SAPI  C31021403   0.746   0.838   9.471 -1.1527 -0.1421 -0.9109
  186SAPI  H10X21404   0.647   0.790   9.456  0.0755 -3.7854  1.3518
  186SAPI  H10Y21405   0.811   0.749   9.487 -3.4447 -2.2081 -2.3615
  186SAPI  C31121406   0.796   0.920   9.352 -0.4576  0.0922  0.7627
  186SAPI  H11X21407   0.888   0.970   9.388 -1.5718  3.2355 -0.4206
  186SAPI  H11Y21408   0.731   1.007   9.330  1.5552  1.0764 -1.7313
  186SAPI  C31221409   0.819   0.831   9.227  0.8183  0.7566 -0.3970
  186SAPI  H12X21410   0.718   0.790   9.206  0.5089  1.0823  0.4410
  186SAPI  H12Y21411   0.884   0.746   9.259 -2.1113 -1.5645 -0.1480
  186SAPI  C31321412   0.863   0.893   9.098 -0.0062 -0.8721 -0.3233
  186SAPI  H13X21413   0.847   0.818   9.017 -2.0279 -2.4685  1.4271
  186SAPI  H13Y21414   0.972   0.907   9.112 -0.2453  0.4309  0.3620
  186SAPI  C31421415   0.807   1.021   9.047 -0.8357 -0.2647  0.2794
  186SAPI  H14X21416   0.778   1.079   9.138 -2.2057  0.3952 -0.5457
  186SAPI  H14Y21417   0.723   1.011   8.975 -0.1523 -1.1386 -0.4236
  186SAPI  C31521418   0.911   1.102   8.964  0.1101  0.5017 -0.8566
  186SAPI  H15X21419   0.970   1.031   8.902  0.9128  0.2155  0.2012
  186SAPI  H15Y21420   0.977   1.158   9.034 -0.0472  2.0059 -1.8637
  186SAPI  C31621421   0.839   1.212   8.874 -0.7379 -0.5830 -0.3525
  186SAPI  H16X21422   0.797   1.279   8.952  0.9857 -0.3167  0.3844
  186SAPI  H16Y21423   0.751   1.165   8.825 -0.4663  0.2970 -1.7395
  186SAPI  C31721424   0.929   1.282   8.781 -0.0555  0.4990  0.4152
  186SAPI  H17X21425   0.878   1.333   8.697  0.4985 -1.2199 -1.0123
  186SAPI  H17Y21426   0.991   1.209   8.725 -0.1052  0.9542 -0.2433
  186SAPI  C31821427   1.015   1.390   8.839 -0.1058  0.4068 -0.1645
  186SAPI  H18X21428   1.085   1.345   8.913  0.0231  0.1741 -0.4289
  186SAPI  H18Y21429   0.958   1.480   8.873 -1.9705 -0.3910 -1.0530
  186SAPI  H18Z21430   1.073   1.432   8.754 -1.2498  0.6410 -0.8571
  187SAPI   C1221431   0.923   2.270   6.282  0.2058 -0.2032  0.0849
  187SAPI    H221432   0.885   2.357   6.339  1.5098 -0.4843  1.4255
  187SAPI    O221433   0.836   2.156   6.300  0.3882  0.0345  0.4393
  187SAPI   HO221434   0.771   2.178   6.367  1.3100 -2.3013  2.2448
  187SAPI   C1321435   0.922   2.307   6.133  0.0744 -0.0407 -0.2118
  187SAPI    H321436   0.990   2.395   6.128 -2.2730  1.9527  1.2322
  187SAPI    O321437   0.790   2.348   6.088 -0.0050 -0.7252 -0.6179
  187SAPI   HO321438   0.804   2.393   6.005  1.2793 -0.3569 -0.2289
  187SAPI   C1421439   0.977   2.194   6.057 -0.4179  0.6787 -0.3623
  187SAPI    H421440   0.910   2.107   6.075  1.4230 -0.9079 -0.8163
  187SAPI    O421441   0.966   2.208   5.913  0.2111 -0.1160  0.1380
  187SAPI   HO421442   0.912   2.139   5.874 -0.0765  1.9676 -3.6193
  187SAPI   C1521443   1.119   2.146   6.087  0.2022  0.0592 -0.5062
  187SAPI    H521444   1.182   2.235   6.070 -0.9890  1.0728  0.1678
  187SAPI    O521445   1.172   2.041   6.006  0.3951  0.0537  0.0240
  187SAPI   HO521446   1.106   1.971   6.008  1.5580 -1.0632  1.4113
  187SAPI   C1621447   1.126   2.130   6.239 -0.3137  0.5926  0.0157
  187SAPI    H621448   1.071   2.034   6.255  2.9676 -1.4308  0.0388
  187SAPI    O621449   1.269   2.111   6.273  0.3860 -0.0120  0.4357
  187SAPI   HO621450   1.269   2.039   6.336 -1.2458 -1.7418 -1.3964
  187SAPI   C1121451   1.067   2.249   6.325 -0.2833 -0.5694 -0.1602
  187SAPI    H121452   1.130   2.340   6.312 -1.7771  0.4797 -0.3691
  187SAPI     P21453   1.047   2.334   6.577  0.0189 -0.4804  0.2901
  187SAPI   O1321454   0.901   2.351   6.607 -0.6284  0.3437  0.3871
  187SAPI   O1421455   1.127   2.451   6.524 -0.3378  0.0269  0.3726
  187SAPI   O1221456   1.064   2.215   6.465 -0.4597 -0.4529 -0.0230
  187SAPI   O1121457   1.123   2.254   6.694 -0.2155 -0.2406  0.0055
  187SAPI    C121458   1.051   2.165   6.782  0.2261 -0.6068 -0.9806
  187SAPI    HA21459   0.970   2.105   6.734  1.2415 -1.0491 -2.1870
  187SAPI    HB21460   1.118   2.088   6.826  0.6596 -0.3586 -1.2105
  187SAPI    C221461   0.982   2.244   6.897  0.9236  0.1182  0.0202
  187SAPI    HS21462   0.893   2.288   6.847 -1.3922 -2.6787  1.3816
  187SAPI   O2121463   1.071   2.334   6.966 -0.2051  0.4180  0.0410
  187SAPI   C2121464   1.026   2.456   6.995  0.5845 -0.6348  0.3922
  187SAPI   O2221465   0.922   2.505   6.953 -0.5694  0.0300  0.2899
  187SAPI   C2221466   1.120   2.533   7.080  0.0608  0.5761  0.4228
  187SAPI   H2R21467   1.215   2.546   7.024  0.2926 -0.7058  0.4688
  187SAPI   H2S21468   1.077   2.634   7.099 -0.8992  0.0518  1.1614
  187SAPI    C321469   0.926   2.141   7.006 -0.8428 -0.0013  0.1628
  187SAPI    HX21470   1.009   2.071   7.029  1.2340  2.7610  1.6509
  187SAPI    HY21471   0.848   2.081   6.955  0.3160 -1.6942  0.2797
  187SAPI   O3121472   0.878   2.194   7.128 -0.0486  0.0483 -0.4096
  187SAPI   C3121473   0.770   2.270   7.111 -0.3216  1.2062  0.4602
  187SAPI   O3221474   0.701   2.265   7.009 -0.0928  1.1267 -0.2678
  187SAPI   C3221475   0.751   2.368   7.223  0.0407 -0.5699  0.5026
  187SAPI   H2X21476   0.729   2.468   7.181 -1.5938 -1.1706 -0.1669
  187SAPI   H2Y21477   0.845   2.396   7.276 -0.6637  2.1937  0.4413
  187SAPI   C2321478   1.125   2.473   7.221 -0.4708 -0.2970 -0.3822
  187SAPI   H3R21479   1.127   2.363   7.230  4.8583 -0.4171  0.0642
  187SAPI   H3S21480   1.025   2.506   7.260 -0.5415  0.0535 -0.8523
  187SAPI   C2421481   1.251   2.511   7.305 -0.4760  0.8137  0.3626
  187SAPI   H4R21482   1.334   2.470   7.244  0.3643  1.4077  1.0796
  187SAPI   H4S21483   1.246   2.438   7.388 -0.7030  0.9369  0.4579
  187SAPI   C2521484   1.268   2.656   7.331  0.6804  0.0315 -0.5681
  187SAPI   H5R21485   1.304   2.713   7.244 -2.0531  0.0529 -1.7689
  187SAPI   C2621486   1.251   2.710   7.456  0.4380  0.0279 -0.0471
  187SAPI   H6R21487   1.243   2.820   7.465 -0.9782 -0.1789  1.7607
  187SAPI   C2721488   1.215   2.641   7.589  0.1159 -0.0042  0.6810
  187SAPI   H7R21489   1.219   2.712   7.673 -0.0552  0.2997  0.4327
  187SAPI   H7S21490   1.302   2.577   7.615  1.5490  1.0992 -1.1395
  187SAPI   C2821491   1.088   2.563   7.591 -0.4629  0.1107 -0.5139
  187SAPI   H8R21492   1.029   2.560   7.498 -0.6313 -2.4524 -0.3810
  187SAPI   C2921493   1.042   2.488   7.685 -0.0579 -0.2849  0.3869
  187SAPI   H9R21494   0.948   2.433   7.670  0.4544 -0.8494 -0.9290
  187SAPI  C21021495   1.113   2.461   7.813  0.3160  0.5965  0.2075
  187SAPI  H10R21496   1.152   2.558   7.849 -0.3996  1.4702 -1.2891
  187SAPI  H10S21497   1.205   2.400   7.800 -1.4957 -3.5174  3.7576
  187SAPI  C21121498   1.024   2.389   7.908  0.4823 -0.9572 -0.4291
  187SAPI  H11R21499   0.983   2.294   7.869  1.4233 -1.4754 -0.1869
  187SAPI  C21221500   1.005   2.422   8.039 -0.7285  0.3924 -0.2909
  187SAPI  H12R21501   0.934   2.363   8.099 -1.8161  0.8704 -1.0786
  187SAPI  C21321502   1.067   2.536   8.118 -0.7968 -0.1319 -0.0358
  187SAPI  H13R21503   1.012   2.538   8.215  1.6713 -3.3531  1.6487
  187SAPI  H13S21504   1.046   2.629   8.061  0.4679 -0.8814 -1.8145
  187SAPI  C21421505   1.209   2.513   8.153 -0.0173 -0.7085  0.1843
  187SAPI  H14R21506   1.275   2.543   8.070  0.2677  0.5420  0.8304
  187SAPI  C21521507   1.258   2.446   8.255 -0.0979 -0.4515  0.0236
  187SAPI  H15R21508   1.366   2.431   8.269 -0.5113 -2.7311  1.2010
  187SAPI  C21621509   1.184   2.383   8.363  0.5480 -0.2233 -0.6149
  187SAPI  H16R21510   1.215   2.277   8.370 -0.9173 -0.6111  0.3747
  187SAPI  H16S21511   1.074   2.378   8.348  0.6740  0.9821 -2.3672
  187SAPI  C21721512   1.219   2.449   8.494  0.2603  0.2973 -0.2826
  187SAPI  H17R21513   1.202   2.559   8.492  1.0661  0.4304 -0.3316
  187SAPI  H17S21514   1.326   2.430   8.518 -0.3176  0.1642  2.5230
  187SAPI  C21821515   1.148   2.374   8.613  0.3706 -0.0772 -0.4695
  187SAPI  H18R21516   1.173   2.266   8.618  1.0273  0.1305  2.2546
  187SAPI  H18S21517   1.037   2.372   8.604  0.2688  0.4532  0.4814
  187SAPI  C21921518   1.199   2.442   8.747  0.2362  0.6585  0.1365
  187SAPI  H19R21519   1.170   2.549   8.747 -0.0712  0.6420 -2.7046
  187SAPI  H19S21520   1.310   2.436   8.752  0.1283 -1.1368  2.4234
  187SAPI  C22021521   1.154   2.373   8.874 -0.4135  0.0945  0.1216
  187SAPI  H20R21522   1.175   2.265   8.861  2.6251  0.5612  0.3607
  187SAPI  H20S21523   1.044   2.375   8.887 -0.4384 -0.0097 -0.0623
  187SAPI  H20T21524   1.196   2.403   8.972 -2.8899  0.6555  1.0655
  187SAPI   C3321525   0.644   2.327   7.332  0.1997  0.6094  0.8929
  187SAPI   H3X21526   0.542   2.306   7.295 -0.5294 -0.3927  3.2910
  187SAPI   H3Y21527   0.624   2.423   7.384 -0.2153  0.9940  0.0477
  187SAPI   C3421528   0.706   2.230   7.427  0.0866  0.0205  0.3775
  187SAPI   H4X21529   0.808   2.262   7.456 -0.3163  1.3454  0.4086
  187SAPI   H4Y21530   0.720   2.131   7.379  0.1948  0.2742 -0.1230
  187SAPI   C3521531   0.613   2.226   7.555 -0.1878  0.0760  0.2261
  187SAPI   H5X21532   0.510   2.200   7.522 -0.2371  0.1079  0.3540
  187SAPI   H5Y21533   0.610   2.328   7.598  0.1689  0.1711  0.0265
  187SAPI   C3621534   0.654   2.122   7.658 -0.7940 -0.2158  0.2360
  187SAPI   H6X21535   0.763   2.143   7.656 -0.8070 -0.1682 -0.1904
  187SAPI   H6Y21536   0.635   2.017   7.627 -3.9988  0.4982 -0.5284
  187SAPI   C3721537   0.589   2.147   7.797 -0.7220  0.2576  0.3723
  187SAPI   H7X21538   0.493   2.096   7.773  0.6029 -1.9232 -0.5905
  187SAPI   H7Y21539   0.588   2.255   7.823 -0.8862 -0.1034  1.9570
  187SAPI   C3821540   0.651   2.072   7.914 -0.2946 -0.3248 -0.6160
  187SAPI   H8X21541   0.746   2.120   7.944 -0.0863 -0.7225 -0.6372
  187SAPI   H8Y21542   0.677   1.970   7.879  1.2870 -0.2102  0.1342
  187SAPI   C3921543   0.550   2.053   8.030  0.2481 -0.5880  0.4725
  187SAPI   H9X21544   0.451   2.022   7.990  0.6005  0.2819 -1.1666
  187SAPI   H9Y21545   0.537   2.151   8.082 -2.3896 -0.8818  0.5021
  187SAPI  C31021546   0.599   1.953   8.127 -0.2669 -0.0782  0.6412
  187SAPI  H10X21547   0.697   1.987   8.167  0.1009 -0.4449  0.0699
  187SAPI  H10Y21548   0.610   1.858   8.069 -3.6470  0.0810 -0.4931
  187SAPI  C31121549   0.503   1.928   8.238  0.4352  0.3549  0.0348
  187SAPI  H11X21550   0.399   1.903   8.206  0.5304 -0.1650  0.1194
  187SAPI  H11Y21551   0.498   2.024   8.294  1.0575  0.7165 -0.5107
  187SAPI  C31221552   0.549   1.818   8.331 -0.6591  0.0825 -0.3676
  187SAPI  H12X21553   0.484   1.833   8.420  3.1079  2.4702  2.3345
  187SAPI  H12Y21554   0.650   1.838   8.374 -0.3064  2.0740 -1.9862
  187SAPI  C31321555   0.540   1.680   8.270  0.6347  0.3763  0.2840
  187SAPI  H13X21556   0.606   1.682   8.181 -2.3170  0.0134 -2.1044
  187SAPI  H13Y21557   0.440   1.656   8.226  1.2090 -0.4579 -0.6089
  187SAPI  C31421558   0.575   1.568   8.371  0.0022  0.4123 -0.4810
  187SAPI  H14X21559   0.511   1.585   8.461 -0.3350 -1.3631 -0.3463
  187SAPI  H14Y21560   0.678   1.588   8.408 -0.5561  0.5684  1.0712
  187SAPI  C31521561   0.552   1.429   8.315 -0.0080  0.3747 -0.2028
  187SAPI  H15X21562   0.647   1.396   8.266 -0.1608 -1.6828  0.7930
  187SAPI  H15Y21563   0.468   1.429   8.242 -0.7603  0.5803  0.6526
  187SAPI  C31621564   0.522   1.328   8.432  0.1309  0.1175  0.3524
  187SAPI  H16X21565   0.480   1.237   8.385 -1.6651 -0.6166  3.1487
  187SAPI  H16Y21566   0.450   1.384   8.496  0.3238 -0.4752  1.1027
  187SAPI  C31721567   0.639   1.276   8.504 -0.2797 -0.0718 -0.3007
  187SAPI  H17X21568   0.687   1.347   8.575 -0.3241 -0.8166  0.4782
  187SAPI  H17Y21569   0.730   1.258   8.443  0.2730  2.3126 -0.2738
  187SAPI  C31821570   0.610   1.143   8.579 -0.3324 -0.2804  0.0229
  187SAPI  H18X21571   0.557   1.168   8.674  1.2766 -0.4970  1.0125
  187SAPI  H18Y21572   0.712   1.105   8.603  0.6265  2.3266  0.3351
  187SAPI  H18Z21573   0.561   1.069   8.513  1.8886  0.6642 -2.8867
  188SAPI   C1221574   4.607   6.458   6.645  0.1876  0.1585 -0.6030
  188SAPI    H221575   4.566   6.491   6.743  1.2265  2.3725 -0.8598
  188SAPI    O221576   4.586   6.319   6.637 -0.2846  0.5518  0.4906
  188SAPI   HO221577   4.672   6.281   6.655 -1.1648 -3.5405 -2.4733
  188SAPI   C1321578   4.536   6.530   6.532 -0.6324  0.2536 -0.2551
  188SAPI    H321579   4.560   6.637   6.546 -0.4858  0.1643  0.2019
  188SAPI    O321580   4.393   6.517   6.539 -0.7285  0.3006 -0.4114
  188SAPI   HO321581   4.367   6.427   6.518  2.1806 -0.9740  0.9305
  188SAPI   C1421582   4.592   6.487   6.401 -0.7004 -0.1133  0.2909
  188SAPI    H421583   4.578   6.377   6.394  0.8365 -0.2945 -0.3978
  188SAPI    O421584   4.525   6.550   6.287 -0.1025 -0.6848  0.3435
  188SAPI   HO421585   4.440   6.507   6.294  0.1383 -1.1219  0.6300
  188SAPI   C1521586   4.739   6.506   6.392  0.4943  0.0201  0.4084
  188SAPI    H521587   4.761   6.613   6.411 -0.1778  0.3528 -0.5899
  188SAPI    O521588   4.783   6.482   6.257  0.2126  0.4759 -0.0533
  188SAPI   HO521589   4.729   6.532   6.196  1.8422  1.3049 -0.8731
  188SAPI   C1621590   4.812   6.434   6.498 -0.2554  0.2380  0.5039
  188SAPI    H621591   4.790   6.326   6.485 -0.6661  0.4170 -0.4353
  188SAPI    O621592   4.950   6.461   6.499 -0.2998  0.2678 -0.1751
  188SAPI   HO621593   4.968   6.447   6.592  0.0551  0.1745 -0.2551
  188SAPI   C1121594   4.757   6.480   6.632 -0.1125 -0.3748 -0.7527
  188SAPI    H121595   4.782   6.588   6.631  2.6129 -0.9183  0.3214
  188SAPI     P21596   4.853   6.498   6.881 -0.0995  0.5426 -0.1442
  188SAPI   O1321597   4.891   6.637   6.845  0.1403 -0.6630  0.0901
  188SAPI   O1421598   4.953   6.428   6.965  0.5944 -0.1895 -0.0299
  188SAPI   O1221599   4.827   6.412   6.740 -0.2264 -0.0195  0.5736
  188SAPI   O1121600   4.715   6.500   6.944  0.0193  0.0082 -0.4261
  188SAPI    C121601   4.658   6.390   7.016  0.6374 -0.2279  0.0297
  188SAPI    HA21602   4.548   6.381   6.999  0.6402 -2.1449  0.8124
  188SAPI    HB21603   4.699   6.293   6.981  1.1089  0.4682 -1.4431
  188SAPI    C221604   4.660   6.398   7.171  0.6374 -0.5603  0.1292
  188SAPI    HS21605   4.627   6.496   7.212  0.8662 -0.4660  0.0863
  188SAPI   O2121606   4.789   6.360   7.222 -0.4277  0.0203 -0.3571
  188SAPI   C2121607   4.873   6.462   7.252  0.8992 -0.5170 -0.2321
  188SAPI   O2221608   4.844   6.579   7.235  0.3748  0.3585  0.1861
  188SAPI   C2221609   5.005   6.405   7.292 -0.0173 -0.3482  0.5874
  188SAPI   H2R21610   5.010   6.295   7.288 -0.6169 -0.3757  0.5279
  188SAPI   H2S21611   5.083   6.451   7.228  1.5123 -0.4017  2.3358
  188SAPI    C321612   4.555   6.293   7.237  0.1596  0.1021  0.3185
  188SAPI    HX21613   4.602   6.196   7.210  0.6602  1.1264 -2.9993
  188SAPI    HY21614   4.457   6.293   7.185  0.0984  0.7203  0.4227
  188SAPI   O3121615   4.541   6.330   7.375 -0.1168 -0.0608  0.0811
  188SAPI   C3121616   4.575   6.239   7.467  0.0561 -0.9102 -0.1436
  188SAPI   O3221617   4.617   6.132   7.443 -0.0174  0.5317  0.9083
  188SAPI   C3221618   4.555   6.294   7.608  0.5183 -0.2984 -0.9934
  188SAPI   H2X21619   4.447   6.301   7.635  0.7297 -0.7773  0.0329
  188SAPI   H2Y21620   4.597   6.397   7.612 -0.4889  0.0828  0.5675
  188SAPI   C2321621   5.041   6.449   7.437  0.1405 -0.2524 -0.9943
  188SAPI   H3R21622   5.040   6.560   7.443  1.9690 -0.2735  1.7682
  188SAPI   H3S21623   5.145   6.422   7.464  0.3801  1.3383 -0.2119
  188SAPI   C2421624   4.945   6.381   7.543  0.1154 -0.4714 -0.0015
  188SAPI   H4R21625   4.840   6.412   7.524  0.4413  1.0689  0.5208
  188SAPI   H4S21626   4.971   6.431   7.640 -1.4210  2.1955 -0.8536
  188SAPI   C2521627   4.963   6.233   7.547  0.6027 -0.1003  0.6229
  188SAPI   H5R21628   4.910   6.183   7.465 -0.6517 -0.3653  1.5611
  188SAPI   C2621629   5.027   6.149   7.633 -0.3774  0.2889 -0.0259
  188SAPI   H6R21630   5.030   6.040   7.618 -3.2055  0.2337 -0.6150
  188SAPI   C2721631   5.108   6.194   7.745 -0.6224 -0.7312 -0.1157
  188SAPI   H7R21632   5.043   6.221   7.831  0.4548  1.7783 -0.0082
  188SAPI   H7S21633   5.170   6.284   7.722  1.1031 -2.1010 -1.0438
  188SAPI   C2821634   5.217   6.088   7.794 -0.2524  0.0135 -0.0219
  188SAPI   H8R21635   5.240   6.014   7.716 -1.3394  0.9800 -1.2849
  188SAPI   C2921636   5.293   6.076   7.908 -0.4403  0.1090 -0.0961
  188SAPI   H9R21637   5.366   5.994   7.919 -1.3314 -0.9577 -1.6905
  188SAPI  C21021638   5.288   6.168   8.028  0.2101  0.0415  0.1135
  188SAPI  H10R21639   5.291   6.276   8.004  0.3555  0.2694  1.1300
  188SAPI  H10S21640   5.394   6.154   8.058 -0.0504 -0.4498  0.8463
  188SAPI  C21121641   5.191   6.131   8.143 -0.3906  0.1555 -0.1246
  188SAPI  H11R21642   5.110   6.062   8.116 -0.0871 -0.5005  0.6076
  188SAPI  C21221643   5.191   6.166   8.275 -0.6351  0.6356  0.0661
  188SAPI  H12R21644   5.117   6.117   8.340 -1.1548 -1.0801 -1.7250
  188SAPI  C21321645   5.289   6.260   8.339 -0.2470  0.6642  0.1384
  188SAPI  H13R21646   5.379   6.286   8.278 -0.6447  0.9911 -0.3137
  188SAPI  H13S21647   5.327   6.205   8.428  3.8801  1.6096 -0.8069
  188SAPI  C21421648   5.215   6.388   8.389 -0.5203 -0.1400  0.1379
  188SAPI  H14R21649   5.155   6.437   8.312 -0.0120  0.4439  0.1082
  188SAPI  C21521650   5.196   6.422   8.517  0.1960  0.4361  0.6610
  188SAPI  H15R21651   5.119   6.498   8.536  1.2372  1.6910  0.0103
  188SAPI  C21621652   5.251   6.357   8.641  0.4842  0.2474  0.2280
  188SAPI  H16R21653   5.284   6.443   8.703 -0.3250  1.0526 -0.4225
  188SAPI  H16S21654   5.336   6.292   8.613  1.0905  0.1014  2.2903
  188SAPI  C21721655   5.127   6.287   8.713  0.1338 -0.4008 -0.1641
  188SAPI  H17R21656   5.107   6.193   8.657  2.9052 -0.5953 -0.9587
  188SAPI  H17S21657   5.039   6.354   8.705  1.0649  0.9412  0.4232
  188SAPI  C21821658   5.165   6.250   8.864  0.2849  0.0573  0.3313
  188SAPI  H18R21659   5.071   6.207   8.905 -0.9223  1.9154 -0.4062
  188SAPI  H18S21660   5.192   6.347   8.911 -3.7999  0.3601  2.4824
  188SAPI  C21921661   5.290   6.151   8.872  0.0722  0.0450 -0.0503
  188SAPI  H19R21662   5.321   6.127   8.976 -1.0134  0.5729  0.4099
  188SAPI  H19S21663   5.378   6.202   8.828  2.5352 -0.6306  3.6781
  188SAPI  C22021664   5.274   6.023   8.791  0.1863 -0.5126 -0.3102
  188SAPI  H20R21665   5.164   6.024   8.780  0.1897  1.5249 -0.5646
  188SAPI  H20S21666   5.311   5.939   8.854  0.2872  0.3128  0.7746
  188SAPI  H20T21667   5.329   6.033   8.695  0.2826 -0.9699 -0.3049
  188SAPI   C3321668   4.611   6.205   7.722 -0.2565  0.5595 -0.5302
  188SAPI   H3X21669   4.721   6.208   7.717 -0.1844  0.3194  0.5970
  188SAPI   H3Y21670   4.587   6.097   7.719  2.6637 -0.2942  1.8465
  188SAPI   C3421671   4.576   6.257   7.868 -0.2813  0.4550  0.4647
  188SAPI   H4X21672   4.468   6.253   7.893 -0.5371  0.9404 -0.5384
  188SAPI   H4Y21673   4.609   6.362   7.878  3.0017 -0.4421  0.2738
  188SAPI   C3521674   4.654   6.184   7.973 -0.6056 -0.2761  0.0059
  188SAPI   H5X21675   4.763   6.207   7.965 -0.6835  0.4085  0.8273
  188SAPI   H5Y21676   4.654   6.073   7.963  0.0842 -0.1619 -1.5066
  188SAPI   C3621677   4.601   6.219   8.109  0.4419 -0.3109  0.2829
  188SAPI   H6X21678   4.494   6.193   8.123 -0.0127  1.6577  0.8830
  188SAPI   H6Y21679   4.616   6.329   8.109  1.3852 -0.4247 -0.6011
  188SAPI   C3721680   4.682   6.154   8.218 -0.3531  0.1658  0.1100
  188SAPI   H7X21681   4.789   6.179   8.205  0.1201 -1.2978  1.0360
  188SAPI   H7Y21682   4.678   6.044   8.208  1.0662 -0.0515  1.5362
  188SAPI   C3821683   4.631   6.189   8.353  0.2648  0.3565 -0.2678
  188SAPI   H8X21684   4.537   6.134   8.373  1.0230 -1.2911 -1.0870
  188SAPI   H8Y21685   4.596   6.295   8.358 -0.1470  0.2719 -1.1947
  188SAPI   C3921686   4.726   6.150   8.474  0.3945  0.0837  0.0554
  188SAPI   H9X21687   4.828   6.168   8.433 -0.4028 -0.0658 -2.1578
  188SAPI   H9Y21688   4.715   6.041   8.489 -1.7655  0.2435 -0.0744
  188SAPI  C31021689   4.686   6.228   8.601 -0.1627  0.4371  0.0216
  188SAPI  H10X21690   4.575   6.229   8.612 -0.2996  0.3048 -1.2091
  188SAPI  H10Y21691   4.723   6.330   8.577  0.4378 -0.0814 -1.3679
  188SAPI  C31121692   4.747   6.177   8.729  0.5601 -0.1837  0.4518
  188SAPI  H11X21693   4.722   6.258   8.800 -0.0868  0.2608 -0.2596
  188SAPI  H11Y21694   4.858   6.171   8.730  0.8372  2.9463  1.9268
  188SAPI  C31221695   4.698   6.047   8.780 -0.1086 -0.3378  0.6727
  188SAPI  H12X21696   4.734   6.030   8.883  2.3301 -0.2362 -0.0895
  188SAPI  H12Y21697   4.747   5.973   8.713 -0.7383  0.0327 -0.2210
  188SAPI  C31321698   4.550   6.009   8.773  0.0075  0.4748  0.1614
  188SAPI  H13X21699   4.548   5.902   8.803 -0.4018  0.2939 -0.4879
  188SAPI  H13Y21700   4.514   6.014   8.668  2.0904 -3.1310 -0.9147
  188SAPI  C31421701   4.454   6.092   8.860 -0.2768 -0.4125 -0.3318
  188SAPI  H14X21702   4.449   6.194   8.817 -1.2710 -0.0075  0.6684
  188SAPI  H14Y21703   4.490   6.105   8.965  1.0563 -0.5268 -0.7667
  188SAPI  C31521704   4.319   6.028   8.863 -0.0140  0.4612 -0.1559
  188SAPI  H15X21705   4.331   5.928   8.911  0.8552 -0.6103 -2.4195
  188SAPI  H15Y21706   4.300   6.011   8.755  0.0098 -1.6853  0.1363
  188SAPI  C31621707   4.211   6.104   8.931 -0.3396  0.1018  0.2658
  188SAPI  H16X21708   4.259   6.145   9.023 -1.6546 -0.8445  1.4217
  188SAPI  H16Y21709   4.123   6.044   8.962 -0.5155 -0.2500 -0.8941
  188SAPI  C31721710   4.151   6.229   8.869  0.0919 -0.6320 -0.5314
  188SAPI  H17X21711   4.210   6.268   8.783  1.5530  0.2005  0.7853
  188SAPI  H17Y21712   4.163   6.316   8.936 -1.1453 -0.1756 -0.8644
  188SAPI  C31821713   4.007   6.215   8.819 -0.3910 -0.6163 -0.0463
  188SAPI  H18X21714   4.007   6.158   8.724  1.4586 -1.0254  0.1640
  188SAPI  H18Y21715   3.969   6.318   8.802 -0.7560 -0.3987  1.8000
  188SAPI  H18Z21716   3.947   6.165   8.899  0.9991 -1.7669  0.3253
  189POPC     N21717   5.048   3.739  11.607 -0.2454 -0.3372  0.0730
  189POPC   C1221718   5.028   3.614  11.523 -0.4442  0.4099 -0.2976
  189POPC  H12A21719   4.930   3.614  11.478 -0.4636  0.0848 -0.2560
  189POPC  H12B21720   5.020   3.535  11.596 -0.2445  0.8602  0.2240
  189POPC   C1321721   5.196   3.743  11.643 -0.4826 -0.8356 -1.1996
  189POPC  H13A21722   5.220   3.832  11.699  1.2842  0.6988 -4.1117
  189POPC  H13B21723   5.222   3.651  11.693  1.8571 -0.1781 -1.0588
  189POPC  H13C21724   5.259   3.752  11.555  1.6708 -1.9856  0.1443
  189POPC   C1421725   5.007   3.863  11.532 -0.8251  0.0502  0.3324
  189POPC  H14A21726   4.900   3.877  11.526 -0.7969  1.0251  1.6369
  189POPC  H14B21727   5.044   3.953  11.580 -0.2089 -1.3807  2.7239
  189POPC  H14C21728   5.050   3.861  11.433  0.5722 -1.2765  0.9184
  189POPC   C1521729   4.970   3.727  11.737  0.3631  0.2456 -0.9483
  189POPC  H15A21730   4.864   3.710  11.721 -0.0531  0.7234  0.9787
  189POPC  H15B21731   4.981   3.821  11.789 -1.0898  0.8472 -1.6779
  189POPC  H15C21732   5.013   3.646  11.794 -1.0517  1.0929  1.4894
  189POPC   C1121733   5.142   3.571  11.428  0.6558  0.5142  0.1141
  189POPC  H11A21734   5.117   3.485  11.363  1.9589  0.4766 -0.3527
  189POPC  H11B21735   5.219   3.531  11.496 -1.4335 -1.9164  1.2375
  189POPC     P21736   5.143   3.730  11.212 -0.5303 -0.0850 -0.2057
  189POPC   O1321737   5.234   3.660  11.117 -0.1314  0.3024  0.3028
  189POPC   O1421738   5.141   3.878  11.217 -0.3915  0.4098  0.8048
  189POPC   O1221739   5.195   3.684  11.354 -0.4944 -0.0515 -0.4801
  189POPC   O1121740   5.000   3.669  11.209 -0.4304 -0.4682  0.3886
  189POPC    C121741   4.881   3.745  11.196 -1.1013 -0.0641 -0.4389
  189POPC    HA21742   4.891   3.848  11.236 -1.6350 -0.3168  0.3837
  189POPC    HB21743   4.801   3.704  11.262 -0.6375  1.2960  1.0249
  189POPC    C221744   4.825   3.761  11.046 -0.8053  0.2857  0.1327
  189POPC    HS21745   4.800   3.658  11.011 -0.2249  0.3025 -0.3461
  189POPC   O2121746   4.926   3.824  10.967  0.2960  0.4154  0.2107
  189POPC   C2121747   4.965   3.753  10.859 -0.3156  0.2880  1.1775
  189POPC   O2221748   4.902   3.665  10.799  0.1069 -0.5891  0.3903
  189POPC   C2221749   5.108   3.810  10.812 -0.2004  0.4462  0.1382
  189POPC   H2R21750   5.177   3.808  10.899  0.3729  1.9571 -0.2571
  189POPC   H2S21751   5.091   3.917  10.787 -3.0603  0.6808  2.4908
  189POPC    C321752   4.698   3.848  11.039  0.1562  0.1462 -0.4781
  189POPC    HX21753   4.721   3.946  11.084 -0.1903  1.2692 -2.6128
  189POPC    HY21754   4.626   3.798  11.107 -1.4531  3.8230  0.7706
  189POPC   O3121755   4.639   3.855  10.907 -0.1426  0.5118  0.1280
  189POPC   C3121756   4.681   3.954  10.823  0.0738  0.4801  0.3469
  189POPC   O3221757   4.753   4.051  10.845 -0.2283  0.8989  0.3628
  189POPC   C3221758   4.615   3.923  10.685 -0.2580 -0.2793  0.2593
  189POPC   H2X21759   4.509   3.957  10.683 -0.1013  0.3981 -3.0538
  189POPC   H2Y21760   4.621   3.815  10.660  2.0786  0.5564 -3.5982
  189POPC   C2321761   5.151   3.725  10.691  0.2877  0.5729  0.5851
  189POPC   H3R21762   5.121   3.619  10.701  0.3040  0.5296  0.1698
  189POPC   H3S21763   5.261   3.717  10.683  0.1325 -0.2205 -0.9611
  189POPC   C2421764   5.102   3.777  10.554  0.6054  0.4090 -0.7470
  189POPC   H4R21765   5.162   3.868  10.536 -0.0474  0.9072 -0.4574
  189POPC   H4S21766   4.993   3.799  10.557  0.6702  0.6642  0.2345
  189POPC   C2521767   5.144   3.671  10.444  0.4931 -0.0974 -0.1862
  189POPC   H5R21768   5.093   3.575  10.464 -0.9092  0.4672 -0.8824
  189POPC   H5S21769   5.255   3.662  10.446  0.9286  3.6424  0.0745
  189POPC   C2621770   5.110   3.711  10.300 -0.6313  0.2243  0.4734
  189POPC   H6R21771   5.002   3.734  10.309 -0.8867 -0.6008 -0.4022
  189POPC   H6S21772   5.119   3.627  10.228 -0.2882  2.4531 -2.2566
  189POPC   C2721773   5.197   3.820  10.238 -0.5528 -0.5208  0.0902
  189POPC   H7R21774   5.300   3.783  10.218 -0.1260  0.2907  0.7192
  189POPC   H7S21775   5.200   3.909  10.305 -1.0280  0.1329 -0.7349
  189POPC   C2821776   5.135   3.860  10.106  0.1219 -0.3753 -0.0541
  189POPC   H8R21777   5.192   3.953  10.085  1.0764 -0.4334  2.0348
  189POPC   H8S21778   5.030   3.892  10.125 -0.0747 -0.4233 -1.0165
  189POPC   C2921779   5.142   3.755   9.997 -0.2275 -0.0842 -0.2467
  189POPC   H9121780   5.075   3.669  10.010 -0.3337 -0.1249 -1.0624
  189POPC  C21021781   5.222   3.748   9.892  0.0165 -0.5782  0.1652
  189POPC  H10121782   5.217   3.662   9.823  1.0098 -0.1792 -0.4389
  189POPC  C21121783   5.328   3.841   9.861  0.2715 -0.2398 -0.3510
  189POPC  H11R21784   5.428   3.793   9.852  0.9696  0.3454  2.8795
  189POPC  H11S21785   5.343   3.921   9.937  0.9565  0.2976 -1.0366
  189POPC  C21221786   5.295   3.920   9.731 -0.4164 -0.9181 -0.1868
  189POPC  H12R21787   5.373   3.990   9.694  0.5715 -1.7464  0.2701
  189POPC  H12S21788   5.205   3.982   9.752  0.2608  0.1939 -0.4690
  189POPC  C21321789   5.274   3.833   9.611 -0.5308 -0.1850 -0.0914
  189POPC  H13R21790   5.197   3.758   9.641  0.4330 -0.8001  0.9218
  189POPC  H13S21791   5.362   3.774   9.578 -1.1288 -0.5340 -1.1022
  189POPC  C21421792   5.248   3.904   9.476  0.6315  0.0464 -0.2136
  189POPC  H14R21793   5.167   3.980   9.486  2.4999  2.1853 -0.6882
  189POPC  H14S21794   5.210   3.827   9.405 -1.6339  0.7014  0.2162
  189POPC  C21521795   5.374   3.967   9.410 -0.5364  0.6306  0.3819
  189POPC  H15R21796   5.445   3.883   9.392  0.1763  1.1415  0.7575
  189POPC  H15S21797   5.422   4.038   9.480 -0.5992  0.9959  0.0564
  189POPC  C21621798   5.351   4.017   9.267  0.0207 -0.4217  0.3151
  189POPC  H16R21799   5.286   4.105   9.286 -1.9003 -1.1407 -2.3174
  189POPC  H16S21800   5.301   3.948   9.196  1.8027 -1.1871 -0.2425
  189POPC  C21721801   5.485   4.053   9.198 -0.5072  0.2664 -1.2018
  189POPC  H17R21802   5.550   3.968   9.227  0.2914  1.8025  1.9645
  189POPC  H17S21803   5.529   4.143   9.247  0.2931 -0.4161 -0.6323
  189POPC  C21821804   5.476   4.082   9.050  0.2990  0.3386 -0.1595
  189POPC  H18R21805   5.519   3.998   8.992 -0.4856 -1.3982  1.6760
  189POPC  H18S21806   5.537   4.169   9.019 -0.9945  1.2342 -0.2978
  189POPC  H18T21807   5.372   4.108   9.020  0.2655 -1.2603 -1.5123
  189POPC   C3321808   4.685   4.008  10.575 -0.5277  0.7261 -0.7932
  189POPC   H3X21809   4.792   3.977  10.570  0.0106  1.8483  1.8479
  189POPC   H3Y21810   4.689   4.114  10.607 -2.3138  0.5598  0.1247
  189POPC   C3421811   4.620   3.984  10.440 -0.9679  0.2994  0.3901
  189POPC   H4X21812   4.509   3.987  10.439 -1.1070 -2.3582  0.1371
  189POPC   H4Y21813   4.639   3.881  10.402 -2.7804  1.1184 -3.1433
  189POPC   C3521814   4.679   4.082  10.340 -0.2832 -0.0181 -0.1370
  189POPC   H5X21815   4.788   4.073  10.359 -0.5563 -0.2617  1.5247
  189POPC   H5Y21816   4.640   4.183  10.363 -1.2609 -0.5163  0.5079
  189POPC   C3621817   4.650   4.033  10.200  0.0644  0.0457 -0.1730
  189POPC   H6X21818   4.545   4.048  10.168 -0.3216 -3.1274 -0.7220
  189POPC   H6Y21819   4.670   3.924  10.198  0.9071  0.1943 -0.8976
  189POPC   C3721820   4.733   4.108  10.085  0.2000  0.6135  0.1580
  189POPC   H7X21821   4.841   4.098  10.110  0.3595  1.7730  0.0189
  189POPC   H7Y21822   4.708   4.216  10.073 -2.3062  0.1690  0.8049
  189POPC   C3821823   4.724   4.035   9.954  0.1835  0.4162  0.6930
  189POPC   H8X21824   4.619   4.005   9.935 -0.3082  1.9969  0.7788
  189POPC   H8Y21825   4.785   3.945   9.980 -1.1491  0.1433  3.2556
  189POPC   C3921826   4.774   4.114   9.833 -0.5083 -0.0451 -0.5116
  189POPC   H9X21827   4.883   4.134   9.838 -0.2794 -0.9973 -1.3815
  189POPC   H9Y21828   4.717   4.209   9.841 -3.0261 -1.4206 -0.9873
  189POPC  C31021829   4.745   4.046   9.702  0.5169  0.1779 -0.0736
  189POPC  H10X21830   4.634   4.051   9.695  0.0967  1.3725  4.2630
  189POPC  H10Y21831   4.779   3.941   9.699  2.3955  0.7513 -0.3934
  189POPC  C31121832   4.807   4.115   9.575  0.0593 -0.3515 -0.1185
  189POPC  H11X21833   4.917   4.109   9.579  0.0081 -0.9805  0.6381
  189POPC  H11Y21834   4.766   4.218   9.582 -3.0883 -1.4085 -1.1390
  189POPC  C31221835   4.744   4.070   9.447 -0.3039 -0.1063  0.6881
  189POPC  H12X21836   4.635   4.087   9.436 -0.0341  0.7519 -0.9378
  189POPC  H12Y21837   4.770   3.963   9.434 -2.2773 -0.3291 -2.5430
  189POPC  C31321838   4.812   4.152   9.334 -0.0581  0.0783 -0.0651
  189POPC  H13X21839   4.923   4.150   9.338 -0.0765 -0.6774  0.1873
  189POPC  H13Y21840   4.770   4.255   9.329 -0.5011 -0.1303 -1.0372
  189POPC  C31421841   4.783   4.088   9.196 -0.2446 -0.1247 -0.5745
  189POPC  H14X21842   4.778   3.978   9.202 -0.9298 -0.0817 -0.2543
  189POPC  H14Y21843   4.874   4.110   9.136  1.9519 -2.0911  1.8199
  189POPC  C31521844   4.654   4.141   9.133  0.5413 -0.8669  0.2084
  189POPC  H15X21845   4.683   4.245   9.105  2.7279 -0.8926  2.0681
  189POPC  H15Y21846   4.569   4.142   9.204 -1.1469 -2.1707 -1.7039
  189POPC  C31621847   4.621   4.068   9.011  1.1090 -0.0886  0.1028
  189POPC  H16X21848   4.634   3.957   9.016  2.1859 -0.2507 -3.4966
  189POPC  H16Y21849   4.681   4.104   8.925 -0.7368  1.1489 -0.7353
  189POPC  H16Z21850   4.517   4.093   8.982  1.4484 -0.8798 -1.9708
  190POPC     N21851   0.048   3.581  11.479  0.0185 -0.2821 -0.0159
  190POPC   C1221852   0.174   3.612  11.561  0.5689  0.4767  0.1949
  190POPC  H12A21853   0.238   3.526  11.547  1.5021  1.3357 -1.0136
  190POPC  H12B21854   0.146   3.617  11.665 -1.4164 -3.5140  0.0520
  190POPC   C1321855  -0.044   3.706  11.477  0.1614  0.7999  0.7466
  190POPC  H13A21856  -0.070   3.732  11.579  1.6329 -0.4858  1.5020
  190POPC  H13B21857   0.008   3.787  11.427  4.6819 -2.4393 -0.5098
  190POPC  H13C21858  -0.137   3.688  11.425 -0.7424 -1.1030  2.8236
  190POPC   C1421859   0.087   3.544  11.342 -0.1337  0.1725 -0.2555
  190POPC  H14A21860   0.006   3.533  11.271 -0.5322 -0.3123  0.2660
  190POPC  H14B21861   0.163   3.612  11.307 -0.2065  1.1903  1.4490
  190POPC  H14C21862   0.133   3.446  11.344 -0.8382 -0.1583 -0.1963
  190POPC   C1521863  -0.048   3.479  11.538 -0.6853  0.1738 -0.3237
  190POPC  H15A21864  -0.006   3.380  11.524 -1.2076  0.0864 -1.3924
  190POPC  H15B21865  -0.146   3.483  11.492 -1.1204  2.2922  0.7026
  190POPC  H15C21866  -0.066   3.495  11.643  1.1993 -0.6809  0.1753
  190POPC   C1121867   0.260   3.734  11.515  0.2604  0.2668 -0.6875
  190POPC  H11A21868   0.343   3.739  11.589 -1.2761  2.1142  1.0200
  190POPC  H11B21869   0.203   3.829  11.520  1.4283  1.1431 -2.6930
  190POPC     P21870   0.383   3.829  11.300 -0.2407 -0.2887 -0.2436
  190POPC   O1321871   0.453   3.783  11.179 -0.1114  0.8074  0.1461
  190POPC   O1421872   0.464   3.922  11.387  0.0871 -0.5620  0.5524
  190POPC   O1221873   0.316   3.710  11.384 -0.2064 -0.0083  0.2650
  190POPC   O1121874   0.253   3.901  11.263  0.1308 -0.3788 -0.6893
  190POPC    C121875   0.176   3.855  11.153  0.5113 -0.9241 -0.3121
  190POPC    HA21876   0.070   3.884  11.171  1.1998  0.3707  2.0568
  190POPC    HB21877   0.176   3.745  11.142  0.3810 -1.1078  1.2281
  190POPC    C221878   0.202   3.914  11.006  0.1572 -0.2930 -0.0286
  190POPC    HS21879   0.299   3.871  10.973  0.4238  0.0216  0.3475
  190POPC   O2121880   0.210   4.066  11.014  1.1939  0.2996  0.6730
  190POPC   C2121881   0.295   4.130  10.931  0.1604  0.1710 -0.4628
  190POPC   O2221882   0.358   4.078  10.840  0.1786 -0.0863 -0.0157
  190POPC   C2221883   0.303   4.279  10.967 -0.0304 -0.5179  0.3210
  190POPC   H2R21884   0.401   4.302  11.014 -0.4675  1.2660  0.4322
  190POPC   H2S21885   0.227   4.298  11.046 -2.4605 -2.2951 -1.4165
  190POPC    C321886   0.091   3.878  10.911  0.9077 -0.0161 -0.0689
  190POPC    HX21887   0.000   3.935  10.938 -0.2665 -1.6176 -0.4600
  190POPC    HY21888   0.067   3.770  10.924 -3.0853  1.0226  3.1659
  190POPC   O3121889   0.125   3.921  10.776  0.1702  0.2142 -0.4165
  190POPC   C3121890   0.228   3.852  10.713  0.5065 -0.1280  0.0883
  190POPC   O3221891   0.281   3.754  10.756 -0.2479  0.4104 -0.2719
  190POPC   C3221892   0.252   3.909  10.572  0.1041 -0.6066 -0.1898
  190POPC   H2X21893   0.307   4.006  10.580  0.3480 -0.7911  0.4657
  190POPC   H2Y21894   0.150   3.931  10.534  1.1761 -1.4799 -3.9787
  190POPC   C2321895   0.273   4.368  10.844 -0.1404  0.3316 -0.1143
  190POPC   H3R21896   0.262   4.472  10.883  1.6698  0.2607  0.7202
  190POPC   H3S21897   0.186   4.344  10.779 -1.3238  1.6512  0.9119
  190POPC   C2421898   0.402   4.381  10.757  0.6202 -0.2835 -0.0918
  190POPC   H4R21899   0.424   4.281  10.716  1.5092 -0.6622  1.2674
  190POPC   H4S21900   0.482   4.398  10.832 -1.1879 -0.9755  2.1201
  190POPC   C2521901   0.379   4.490  10.652 -0.5910  0.7025 -0.0944
  190POPC   H5R21902   0.474   4.505  10.596 -0.9128 -1.6371 -1.3910
  190POPC   H5S21903   0.346   4.586  10.698 -0.6093  0.5938  0.1164
  190POPC   C2621904   0.286   4.449  10.535  0.4726 -0.2185  0.4154
  190POPC   H6R21905   0.286   4.538  10.469 -0.8750 -0.0793  0.5611
  190POPC   H6S21906   0.182   4.440  10.575  0.0443 -0.0170 -0.6217
  190POPC   C2721907   0.340   4.328  10.458  0.0792 -0.9781  0.0516
  190POPC   H7R21908   0.345   4.227  10.503  0.9141 -1.9039 -1.9761
  190POPC   H7S21909   0.448   4.351  10.448  0.0116 -0.6691  0.0231
  190POPC   C2821910   0.279   4.316  10.316 -0.4245 -0.0200 -0.0299
  190POPC   H8R21911   0.362   4.273  10.256  1.0166  0.6809  1.3746
  190POPC   H8S21912   0.265   4.420  10.280  2.8686  0.4622 -0.2305
  190POPC   C2921913   0.152   4.255  10.324  0.4054  0.3095 -0.5053
  190POPC   H9121914   0.095   4.272  10.416  0.8066 -1.6634  0.1661
  190POPC  C21021915   0.096   4.177  10.227  0.0465  0.5163 -0.2103
  190POPC  H10121916  -0.002   4.134  10.255  0.6427 -0.3898  0.5543
  190POPC  C21121917   0.142   4.127  10.091 -1.1532  0.0397 -0.7886
  190POPC  H11R21918   0.067   4.171  10.022 -0.5279  0.4015 -1.2451
  190POPC  H11S21919   0.128   4.017  10.090  0.4935 -0.2511  1.0662
  190POPC  C21221920   0.275   4.172  10.028  1.0465  0.2908  0.2870
  190POPC  H12R21921   0.361   4.110  10.061  0.8434 -0.9387 -1.3577
  190POPC  H12S21922   0.296   4.280  10.049  4.7140 -0.3360  0.5556
  190POPC  C21321923   0.262   4.158   9.881  1.0244 -0.2324 -0.1671
  190POPC  H13R21924   0.351   4.199   9.829  1.1186 -0.0632  0.1237
  190POPC  H13S21925   0.175   4.215   9.841 -0.6228  0.1828  3.6270
  190POPC  C21421926   0.250   4.014   9.833  0.2174  0.6988 -0.9996
  190POPC  H14R21927   0.190   3.955   9.906  1.0692  0.8543 -0.1468
  190POPC  H14S21928   0.352   3.972   9.845  0.7192  2.1948  0.3526
  190POPC  C21521929   0.196   4.002   9.692  0.4180  0.1246  0.6519
  190POPC  H15R21930   0.110   4.073   9.688  0.6588  0.3872 -0.2862
  190POPC  H15S21931   0.167   3.897   9.669 -1.1704  0.8038 -0.7088
  190POPC  C21621932   0.289   4.058   9.577  0.0456  0.5278  0.4994
  190POPC  H16R21933   0.394   4.027   9.600  0.0241  0.8518  1.0461
  190POPC  H16S21934   0.297   4.168   9.584  3.1508  0.4913 -0.5840
  190POPC  C21721935   0.258   4.012   9.427  0.9639  0.7622 -0.9534
  190POPC  H17R21936   0.307   3.915   9.403  1.6419  0.7423  0.3928
  190POPC  H17S21937   0.286   4.088   9.350  0.1313  2.4438  0.3263
  190POPC  C21821938   0.105   3.989   9.406 -0.4602  0.2696 -0.5832
  190POPC  H18R21939   0.069   3.895   9.453  1.7117 -0.1085  0.4590
  190POPC  H18S21940   0.085   3.984   9.296 -0.8765  1.8597 -0.5974
  190POPC  H18T21941   0.050   4.074   9.451  0.3178  1.3097 -1.5190
  190POPC   C3321942   0.318   3.812  10.477 -0.3678  0.8089 -0.0259
  190POPC   H3X21943   0.244   3.730  10.468 -2.0631  2.1768  0.8441
  190POPC   H3Y21944   0.414   3.787  10.528  1.3343 -0.0630 -3.3738
  190POPC   C3421945   0.353   3.859  10.341 -0.2318 -0.0114  0.3351
  190POPC   H4X21946   0.421   3.946  10.352  1.4276 -0.6841 -3.2358
  190POPC   H4Y21947   0.269   3.896  10.279 -0.3523 -1.1355 -0.1922
  190POPC   C3521948   0.427   3.750  10.257  0.5316 -0.2381 -0.1420
  190POPC   H5X21949   0.386   3.651  10.285 -4.1662  1.5103  0.1654
  190POPC   H5Y21950   0.533   3.746  10.290  0.6809  1.2386 -0.3695
  190POPC   C3621951   0.403   3.776  10.104 -0.3696 -0.3528  0.3203
  190POPC   H6X21952   0.442   3.876  10.073  1.2105 -1.1419 -0.3533
  190POPC   H6Y21953   0.295   3.775  10.082  0.2005  0.9918 -3.1712
  190POPC   C3721954   0.459   3.674  10.008 -0.5150 -0.0628  0.1091
  190POPC   H7X21955   0.414   3.573  10.020  0.2794 -0.6473 -1.5409
  190POPC   H7Y21956   0.567   3.658  10.032 -0.4972 -1.3728 -0.7673
  190POPC   C3821957   0.447   3.715   9.860 -0.3910  0.6177  0.7487
  190POPC   H8X21958   0.499   3.811   9.843  1.6674 -0.8585 -1.8627
  190POPC   H8Y21959   0.342   3.737   9.832 -0.0370  2.0833  0.5169
  190POPC   C3921960   0.511   3.607   9.769 -0.3568  0.2013  0.1659
  190POPC   H9X21961   0.437   3.525   9.769 -0.2400  0.0936 -0.5668
  190POPC   H9Y21962   0.604   3.566   9.814 -0.4235 -0.6822 -0.4827
  190POPC  C31021963   0.536   3.661   9.629  0.1849  0.8064  0.1596
  190POPC  H10X21964   0.589   3.758   9.639  1.3763  0.1854 -0.0012
  190POPC  H10Y21965   0.441   3.679   9.574  1.5058  1.8399 -1.9001
  190POPC  C31121966   0.620   3.566   9.542 -0.1073 -0.4854  1.0894
  190POPC  H11X21967   0.569   3.471   9.515  2.9290 -1.5864 -1.4651
  190POPC  H11Y21968   0.714   3.548   9.598  1.8255  0.2243 -1.6527
  190POPC  C31221969   0.645   3.626   9.402  0.4428  0.6189 -0.2568
  190POPC  H12X21970   0.708   3.717   9.406 -1.1069  1.7046 -0.1034
  190POPC  H12Y21971   0.547   3.659   9.363  0.1886 -0.2176 -0.3495
  190POPC  C31321972   0.690   3.521   9.296 -0.1536  0.3869 -0.0937
  190POPC  H13X21973   0.632   3.428   9.316  0.0229  0.1969 -0.4552
  190POPC  H13Y21974   0.797   3.497   9.316  0.3523  2.0590 -0.6340
  190POPC  C31421975   0.679   3.572   9.159  0.1501 -0.3775 -0.3109
  190POPC  H14X21976   0.741   3.664   9.159 -1.1971  0.5675  0.4625
  190POPC  H14Y21977   0.575   3.599   9.131 -0.2763 -0.5218  1.0411
  190POPC  C31521978   0.722   3.463   9.063  0.0785  0.2894 -0.5079
  190POPC  H15X21979   0.656   3.375   9.077  1.7300 -0.6680  1.9459
  190POPC  H15Y21980   0.824   3.420   9.072  0.0735  0.1905 -0.8964
  190POPC  C31621981   0.704   3.508   8.914 -0.1503  0.4588 -0.4130
  190POPC  H16X21982   0.595   3.501   8.894 -0.3230  0.6732  0.3948
  190POPC  H16Y21983   0.749   3.432   8.848  1.6735 -0.6280  1.9383
  190POPC  H16Z21984   0.723   3.616   8.898 -1.5527  0.6306 -1.0320
  191POPC     N21985   0.194   1.988   6.370  0.1183  0.8026 -0.0902
  191POPC   C1221986   0.044   2.020   6.386 -0.3675 -0.0505 -0.3604
  191POPC  H12A21987   0.011   1.995   6.486 -0.8300  1.5372 -0.0856
  191POPC  H12B21988  -0.014   1.959   6.318 -1.0364 -0.5594  0.6363
  191POPC   C1321989   0.238   2.032   6.237  0.3700 -0.9523  0.5347
  191POPC  H13A21990   0.177   1.988   6.160 -0.8272  1.9963 -0.3569
  191POPC  H13B21991   0.233   2.138   6.219 -0.1862 -1.2631 -1.3564
  191POPC  H13C21992   0.342   2.005   6.227  0.2681 -1.2162  0.1572
  191POPC   C1421993   0.268   2.048   6.477  0.2899  0.1874 -0.0104
  191POPC  H14A21994   0.236   1.988   6.561  2.3144 -0.9540  0.0139
  191POPC  H14B21995   0.372   2.028   6.451 -0.3672 -2.9881 -0.6520
  191POPC  H14C21996   0.236   2.150   6.485 -0.1126  0.1630 -1.1736
  191POPC   C1521997   0.216   1.841   6.374  0.7672  0.6240 -0.2835
  191POPC  H15A21998   0.318   1.809   6.365  0.8637  0.8087  0.1144
  191POPC  H15B21999   0.173   1.790   6.289  0.5137  1.7578 -0.8660
  191POPC  H15C22000   0.166   1.800   6.461 -0.6847  0.0793 -1.3427
  191POPC   C1122001   0.001   2.167   6.357  0.4078 -0.6702 -0.6974
  191POPC  H11A22002  -0.107   2.184   6.337  0.2776  1.5830  1.4390
  191POPC  H11B22003   0.052   2.200   6.264  0.6319  1.9238  0.2728
  191POPC     P22004  -0.015   2.268   6.592  0.6069 -0.2348 -0.4151
  191POPC   O1322005   0.006   2.407   6.656 -0.3662  0.2181 -0.3551
  191POPC   O1422006   0.026   2.147   6.667  0.1400  0.0908  0.3959
  191POPC   O1222007   0.050   2.259   6.454 -0.7338  0.2235  0.0307
  191POPC   O1122008  -0.167   2.270   6.560 -0.0415  0.2555  0.2081
  191POPC    C122009  -0.264   2.209   6.648  0.7021 -0.2523  0.2914
  191POPC    HA22010  -0.240   2.101   6.658  3.8795  0.4094  0.9119
  191POPC    HB22011  -0.363   2.220   6.598  1.6201  1.0574 -1.3393
  191POPC    C222012  -0.290   2.294   6.782 -0.2011  0.4255  0.2130
  191POPC    HS22013  -0.261   2.398   6.759  0.7335  0.6258  2.1307
  191POPC   O2122014  -0.201   2.239   6.887  0.5802 -0.2560 -0.1852
  191POPC   C2122015  -0.185   2.331   6.982 -0.3592 -0.0715  0.4016
  191POPC   O2222016  -0.217   2.447   6.976  0.0624 -0.0606 -0.1989
  191POPC   C2222017  -0.121   2.255   7.098  0.5809 -0.0634  0.3297
  191POPC   H2R22018  -0.032   2.205   7.055  0.8660  0.6638  0.0546
  191POPC   H2S22019  -0.186   2.174   7.138  0.8189 -1.5467 -2.0780
  191POPC    C322020  -0.440   2.288   6.825 -0.2484  0.3041  0.0961
  191POPC    HX22021  -0.515   2.317   6.748  0.6011 -0.6109 -1.1176
  191POPC    HY22022  -0.438   2.362   6.908  0.1884  2.2113 -1.5344
  191POPC   O3122023  -0.476   2.154   6.875 -0.1248  0.1802  0.0854
  191POPC   C3122024  -0.510   2.061   6.789  0.0407  0.1896 -0.1807
  191POPC   O3222025  -0.529   2.060   6.670  0.1384 -0.0875  0.1632
  191POPC   C3222026  -0.546   1.937   6.867  1.0380 -0.2150 -0.2864
  191POPC   H2X22027  -0.644   1.900   6.831  1.2749 -1.1492 -0.0082
  191POPC   H2Y22028  -0.566   1.958   6.975 -0.5604 -1.3259 -0.3333
  191POPC   C2322029  -0.079   2.358   7.208  0.4140 -0.0550 -0.5010
  191POPC   H3R22030  -0.168   2.406   7.254  1.8087  1.4689  0.7744
  191POPC   H3S22031  -0.019   2.437   7.157  0.7588 -1.6268 -2.6647
  191POPC   C2422032   0.026   2.305   7.309  0.6563 -0.9908 -0.4077
  191POPC   H4R22033   0.120   2.272   7.261  2.1951 -0.2162  1.9265
  191POPC   H4S22034  -0.017   2.217   7.362  0.5913 -0.6307  0.1428
  191POPC   C2522035   0.054   2.407   7.420  0.1698 -0.3723  0.3509
  191POPC   H5R22036  -0.041   2.429   7.472 -0.3448 -1.7502  0.0344
  191POPC   H5S22037   0.107   2.500   7.388  1.2247 -1.0271  0.1407
  191POPC   C2622038   0.143   2.343   7.527  0.1739 -0.0577  0.4121
  191POPC   H6R22039   0.235   2.294   7.487  0.2649 -0.0820  0.6494
  191POPC   H6S22040   0.097   2.252   7.571  0.4826  0.4750  1.8867
  191POPC   C2722041   0.165   2.442   7.635  0.2997  0.1300 -0.0050
  191POPC   H7R22042   0.065   2.467   7.678 -0.6720 -0.3872 -1.8309
  191POPC   H7S22043   0.198   2.536   7.586 -0.8140 -0.7143 -2.5240
  191POPC   C2822044   0.244   2.400   7.762 -0.2661  0.0743 -0.4335
  191POPC   H8R22045   0.342   2.371   7.718 -1.4025 -0.6036 -2.6705
  191POPC   H8S22046   0.198   2.308   7.805  2.1138 -1.3645 -0.7576
  191POPC   C2922047   0.252   2.515   7.855  0.5391  1.0949 -0.5414
  191POPC   H9122048   0.301   2.606   7.818  1.1057  1.0299  0.0442
  191POPC  C21022049   0.215   2.518   7.983  0.4488 -0.2583  0.0965
  191POPC  H10122050   0.243   2.618   8.021 -1.0179  0.6766 -1.1469
  191POPC  C21122051   0.157   2.411   8.076  0.7012 -0.5844 -0.1035
  191POPC  H11R22052   0.058   2.375   8.043  0.2185  0.7575 -0.1955
  191POPC  H11S22053   0.147   2.456   8.177 -0.9474 -0.5843 -0.2409
  191POPC  C21222054   0.251   2.280   8.081 -0.6083  0.3846  0.0679
  191POPC  H12R22055   0.355   2.314   8.099  0.1603 -1.5574 -0.4269
  191POPC  H12S22056   0.249   2.233   7.980 -1.0460  2.9553 -1.1890
  191POPC  C21322057   0.212   2.163   8.174  0.1555 -0.2524 -1.0879
  191POPC  H13R22058   0.279   2.074   8.176 -0.3873 -0.7836 -3.1913
  191POPC  H13S22059   0.117   2.125   8.130 -2.3404  2.5192  1.4030
  191POPC  C21422060   0.166   2.218   8.309 -0.4195 -0.1197  0.8978
  191POPC  H14R22061   0.068   2.268   8.295 -0.1827  0.0792 -0.1804
  191POPC  H14S22062   0.242   2.294   8.339 -0.7458  1.5046 -2.0455
  191POPC  C21522063   0.135   2.105   8.405  0.2710  0.3862  0.0271
  191POPC  H15R22064   0.220   2.035   8.414  0.8049  0.9724 -0.3322
  191POPC  H15S22065   0.049   2.046   8.368  2.8569 -3.1692 -0.8186
  191POPC  C21622066   0.114   2.148   8.553 -0.4313  0.1862  0.8039
  191POPC  H16R22067   0.206   2.205   8.578 -0.9677  0.8629  1.2830
  191POPC  H16S22068   0.095   2.063   8.622 -0.5889 -0.6598 -0.2690
  191POPC  C21722069   0.009   2.257   8.582  0.3594 -0.3612  0.3091
  191POPC  H17R22070  -0.085   2.207   8.612 -0.4818  0.8990 -0.1255
  191POPC  H17S22071  -0.023   2.299   8.484  0.4827 -1.0543 -0.0311
  191POPC  C21822072   0.056   2.357   8.686  0.5773 -0.0731 -0.7959
  191POPC  H18R22073   0.140   2.316   8.746  1.5590  1.8826 -0.7513
  191POPC  H18S22074  -0.029   2.389   8.750  0.0005 -2.7619 -0.1055
  191POPC  H18T22075   0.102   2.447   8.640  1.6310  0.0733  0.4982
  191POPC   C3322076  -0.429   1.842   6.864  0.1296  0.3057 -0.2467
  191POPC   H3X22077  -0.373   1.854   6.769  1.7308  3.6175  0.9379
  191POPC   H3Y22078  -0.461   1.737   6.880 -2.5202  1.0933  0.1204
  191POPC   C3422079  -0.325   1.898   6.965 -0.7551  0.5866 -0.8217
  191POPC   H4X22080  -0.351   1.900   7.074  1.9099 -1.5679 -0.0192
  191POPC   H4Y22081  -0.303   2.004   6.944 -0.9658  0.5365 -1.3002
  191POPC   C3522082  -0.190   1.820   6.959  0.6704  0.6767 -0.3747
  191POPC   H5X22083  -0.183   1.794   6.852  3.4973  0.1309 -0.1252
  191POPC   H5Y22084  -0.208   1.721   7.005  1.7859 -0.0832 -1.5408
  191POPC   C3622085  -0.070   1.907   7.005 -0.3155  0.3798 -0.3381
  191POPC   H6X22086  -0.111   1.974   7.084  0.9210 -1.0446  1.6068
  191POPC   H6Y22087  -0.045   1.964   6.913  1.1734 -1.1301 -0.9286
  191POPC   C3722088   0.056   1.825   7.052  0.6379  0.6091  0.5551
  191POPC   H7X22089   0.134   1.894   7.089 -0.0909  1.9128 -0.2328
  191POPC   H7Y22090   0.092   1.785   6.955  1.4041 -0.0220  1.0904
  191POPC   C3822091   0.032   1.711   7.154 -0.1542  0.6811 -0.4357
  191POPC   H8X22092   0.126   1.659   7.183  0.0271  1.8657  1.1882
  191POPC   H8Y22093  -0.038   1.638   7.108  0.8888 -0.8346  0.2942
  191POPC   C3922094  -0.044   1.735   7.282  1.0433 -1.0448 -0.0078
  191POPC   H9X22095  -0.144   1.772   7.250  1.4612 -0.1075 -0.2385
  191POPC   H9Y22096   0.001   1.817   7.341  0.9005 -1.2196  0.3499
  191POPC  C31022097  -0.071   1.613   7.373 -0.3350  0.2769  0.4527
  191POPC  H10X22098   0.030   1.596   7.415 -0.3087 -0.5207  0.0849
  191POPC  H10Y22099  -0.105   1.520   7.322 -0.4766  0.7555 -0.3420
  191POPC  C31122100  -0.171   1.656   7.482  0.1418  0.1556 -0.0923
  191POPC  H11X22101  -0.264   1.702   7.444 -0.4930 -0.9721  0.0401
  191POPC  H11Y22102  -0.107   1.731   7.533  2.7352 -0.4571 -2.1831
  191POPC  C31222103  -0.208   1.560   7.592  0.1665 -0.3036  0.5976
  191POPC  H12X22104  -0.116   1.501   7.609  0.5781 -0.3366 -1.5058
  191POPC  H12Y22105  -0.300   1.508   7.557  0.6732 -0.9613  0.2353
  191POPC  C31322106  -0.241   1.621   7.723  0.6742 -0.3266 -1.0930
  191POPC  H13X22107  -0.340   1.671   7.728 -0.6357 -2.8698  0.9907
  191POPC  H13Y22108  -0.160   1.692   7.751  1.2068 -0.8430 -1.3119
  191POPC  C31422109  -0.220   1.526   7.844 -0.0636  0.6970 -0.4449
  191POPC  H14X22110  -0.112   1.511   7.865 -0.3877  0.5143  1.2657
  191POPC  H14Y22111  -0.270   1.431   7.815 -0.4566  1.0773 -1.0239
  191POPC  C31522112  -0.277   1.589   7.971  0.5058 -0.4465  0.4091
  191POPC  H15X22113  -0.386   1.605   7.954  0.0542 -1.9362  1.6983
  191POPC  H15Y22114  -0.236   1.692   7.971  1.9803 -1.0085  1.1892
  191POPC  C31622115  -0.253   1.510   8.102 -0.2392  0.8579  0.1586
  191POPC  H16X22116  -0.277   1.402   8.094  1.7538  0.4083 -0.2038
  191POPC  H16Y22117  -0.323   1.546   8.181  0.0496  1.5548  0.1086
  191POPC  H16Z22118  -0.148   1.523   8.136  0.7991 -0.5001 -2.2973
  192POPC     N22119   0.831   1.601   6.343 -0.5163 -0.1860 -0.8057
  192POPC   C1222120   0.733   1.594   6.456 -0.4572 -0.0318  0.1617
  192POPC  H12A22121   0.772   1.642   6.544  0.9655 -0.4339 -0.2297
  192POPC  H12B22122   0.721   1.493   6.492 -1.3921  0.7111  2.0689
  192POPC   C1322123   0.965   1.564   6.391 -0.0489 -0.1912 -0.1660
  192POPC  H13A22124   0.988   1.618   6.482  2.0021  2.7108 -2.2395
  192POPC  H13B22125   0.975   1.463   6.430 -1.3099  0.0083  0.7251
  192POPC  H13C22126   1.038   1.597   6.318 -0.0128  0.3968  0.1309
  192POPC   C1422127   0.791   1.525   6.223 -0.3724  0.6462  0.3385
  192POPC  H14A22128   0.695   1.558   6.185 -0.7259 -1.1750 -0.4255
  192POPC  H14B22129   0.864   1.526   6.143 -1.5262 -3.5298 -0.9987
  192POPC  H14C22130   0.778   1.422   6.252  0.7700  0.6784  1.0134
  192POPC   C1522131   0.840   1.751   6.303  0.9480  0.0398 -0.4187
  192POPC  H15A22132   0.743   1.798   6.313  1.4877  1.7668 -2.4408
  192POPC  H15B22133   0.881   1.761   6.204  0.6771 -0.4042 -0.5779
  192POPC  H15C22134   0.905   1.802   6.373 -0.0053 -0.5076  0.8981
  192POPC   C1122135   0.591   1.653   6.443 -0.0070 -0.1367 -0.3850
  192POPC  H11A22136   0.524   1.625   6.527  0.3867  3.2653  1.2470
  192POPC  H11B22137   0.568   1.618   6.340  0.0299  1.0519 -0.8171
  192POPC     P22138   0.619   1.885   6.574 -0.1901 -0.1169  0.0128
  192POPC   O1322139   0.580   2.021   6.545  0.5212  0.5986  0.1980
  192POPC   O1422140   0.758   1.867   6.615  0.2911  0.2186 -0.4209
  192POPC   O1222141   0.590   1.799   6.441 -0.0224  0.2523  0.4605
  192POPC   O1122142   0.513   1.832   6.689  0.3512 -0.4158  0.1155
  192POPC    C122143   0.553   1.741   6.788  1.1170  0.4809 -0.6976
  192POPC    HA22144   0.651   1.691   6.773  0.5013 -1.1552  0.4399
  192POPC    HB22145   0.485   1.654   6.802 -0.4836  1.9014  0.7785
  192POPC    C222146   0.554   1.803   6.933  0.0052 -0.2216  1.4145
  192POPC    HS22147   0.607   1.900   6.926 -1.1062  0.2984 -1.2743
  192POPC   O2122148   0.605   1.708   7.030  0.1509 -0.5181 -0.4685
  192POPC   C2122149   0.728   1.728   7.078  1.1360  0.7298 -0.3201
  192POPC   O2222150   0.803   1.806   7.028 -0.2841 -0.4846 -0.1642
  192POPC   C2222151   0.752   1.633   7.187 -0.4364  0.4868 -1.3193
  192POPC   H2R22152   0.836   1.564   7.163 -1.1195 -1.6975  1.8412
  192POPC   H2S22153   0.663   1.567   7.200  1.4114 -2.0542 -0.9290
  192POPC    C322154   0.400   1.824   6.968 -0.2835 -0.5974  0.7053
  192POPC    HX22155   0.346   1.748   6.908  0.1894  0.1781 -0.7582
  192POPC    HY22156   0.362   1.918   6.923 -0.7806 -1.0928  0.0671
  192POPC   O3122157   0.370   1.812   7.110  0.6247  0.3307 -0.0419
  192POPC   C3122158   0.385   1.916   7.180  0.5191  0.4334 -0.0428
  192POPC   O3222159   0.421   2.026   7.143 -0.6582 -0.1618 -0.0637
  192POPC   C3222160   0.339   1.880   7.328 -0.0614  0.3810 -0.3903
  192POPC   H2X22161   0.230   1.901   7.322 -0.0915  0.1966 -0.5038
  192POPC   H2Y22162   0.379   1.964   7.388 -1.2516  0.1043  0.8354
  192POPC   C2322163   0.782   1.712   7.317  0.9314  0.1114  0.2211
  192POPC   H3R22164   0.705   1.790   7.334  0.7158 -0.5411  2.5738
  192POPC   H3S22165   0.877   1.766   7.297 -0.2001  1.6027 -1.3660
  192POPC   C2422166   0.780   1.622   7.449 -0.1294  0.2852  0.0186
  192POPC   H4R22167   0.853   1.538   7.437 -0.7243  0.0529 -2.6717
  192POPC   H4S22168   0.680   1.575   7.455  0.9037 -2.0103  0.4049
  192POPC   C2522169   0.807   1.697   7.581  0.8199 -0.3162  0.1447
  192POPC   H5R22170   0.736   1.781   7.596  0.7591 -0.7545  2.7152
  192POPC   H5S22171   0.905   1.746   7.564 -1.0274  3.0485 -2.0089
  192POPC   C2622172   0.810   1.610   7.708 -0.4254  0.0501 -0.0157
  192POPC   H6R22173   0.885   1.529   7.696  1.1293  1.1021  1.9565
  192POPC   H6S22174   0.714   1.561   7.736 -0.7167  0.8373  0.3881
  192POPC   C2722175   0.848   1.687   7.837  0.0297 -0.0029 -0.6617
  192POPC   H7R22176   0.785   1.779   7.842  0.4928  0.3107 -0.5190
  192POPC   H7S22177   0.951   1.729   7.834 -0.1254  0.3596 -1.1091
  192POPC   C2822178   0.816   1.602   7.955 -0.8567  0.8419 -0.5749
  192POPC   H8R22179   0.858   1.500   7.947 -1.2394  0.4822  1.5643
  192POPC   H8S22180   0.706   1.592   7.944 -0.5831 -0.5917 -2.7429
  192POPC   C2922181   0.856   1.669   8.086 -0.3305  0.2296 -0.0412
  192POPC   H9122182   0.854   1.779   8.088 -0.8736  0.2256  1.8662
  192POPC  C21022183   0.907   1.603   8.189 -0.1675  0.1430 -0.0238
  192POPC  H10122184   0.936   1.659   8.279 -0.6914 -1.7946  1.4120
  192POPC  C21122185   0.921   1.452   8.208 -0.6108  0.7288  0.2100
  192POPC  H11R22186   0.890   1.396   8.117  0.1866 -1.6376  1.2928
  192POPC  H11S22187   0.852   1.409   8.284 -0.2481 -1.0080 -0.3861
  192POPC  C21222188   1.064   1.407   8.227 -0.6842 -0.3801 -0.4476
  192POPC  H12R22189   1.140   1.486   8.244  2.0062 -2.7172 -0.9635
  192POPC  H12S22190   1.088   1.355   8.132  2.1537  1.1480 -0.6676
  192POPC  C21322191   1.078   1.307   8.345 -0.4509 -0.3479 -0.0114
  192POPC  H13R22192   1.000   1.228   8.333 -1.0884  0.4156 -1.0865
  192POPC  H13S22193   1.077   1.373   8.434  0.7331 -2.0924  1.3531
  192POPC  C21422194   1.208   1.231   8.327 -0.4326 -0.7938 -0.2928
  192POPC  H14R22195   1.289   1.306   8.333 -0.4024 -0.8649  0.1888
  192POPC  H14S22196   1.214   1.170   8.233 -0.6860 -0.7238 -0.3553
  192POPC  C21522197   1.243   1.138   8.450 -0.1923 -0.6185  0.8278
  192POPC  H15R22198   1.334   1.079   8.426 -0.5452  0.0534 -2.7295
  192POPC  H15S22199   1.160   1.066   8.469 -1.9324  1.2225  0.5256
  192POPC  C21622200   1.271   1.222   8.574  0.4685 -0.0196  0.0036
  192POPC  H16R22201   1.177   1.278   8.594  0.0562 -0.9140  0.6751
  192POPC  H16S22202   1.346   1.298   8.544 -1.0181  1.7429  0.6201
  192POPC  C21722203   1.318   1.137   8.690  0.0437 -0.6146 -0.2573
  192POPC  H17R22204   1.260   1.044   8.707 -1.6196  0.7874  2.4500
  192POPC  H17S22205   1.305   1.199   8.781  2.7016  0.4477 -0.5026
  192POPC  C21822206   1.461   1.101   8.678  0.0569  0.2882  0.1757
  192POPC  H18R22207   1.481   1.027   8.758 -1.4119  0.0209  0.3345
  192POPC  H18S22208   1.528   1.189   8.687  0.1365  0.0742  1.9515
  192POPC  H18T22209   1.500   1.049   8.588 -1.6564 -1.8246  0.5474
  192POPC   C3322210   0.378   1.744   7.379  0.2517  0.2293 -0.0168
  192POPC   H3X22211   0.488   1.724   7.380  0.5474  1.3581 -2.3731
  192POPC   H3Y22212   0.322   1.662   7.330 -2.2346  0.2319  2.5377
  192POPC   C3422213   0.326   1.729   7.529  0.8596  0.4233 -0.0304
  192POPC   H4X22214   0.348   1.626   7.564  0.9303  0.2609 -0.5478
  192POPC   H4Y22215   0.216   1.743   7.531  0.8760  1.1205 -2.2075
  192POPC   C3522216   0.398   1.828   7.619  0.6140  0.1063 -0.2782
  192POPC   H5X22217   0.371   1.935   7.607 -0.5056 -0.1458 -0.0913
  192POPC   H5Y22218   0.506   1.815   7.596  0.3315  0.5339 -2.0125
  192POPC   C3622219   0.364   1.807   7.768 -0.3659 -0.0992  0.1481
  192POPC   H6X22220   0.400   1.894   7.826 -1.3003  0.2049  0.2901
  192POPC   H6Y22221   0.406   1.709   7.799  0.9098  0.3714 -0.0510
  192POPC   C3722222   0.216   1.789   7.799  0.4257 -0.3259 -0.0120
  192POPC   H7X22223   0.173   1.692   7.766  0.3141 -0.8668  1.6770
  192POPC   H7Y22224   0.150   1.864   7.750 -0.1103  1.2794  2.9554
  192POPC   C3822225   0.192   1.797   7.946  0.0194 -0.5255 -1.2730
  192POPC   H8X22226   0.190   1.905   7.972 -0.2667 -0.9091  0.4456
  192POPC   H8Y22227   0.273   1.752   8.008  0.2071  3.4982  1.7726
  192POPC   C3922228   0.061   1.731   7.991 -0.0339  0.1998  0.0674
  192POPC   H9X22229   0.072   1.620   7.985 -0.4329 -0.1055  3.2423
  192POPC   H9Y22230  -0.023   1.756   7.923  0.1455  2.4762  0.6183
  192POPC  C31022231   0.025   1.774   8.140  0.0366 -0.1386  0.7359
  192POPC  H10X22232  -0.080   1.754   8.172  0.0699  0.8509  1.5280
  192POPC  H10Y22233   0.036   1.884   8.149 -1.7609  0.2266 -0.9352
  192POPC  C31122234   0.105   1.700   8.252 -0.4576  0.4958  0.3849
  192POPC  H11X22235   0.215   1.711   8.244 -0.3996 -0.4902 -0.3662
  192POPC  H11Y22236   0.089   1.591   8.235 -1.2643  0.5283  0.8581
  192POPC  C31222237   0.063   1.738   8.393  0.1871 -0.0442 -0.0842
  192POPC  H12X22238  -0.043   1.705   8.398  1.0606 -3.3177 -0.9639
  192POPC  H12Y22239   0.077   1.848   8.402  0.9057 -0.1526  0.2117
  192POPC  C31322240   0.149   1.670   8.504  0.0259 -0.5270  0.6171
  192POPC  H13X22241   0.256   1.659   8.476  0.2277 -0.2995  1.2818
  192POPC  H13Y22242   0.112   1.567   8.489  1.3694 -1.0056  0.4236
  192POPC  C31422243   0.130   1.715   8.646  0.1551 -0.1890  0.5570
  192POPC  H14X22244   0.022   1.728   8.668  0.0502  1.9303 -0.9016
  192POPC  H14Y22245   0.164   1.820   8.661 -0.5790 -0.1278  1.9759
  192POPC  C31522246   0.200   1.636   8.756  0.0281 -0.5623  0.8183
  192POPC  H15X22247   0.143   1.645   8.851  0.7193  0.7293  1.1367
  192POPC  H15Y22248   0.297   1.678   8.791  0.6763 -0.5067 -0.9477
  192POPC  C31622249   0.211   1.482   8.727 -0.3175 -0.5526 -0.5523
  192POPC  H16X22250   0.246   1.423   8.814  1.8261 -1.7286 -2.1052
  192POPC  H16Y22251   0.277   1.466   8.639  0.2758 -0.8027 -0.0631
  192POPC  H16Z22252   0.109   1.446   8.700 -0.8985 -2.4336  3.4640
  193SOD    SOD22253   6.060   4.530  12.214 -0.1526 -0.8486  0.2966
  194SOD    SOD22254   4.370   6.601  11.616 -0.4614 -0.1516  0.3525
  195SOD    SOD22255   6.154   4.734   5.869  0.6103  0.0764  0.0934
  196SOD    SOD22256   1.661   4.805   2.658  0.1483  0.2949 -0.6972
  197SOD    SOD22257   6.509   5.774   3.840 -0.3788 -0.4855 -0.1308
  198SOD    SOD22258   4.939   4.695   5.752  0.3826  0.0234  0.3370
  199SOD    SOD22259   5.563   5.717   1.582 -0.1523 -0.1996 -0.0386
  200SOD    SOD22260   4.398   4.340   5.190  0.3726 -0.0595 -0.0426
  201SOD    SOD22261   1.037   4.886  14.417 -0.3688 -0.1080 -0.3489
  202SOD    SOD22262   5.532   1.218   0.751  0.2997 -0.0622 -0.1535
  203SOD    SOD22263   1.007   6.561  11.662 -0.3922 -0.6771  0.1532
  204SOD    SOD22264   1.790   0.210  11.008  0.0039  0.0422 -0.1449
  205SOD    SOD22265   1.223   2.371   1.406  0.0566  0.1096  0.1172
  206SOD    SOD22266   5.321   2.468   2.586 -0.6232  0.0110  0.1373
  207SOD    SOD22267   5.297   0.022   3.878  0.5822 -0.9938  0.2373
  208SOD    SOD22268   1.267   0.371  13.130  0.1415 -0.4090 -0.7695
  209SOD    SOD22269   0.239   3.952   5.230  0.3062 -0.3407 -0.2227
  210SOD    SOD22270   5.548   5.787  15.284 -0.0478  0.4753  0.1175
  211SOD    SOD22271   5.276   3.602   2.440 -0.6018 -0.0223 -0.3122
  212SOD    SOD22272   6.040   2.452   2.203 -0.0377 -0.5679  0.0885
  213SOD    SOD22273   2.165   2.106   2.111 -0.0942  0.5954  0.1095
  214SOD    SOD22274   5.703   0.429  14.262 -0.2009  0.1831 -0.3354
  215SOD    SOD22275   6.540   4.272  11.259  0.2424 -0.1039 -0.0942
  216SOD    SOD22276   1.082   2.777  13.506  0.4675 -0.4496  0.1255
  217SOD    SOD22277   4.307   2.412   6.514 -0.1017 -0.1518  0.3309
  218SOD    SOD22278   0.910   5.553  14.410 -0.2425 -0.0474 -0.1835
  219SOD    SOD22279   0.526   1.091   1.369 -0.0915 -0.0650 -0.1761
  220SOD    SOD22280   2.585   0.878  12.277 -0.3153 -0.1776 -0.0584
  221SOD    SOD22281   4.885   1.491  17.380  0.0439  0.2409 -0.1652
  222SOD    SOD22282   3.150   6.509  14.869 -0.2187 -0.2206  0.1338
  223SOD    SOD22283   5.624   1.321   3.311  0.5066 -0.3073  0.0555
  224SOD    SOD22284   1.891   2.611  11.904 -0.6708  0.2592  0.1018
  225SOD    SOD22285   3.393   3.302   6.406  0.2309 -0.0860  0.2575
  226SOD    SOD22286   5.451   2.707   1.276 -0.0846  0.0086  0.2425
  227SOD    SOD22287   0.185   1.091  15.624 -0.3005  0.0353  0.3308
  228SOD    SOD22288   1.622   3.373  11.147  0.0350  0.4069  0.1246
  229SOD    SOD22289   0.106   1.065   5.191  0.5083  0.2711  0.0031
  230SOD    SOD22290   5.581   2.085  16.130 -0.3631 -0.0602  0.2962
  231SOD    SOD22291   4.829   3.145   6.376 -0.0603  0.1052 -0.1636
  232SOD    SOD22292   6.213   0.219   6.415  0.0300  0.2294 -0.0101
  233SOD    SOD22293   2.484   1.580  14.806 -0.0821 -0.6217  0.5825
  234SOD    SOD22294   2.487   4.279   4.955  0.1407 -0.1824  0.2473
  235SOD    SOD22295   0.579   0.446  17.225  0.4090  0.5138  0.1780
  236SOD    SOD22296   1.116   0.764  11.589 -0.4566 -0.1384  0.2967
  237SOD    SOD22297   0.714   2.456   6.604 -0.3912  0.2738  0.1275
  238SOD    SOD22298   5.360   4.927   0.564 -0.6553 -0.1069 -0.4118
  239SOD    SOD22299   4.478   5.648   0.008 -0.2066  0.3489  0.4466
  240SOD    SOD22300   4.340   0.512   4.212  0.2543  0.5237 -0.1378
  241SOD    SOD22301   6.395   2.682   6.444 -0.1456 -0.2033  0.0000
  242SOD    SOD22302   4.990   4.929   4.344 -0.2575 -0.1368 -0.3350
  243SOD    SOD22303   1.576   5.894   1.565 -0.1305  0.8660 -0.0468
  244SOD    SOD22304   0.206   3.372   5.821  0.3250  0.7806 -0.4745
  245SOD    SOD22305   1.926   0.151   2.718  0.2403  0.3410  0.1465
  246SOD    SOD22306   1.359   4.482  13.358  0.2226 -0.4740  0.3519
  247SOD    SOD22307   2.293   6.268   4.933  0.3613 -0.5244  0.4299
  248SOD    SOD22308   3.772   1.314  11.584  0.1473 -0.6181 -0.0141
  249SOD    SOD22309   1.533   5.734  11.353  0.9532  0.2999 -0.0898
  250SOD    SOD22310   2.886   4.420   3.088  0.0707  0.6689  0.1436
  251SOD    SOD22311   0.823   2.873  14.503 -0.4623  0.0401  0.4119
  252SOD    SOD22312   0.404   5.124  11.541 -0.3653  0.1734  0.1152
  253SOD    SOD22313   5.143   4.061  12.296 -0.0543  0.6492  0.5497
  254SOD    SOD22314   2.142   2.900  15.458  0.3549 -0.1605 -0.1595
  255SOD    SOD22315   3.699   6.033   6.607  0.7323  0.6241 -0.0985
  256SOD    SOD22316   5.280   0.861   1.223 -0.0529  0.1131 -0.2492
  257SOD    SOD22317   3.019   5.280  14.132  0.2239  0.2293 -0.1755
  258SOD    SOD22318   1.672   5.264   4.226 -0.3859 -0.2556 -0.0573
  259SOD    SOD22319   0.523   5.350  16.247 -0.3575 -0.0381  0.4026
  260SOD    SOD22320   0.164   4.802  15.502 -0.0909 -0.2575  0.0397
  261SOD    SOD22321   0.584   5.611   6.578 -0.0771 -0.0208  0.1835
  262SOD    SOD22322   4.441   2.691  11.527 -0.1118  0.1571 -0.3049
  263SOD    SOD22323   3.302   3.432  11.605  0.3119 -0.0008 -0.2107
  264SOD    SOD22324   2.407   2.748  16.379  0.6080 -0.0452 -0.0279
  265SOD    SOD22325   2.801   5.537   5.452 -0.3018 -0.1787 -0.2394
  266SOD    SOD22326   3.534   1.226   2.479 -0.2334  0.0676  0.0526
  267SOD    SOD22327   5.090   3.244  16.144 -0.0045 -0.2866 -0.2050
  268SOD    SOD22328   2.842   3.341   0.575 -0.3154 -0.7767  0.3719
  269SOD    SOD22329   4.925   5.800  16.309 -0.0075  0.0261  0.2326
  270CLA    CLA22330   5.963   6.350  15.028 -0.2243 -0.0770  0.0597
  271CLA    CLA22331   3.011   4.794   3.741  0.0314 -0.3981 -0.0665
  272CLA    CLA22332   2.606   4.721  12.630  0.1506 -0.0171  0.2852
  273CLA    CLA22333   0.059   0.985   4.945  0.0664 -0.5764  0.0128
  274CLA    CLA22334   5.024   0.943   1.294  0.3867  0.0886  0.1291
  275CLA    CLA22335   5.805   1.080  17.380 -0.0639 -0.0532  0.6193
  276CLA    CLA22336   0.661   6.368  16.070  0.2436 -0.1213  0.2547
  277CLA    CLA22337   2.440   0.797  16.160  0.0838 -0.1142  0.2094
  278CLA    CLA22338   6.089   3.507   3.457  0.4793 -0.1782  0.0164
  279CLA    CLA22339   6.471   5.269  16.182 -0.3336  0.2018  0.2830
  280CLA    CLA22340   2.425   1.702  15.718  0.2991 -0.0082 -0.1141
  281CLA    CLA22341   4.010   4.511  14.731  0.0105 -0.2362  0.2152
  282CLA    CLA22342   2.839   1.148   0.172  0.0898 -0.2366  0.2036
  283CLA    CLA22343   5.570   3.090   6.277 -0.0290  0.1977  0.0223
  284CLA    CLA22344   1.238   0.846  13.673  0.1327 -0.2605  0.1826
  285CLA    CLA22345   4.650   3.360  14.696  0.2587  0.1213 -0.2580
  286CLA    CLA22346   5.524   1.529   1.158  0.0497  0.0994  0.4185
  287CLA    CLA22347   0.715   3.499   0.699  0.6114 -0.0931 -0.1944
  288CLA    CLA22348   4.416   4.970  17.015  0.1975  0.0475  0.0064
  289CLA    CLA22349   2.064   4.189   2.117 -0.1257  0.0874 -0.4936
  290CLA    CLA22350   5.266   1.830  16.864 -0.5736  0.4856 -0.1703
  291CLA    CLA22351   2.410   2.525  11.645 -0.3919 -0.2781  0.0517
  292CLA    CLA22352   5.038   5.138  16.858  0.2496  0.1904  0.0031
  293CLA    CLA22353   4.025   0.584  14.094 -0.3732  0.3961  0.3262
  294CLA    CLA22354   6.364   6.222   2.659 -0.0857  0.0989 -0.3836
  295CLA    CLA22355   3.909   5.336  13.255 -0.4583 -0.1280  0.2981
  296CLA    CLA22356   1.090   1.734  14.635  0.0701 -0.0953 -0.2835
  297CLA    CLA22357   0.209   1.520   4.717 -0.1017  0.7507  0.4302
  298CLA    CLA22358   5.952   4.771   2.742  0.1713 -0.0699 -0.1463
  299CLA    CLA22359   4.084   3.781  16.575  0.1200  0.0085  0.1265
  300CLA    CLA22360   3.135   5.068  14.271 -0.3043 -0.3324 -0.4285
  301CLA    CLA22361   4.302   3.816   2.971  0.5639  0.1385  0.3074
  302CLA    CLA22362   1.484   5.005  14.311  0.1356 -0.0440  0.1999
  303CLA    CLA22363   3.543   4.888  17.309  0.2026 -0.0265 -0.0078
  304CLA    CLA22364   1.634   0.080  14.545  0.2185  0.0618  0.6151
  305CLA    CLA22365   6.194   0.845   2.020 -0.0489  0.2939  0.0786
  306CLA    CLA22366   3.316   5.604   5.927 -0.0047  0.4183 -0.2365
  307CLA    CLA22367   2.612   0.431   4.541  0.1198 -0.2838  0.5436
  308CLA    CLA22368   5.507   1.634  17.601 -0.3737  0.2752  0.5043
  309CLA    CLA22369   2.308   4.504   1.942  0.1321 -0.0202 -0.1278
  310CLA    CLA22370   5.608   3.272   2.527 -0.0741 -0.1587  0.2571
  311CLA    CLA22371   3.793   3.305  13.245 -0.2220  0.2163 -0.0178
  312CLA    CLA22372   0.650   5.169  16.964  0.0519 -0.1043 -0.1806
  313CLA    CLA22373   6.597   6.165   5.794  0.2517  0.0980  0.2059
  314CLA    CLA22374   0.330   0.302  16.348 -0.0760 -0.0832  0.3261
  315CLA    CLA22375   4.418   0.403   2.717 -0.1533 -0.1333  0.2511
  316CLA    CLA22376   3.403   0.778   2.289 -0.2532  0.2621 -0.1502
  317CLA    CLA22377   0.146   4.492  13.028  0.4471 -0.0036  0.1205
  318CLA    CLA22378   5.919   2.832  12.826 -0.1466  0.2673 -0.0133
  319CLA    CLA22379   3.989   2.579   4.215  0.1080  0.1814 -0.6109
  320CLA    CLA22380   5.494   3.890   1.071  0.3298  0.1922  0.3176
  321CLA    CLA22381   1.298   5.397   4.507 -0.1631 -0.2926  0.2942
  322CLA    CLA22382   0.074   2.545   3.861 -0.1233 -0.1710 -0.1753
  323TIP3   OH222383   5.880   1.541  13.892  0.5031 -0.3609 -0.1760
  323TIP3    H122384   5.925   1.534  13.808  0.0847 -0.6188 -0.3807
  323TIP3    H222385   5.881   1.635  13.913 -1.7672  0.1113 -1.7931
  324TIP3   OH222386   6.210   6.275  15.599  0.2512  0.4802  0.0546
  324TIP3    H122387   6.236   6.367  15.600 -1.4494  0.9918 -0.5516
  324TIP3    H222388   6.175   6.259  15.687  1.0189  0.2277  0.3348
  325TIP3   OH222389   0.534   1.111  14.186  0.3084 -0.0679 -0.0363
  325TIP3    H122390   0.490   1.106  14.271  2.3907 -1.7118  1.0441
  325TIP3    H222391   0.464   1.102  14.122 -1.2969  0.9173  1.4655
  326TIP3   OH222392   2.285   4.947   2.761  1.0334  0.3737  0.1155
  326TIP3    H122393   2.238   4.898   2.694  1.4013  1.0120 -0.6208
  326TIP3    H222394   2.216   4.991   2.811  0.7488 -0.2379  0.2667
  327TIP3   OH222395   4.005   5.297  14.837 -0.1479 -0.2999 -0.0726
  327TIP3    H122396   4.063   5.330  14.906  0.0077  2.2251 -1.2962
  327TIP3    H222397   3.924   5.347  14.848 -0.7445 -1.1083 -0.6646
  328TIP3   OH222398   5.929   1.322   4.439 -0.1787 -0.0468  0.5896
  328TIP3    H122399   5.967   1.238   4.467  0.1143  0.5280  1.9775
  328TIP3    H222400   5.988   1.353   4.370 -1.1043 -1.6559 -1.0141
  329TIP3   OH222401   1.179   3.413   4.195 -0.1283 -0.2516  0.1174
  329TIP3    H122402   1.110   3.351   4.218  0.2793  0.2694  3.0905
  329TIP3    H222403   1.215   3.442   4.279  1.3639  2.1452 -1.2314
  330TIP3   OH222404   0.928   4.021   1.884  1.0741  0.5951  0.7396
  330TIP3    H122405   0.845   4.059   1.854 -0.4089 -2.4861  0.4951
  330TIP3    H222406   0.993   4.090   1.871 -0.7637  1.9090 -2.6860
  331TIP3   OH222407   4.547   5.269   5.545 -0.4084  0.1568 -0.2304
  331TIP3    H122408   4.618   5.205   5.549 -0.6131 -0.0270  1.0406
  331TIP3    H222409   4.591   5.352   5.526 -0.1147 -0.2879 -1.6363
  332TIP3   OH222410   3.188   1.310  15.367 -0.1960  0.3069 -0.6782
  332TIP3    H122411   3.210   1.286  15.277  1.8468 -0.2248 -0.0988
  332TIP3    H222412   3.220   1.400  15.376  0.6443 -0.0325 -0.1773
  333TIP3   OH222413   3.116   3.778   0.524  0.2401 -0.5135  0.0630
  333TIP3    H122414   3.133   3.872   0.520 -0.1466 -0.4415  0.0907
  333TIP3    H222415   3.189   3.743   0.575 -0.4155 -0.0167  1.4008
  334TIP3   OH222416   5.044   2.899   0.732 -0.0781  0.2252 -0.0500
  334TIP3    H122417   4.984   2.935   0.797  0.3159 -1.5625  1.3978
  334TIP3    H222418   5.131   2.924   0.763  0.0388  1.1441 -1.0707
  335TIP3   OH222419   0.419   6.636  14.689 -0.0588  0.3560 -0.1639
  335TIP3    H122420   0.338   6.686  14.705  0.8476  1.4503  1.2273
  335TIP3    H222421   0.436   6.650  14.596 -0.0219  2.4368  0.0971
  336TIP3   OH222422   0.888   3.812  11.041  0.3000 -0.6199 -0.0987
  336TIP3    H122423   0.876   3.722  11.010 -0.1806 -0.4477 -0.4281
  336TIP3    H222424   0.915   3.802  11.132 -1.2676 -1.0733  0.3389
  337TIP3   OH222425   1.395   6.077  15.839  0.5031 -0.2967 -0.3188
  337TIP3    H122426   1.487   6.085  15.812  0.0668 -0.4607 -1.9404
  337TIP3    H222427   1.347   6.065  15.757 -1.2938  2.5105  0.1995
  338TIP3   OH222428   1.892   3.904   5.277  0.2442 -0.4162 -0.8331
  338TIP3    H122429   1.833   3.975   5.302  0.8466  0.2393 -1.2375
  338TIP3    H222430   1.837   3.825   5.277 -1.0153  0.3832 -2.6545
  339TIP3   OH222431   5.501   5.257   0.907 -0.0851 -0.7004 -0.2348
  339TIP3    H122432   5.480   5.309   0.829 -1.5385  0.3279  0.7974
  339TIP3    H222433   5.464   5.171   0.888 -1.6004 -0.0978 -0.1913
  340TIP3   OH222434   2.846   4.699   6.109  1.0758 -0.0728 -0.2677
  340TIP3    H122435   2.757   4.728   6.126  0.6986 -1.1528 -0.3164
  340TIP3    H222436   2.894   4.719   6.189  0.7846  0.4476 -0.2162
  341TIP3   OH222437   5.345   3.253   2.388 -0.0899 -0.4881 -0.5210
  341TIP3    H122438   5.426   3.251   2.439 -1.5011  0.0301  1.8579
  341TIP3    H222439   5.277   3.227   2.449 -1.8852  0.1552 -2.1545
  342TIP3   OH222440   2.444   6.655   2.055  0.1304  0.4525 -0.2192
  342TIP3    H122441   2.370   6.692   2.103 -0.0395 -0.9791  0.6667
  342TIP3    H222442   2.414   6.568   2.027  1.8959 -0.7376  1.3508
  343TIP3   OH222443   2.648   0.617   2.268  0.0571  0.0875 -0.0861
  343TIP3    H122444   2.658   0.700   2.221  1.0521 -0.5564 -1.0633
  343TIP3    H222445   2.579   0.571   2.220 -1.5030  0.8761  1.2922
  344TIP3   OH222446   5.119   1.914   5.135  0.0935  0.0585  0.5630
  344TIP3    H122447   5.079   1.830   5.157  0.9012 -0.6106 -0.4443
  344TIP3    H222448   5.047   1.977   5.139 -0.7266 -0.8527  0.3383
  345TIP3   OH222449   4.454   6.223  16.595  0.4282 -0.1041  0.1050
  345TIP3    H122450   4.473   6.257  16.507 -2.1223  0.3984 -0.3637
  345TIP3    H222451   4.396   6.148  16.579  1.2996 -1.0602  1.3331
  346TIP3   OH222452   1.766   0.460  15.261 -0.5053 -0.0513  0.2326
  346TIP3    H122453   1.794   0.524  15.196 -0.2749 -0.8535 -0.4737
  346TIP3    H222454   1.678   0.435  15.234 -0.3644 -0.4738  0.1536
  347TIP3   OH222455   6.518   1.231  13.011  0.0929  0.0715 -0.2061
  347TIP3    H122456   6.489   1.246  12.922 -0.5334  1.7403  0.2463
  347TIP3    H222457   6.438   1.208  13.059  0.2741  0.0910  0.1105
  348TIP3   OH222458   2.987   1.422   1.572 -0.0748  0.5452 -0.4226
  348TIP3    H122459   3.008   1.426   1.479  0.1101  0.3622 -0.3891
  348TIP3    H222460   2.963   1.330   1.587 -0.9318  0.7572 -0.4666
  349TIP3   OH222461   1.158   4.395   0.259 -0.1080  0.2926  0.0543
  349TIP3    H122462   1.107   4.344   0.196  2.2837 -0.7409 -1.1750
  349TIP3    H222463   1.123   4.484   0.251 -1.8962 -0.4101 -0.4844
  350TIP3   OH222464   3.008   0.330  13.973  0.3324 -0.8311 -0.5342
  350TIP3    H122465   3.102   0.315  13.960  0.1858 -1.5205 -0.8268
  350TIP3    H222466   2.980   0.374  13.893  0.4766 -0.2945 -0.2910
  351TIP3   OH222467   0.642   0.131   1.602  0.7668  0.8095  0.0218
  351TIP3    H122468   0.727   0.090   1.614  0.0245 -0.5012  1.0979
  351TIP3    H222469   0.579   0.063   1.625 -0.5521  2.0497  0.2476
  352TIP3   OH222470   3.439   6.134  16.929  0.2938  0.1952 -0.1859
  352TIP3    H122471   3.398   6.087  17.002 -1.3697 -1.2335 -1.9374
  352TIP3    H222472   3.483   6.066  16.879  1.1656  1.1196 -0.7096
  353TIP3   OH222473   1.454   5.238   3.795 -0.0937 -0.4976 -0.0490
  353TIP3    H122474   1.408   5.155   3.806 -0.0384 -0.5100  0.0993
  353TIP3    H222475   1.511   5.225   3.719 -1.7788  0.1646 -1.4989
  354TIP3   OH222476   1.539   1.578  16.678  0.4177 -0.1110  0.2567
  354TIP3    H122477   1.531   1.640  16.606  1.4264 -0.6683 -0.3707
  354TIP3    H222478   1.499   1.498  16.645  1.0073 -0.4089  0.2488
  355TIP3   OH222479   3.545   4.451  17.451 -0.6634 -0.1080  0.0594
  355TIP3    H122480   3.528   4.495  17.535 -1.3424 -0.5870  0.1805
  355TIP3    H222481   3.641   4.449  17.444 -0.6111  0.5536  0.4942
  356TIP3   OH222482   6.058   4.813  17.361  0.4529 -0.1264  0.0831
  356TIP3    H122483   6.102   4.888  17.401 -1.9909  1.1122  0.6543
  356TIP3    H222484   6.009   4.850  17.287  1.0744 -1.5884 -1.1100
  357TIP3   OH222485   4.448   3.198  12.777 -0.1226  0.3162 -0.0173
  357TIP3    H122486   4.423   3.106  12.793  0.1948  0.0859 -0.8016
  357TIP3    H222487   4.459   3.203  12.682 -0.2346  1.1976  0.0152
  358TIP3   OH222488   3.361   6.630  14.219  0.1710  0.4864 -0.3990
  358TIP3    H122489   3.297   6.697  14.196  0.4162  1.2918  1.1643
  358TIP3    H222490   3.446   6.673  14.209  0.3369  0.3706  0.4407
  359TIP3   OH222491   3.892   1.530   5.004 -0.0272  0.5499 -0.0264
  359TIP3    H122492   3.850   1.446   4.985  1.1622 -0.4635  1.5855
  359TIP3    H222493   3.940   1.551   4.924 -0.8054  0.0068 -0.6623
  360TIP3   OH222494   5.710   1.898   1.835 -0.4426  0.0550  0.3012
  360TIP3    H122495   5.647   1.878   1.766 -1.0817 -0.5940  1.0638
  360TIP3    H222496   5.795   1.873   1.798 -0.9152 -1.4663  0.2069
  361TIP3   OH222497   3.211   3.564  15.651  0.0805 -0.0682 -0.2262
  361TIP3    H122498   3.288   3.620  15.641 -1.3004  1.7746 -1.0552
  361TIP3    H222499   3.246   3.479  15.678  2.4949  0.3255 -1.8603
  362TIP3   OH222500   3.871   3.410   4.478 -0.0696 -0.1176 -0.3820
  362TIP3    H122501   3.813   3.335   4.462  0.8281 -0.7270 -0.8647
  362TIP3    H222502   3.936   3.377   4.540  0.4589  0.1931 -0.7639
  363TIP3   OH222503   4.712   1.006   0.414  0.0308  0.1927 -0.0916
  363TIP3    H122504   4.675   0.971   0.333  0.4343  1.0811 -0.6761
  363TIP3    H222505   4.725   1.099   0.396  0.6350  0.2902  0.8019
  364TIP3   OH222506   5.148   6.208  17.032 -0.4960  0.3825 -0.2928
  364TIP3    H122507   5.133   6.284  16.975  2.0881  0.1601 -1.3697
  364TIP3    H222508   5.198   6.147  16.979  1.0342 -0.3264  1.8459
  365TIP3   OH222509   5.383   0.180  16.686 -0.3539  0.5448 -0.7516
  365TIP3    H122510   5.375   0.240  16.612  1.2546 -0.2398 -1.6247
  365TIP3    H222511   5.310   0.119  16.675  0.0626  0.2284 -1.9324
  366TIP3   OH222512   0.621   2.859   1.962  0.3464  0.6478  0.2189
  366TIP3    H122513   0.615   2.835   1.870  1.9462  1.8992 -0.2657
  366TIP3    H222514   0.629   2.775   2.008 -0.7398 -0.0057 -0.7300
  367TIP3   OH222515   6.450   2.646  13.687 -0.2769  0.3316 -0.0071
  367TIP3    H122516   6.419   2.608  13.769 -1.2810  0.0822 -0.4803
  367TIP3    H222517   6.408   2.732  13.683 -1.2875 -0.1701 -0.8453
  368TIP3   OH222518   3.487   4.311   0.857  0.7630  0.0808  0.3358
  368TIP3    H122519   3.453   4.400   0.849  2.2376  0.7445  1.0114
  368TIP3    H222520   3.571   4.322   0.902  1.9008 -1.4452 -1.3118
  369TIP3   OH222521   1.686   6.035  13.054 -0.3114  0.6964  0.2473
  369TIP3    H122522   1.675   6.115  13.002 -0.5852  0.4824 -0.0302
  369TIP3    H222523   1.684   5.964  12.990 -1.9805  0.3317  0.6559
  370TIP3   OH222524   0.369   6.387   1.943 -0.2614  0.0853 -0.0511
  370TIP3    H122525   0.335   6.446   1.876  2.7420  2.4667  0.2683
  370TIP3    H222526   0.383   6.444   2.019  0.8631 -1.4894  0.9757
  371TIP3   OH222527   1.496   1.290  15.958 -0.3952 -0.1923  0.2639
  371TIP3    H122528   1.520   1.230  15.887  0.7449 -0.2270  0.6546
  371TIP3    H222529   1.423   1.247  16.002 -0.7169 -0.4609 -0.5211
  372TIP3   OH222530   5.745   1.810  16.900 -0.7819  0.2688 -0.7922
  372TIP3    H122531   5.786   1.896  16.903 -0.3859  0.0652 -0.2871
  372TIP3    H222532   5.658   1.823  16.938 -0.7379  0.4575 -0.7560
  373TIP3   OH222533   6.339   5.908  14.940 -0.1996  0.4539 -0.7231
  373TIP3    H122534   6.365   5.939  15.027 -1.4402  1.8480 -0.8051
  373TIP3    H222535   6.244   5.893  14.948 -0.4924  1.4632 -2.0644
  374TIP3   OH222536   1.610   4.077  16.888  0.0860  0.1763 -0.5423
  374TIP3    H122537   1.624   4.129  16.967  0.4616  0.0062 -0.4929
  374TIP3    H222538   1.595   3.988  16.920  1.7846 -0.2133 -0.6984
  375TIP3   OH222539   4.452   6.650   2.859  0.0759 -0.0324 -0.8221
  375TIP3    H122540   4.403   6.731   2.867  1.8399  1.1632 -1.6445
  375TIP3    H222541   4.471   6.642   2.765 -2.0401 -2.6534 -1.1610
  376TIP3   OH222542   1.149   3.106   6.233  0.3699 -0.2285  0.0224
  376TIP3    H122543   1.117   3.196   6.239  1.6152  0.1460  1.4807
  376TIP3    H222544   1.070   3.053   6.221 -0.8944  0.6566  3.4109
  377TIP3   OH222545   4.156   3.052   3.946  0.3478 -0.5187  0.4738
  377TIP3    H122546   4.090   2.991   3.913 -0.0648  0.6958 -1.0828
  377TIP3    H222547   4.107   3.130   3.968  0.9492 -0.5141  1.8656
  378TIP3   OH222548   5.870   3.085   1.463  0.4000  0.0017 -0.0435
  378TIP3    H122549   5.872   3.128   1.378 -0.4071 -1.0494 -0.6214
  378TIP3    H222550   5.957   3.046   1.473  0.3586 -0.2450 -0.6025
  379TIP3   OH222551   2.592   5.317   6.157 -0.3755 -0.8054  0.2571
  379TIP3    H122552   2.547   5.397   6.129  0.3155 -0.8665 -1.0905
  379TIP3    H222553   2.527   5.271   6.212 -0.6207  0.8561  1.4218
  380TIP3   OH222554   5.893   1.200  14.521 -0.1000 -0.1808  0.1714
  380TIP3    H122555   5.878   1.292  14.501 -0.6644 -0.5706 -1.3236
  380TIP3    H222556   5.975   1.178  14.477 -1.1325 -0.9394 -1.4748
  381TIP3   OH222557   6.419   0.912   1.771  0.1682 -0.5673  0.7343
  381TIP3    H122558   6.359   0.983   1.796  0.7712  0.0760  0.4027
  381TIP3    H222559   6.461   0.885   1.853  0.6724  0.1596  0.7269
  382TIP3   OH222560   2.699   6.153  13.865 -0.1104  0.4102  0.5190
  382TIP3    H122561   2.713   6.166  13.959  0.1043  0.5414  0.4714
  382TIP3    H222562   2.758   6.080  13.842 -0.3174  0.2406  0.5272
  383TIP3   OH222563   4.740   5.246   3.114  0.2763 -0.8470  0.3097
  383TIP3    H122564   4.747   5.235   3.209 -0.0280 -1.1364  0.3005
  383TIP3    H222565   4.819   5.205   3.079 -0.8623 -3.1707  0.2729
  384TIP3   OH222566   0.904   0.075   3.211  0.3923  0.2280  0.2338
  384TIP3    H122567   0.987   0.099   3.252  0.6459  0.5718 -0.4824
  384TIP3    H222568   0.884  -0.012   3.248  1.4893 -0.2362 -0.2316
  385TIP3   OH222569   0.374   6.691  17.136 -0.1563 -0.1129  0.0078
  385TIP3    H122570   0.467   6.714  17.130 -0.5128  1.0780 -2.0010
  385TIP3    H222571   0.373   6.596  17.145  1.2613 -0.2896 -1.2418
  386TIP3   OH222572   2.831   4.141  17.067  0.5032  0.0774  0.1525
  386TIP3    H122573   2.881   4.097  16.998 -2.9280 -0.9279 -1.9763
  386TIP3    H222574   2.843   4.087  17.144  0.3751 -1.8384 -1.1015
  387TIP3   OH222575   6.435   3.113   6.003  0.0146 -0.1525 -0.2998
  387TIP3    H122576   6.485   3.190   6.031 -0.5861  0.8673 -1.8818
  387TIP3    H222577   6.350   3.124   6.046  0.8426 -1.5392  1.8537
  388TIP3   OH222578   0.248   4.025   4.017  0.0498 -0.0074 -0.8771
  388TIP3    H122579   0.184   4.016   3.946  0.5783  0.0432 -1.3627
  388TIP3    H222580   0.307   4.094   3.988  0.2368  0.0588 -0.3535
  389TIP3   OH222581   6.390   6.290  10.743  0.6691  0.3766  0.2069
  389TIP3    H122582   6.323   6.358  10.733  0.7833  0.3569 -0.7799
  389TIP3    H222583   6.344   6.216  10.781  0.3803  0.7494  0.5968
  390TIP3   OH222584   1.098   5.774   0.935 -0.2601  0.0527 -0.3931
  390TIP3    H122585   1.041   5.747   0.863  0.6164 -1.7658 -0.4654
  390TIP3    H222586   1.180   5.728   0.919  0.4345  0.7401  1.0067
  391TIP3   OH222587   6.238   6.441  16.622  0.3008 -0.4169 -0.1445
  391TIP3    H122588   6.244   6.429  16.717 -2.0930  0.6880  0.2148
  391TIP3    H222589   6.261   6.355  16.587 -0.8875 -1.5005  1.5571
  392TIP3   OH222590   0.024   1.828   2.479  0.1223  0.6565 -0.2312
  392TIP3    H122591  -0.051   1.884   2.461 -0.3672  0.0285 -0.1770
  392TIP3    H222592   0.020   1.812   2.574  0.6319  1.0587 -0.1417
  393TIP3   OH222593   6.123   1.184  12.784  0.0860  0.1442 -0.3658
  393TIP3    H122594   6.216   1.165  12.773 -0.0284 -0.3571 -0.4803
  393TIP3    H222595   6.110   1.267  12.739  0.4139  0.0509 -0.6397
  394TIP3   OH222596   1.629   6.207   6.620 -0.0389  0.3680 -0.0462
  394TIP3    H122597   1.593   6.266   6.686  2.4690 -0.8187  2.6420
  394TIP3    H222598   1.679   6.263   6.561 -0.1479  1.2576  0.6872
  395TIP3   OH222599   3.997   5.678   0.153 -0.1539 -0.5563 -0.8516
  395TIP3    H122600   3.938   5.719   0.090 -0.3613 -0.0277 -0.3186
  395TIP3    H222601   4.007   5.588   0.121 -1.8317 -0.8823 -0.5567
  396TIP3   OH222602   2.482   0.121  14.644  0.1071 -0.7445 -0.1168
  396TIP3    H122603   2.425   0.044  14.654 -0.6573 -0.0794  0.8884
  396TIP3    H222604   2.545   0.114  14.716  0.0077 -0.4126  0.0053
  397TIP3   OH222605   6.229   1.101   5.731  0.1420  0.5892 -0.3379
  397TIP3    H122606   6.149   1.123   5.780  0.3465 -0.1993  0.3843
  397TIP3    H222607   6.198   1.046   5.659 -0.0256  0.7084 -0.3583
  398TIP3   OH222608   4.918   2.133  15.089  0.3634 -0.1635 -0.5098
  398TIP3    H122609   4.829   2.130  15.054  0.2357 -0.0841 -0.1871
  398TIP3    H222610   4.911   2.183  15.170  0.0329 -3.2604  1.5262
  399TIP3   OH222611   4.677   4.844  16.208  0.2515  0.0465 -0.4568
  399TIP3    H122612   4.738   4.798  16.151  0.7698  0.8654 -0.5812
  399TIP3    H222613   4.693   4.807  16.295  0.5922 -0.0779 -0.5716
  400TIP3   OH222614   5.842   2.215  17.089 -0.2291  0.0367 -0.6283
  400TIP3    H122615   5.931   2.221  17.125 -0.2223 -0.1447 -0.6118
  400TIP3    H222616   5.785   2.241  17.161 -0.2165 -0.3366 -0.4804
  401TIP3   OH222617   1.207   1.250  12.694 -0.0163 -0.3515 -0.0850
  401TIP3    H122618   1.272   1.209  12.752 -1.7083 -0.7499  1.6242
  401TIP3    H222619   1.164   1.176  12.650  1.8772 -0.0358 -2.7179
  402TIP3   OH222620   4.709   3.798   0.174  0.4214 -0.1872 -0.0710
  402TIP3    H122621   4.705   3.754   0.259 -1.1770 -1.8639 -0.9503
  402TIP3    H222622   4.668   3.883   0.190 -0.9883 -0.9477  0.6281
  403TIP3   OH222623   3.151   2.429   3.770 -0.3437 -0.4934  0.5059
  403TIP3    H122624   3.092   2.423   3.846 -1.3150  0.7875 -0.1220
  403TIP3    H222625   3.212   2.499   3.793 -0.8316  0.1099 -0.0048
  404TIP3   OH222626   2.569   1.016   5.542  0.5633 -0.1492  0.4257
  404TIP3    H122627   2.488   1.066   5.531  1.2069  0.9542  0.4372
  404TIP3    H222628   2.634   1.065   5.492  1.0474 -1.5011 -0.3008
  405TIP3   OH222629   1.648   5.513  14.926  0.3594 -0.6711 -0.1233
  405TIP3    H122630   1.555   5.506  14.903  0.3702 -0.6583 -0.1703
  405TIP3    H222631   1.648   5.517  15.022  0.2907 -0.3828 -0.1320
  406TIP3   OH222632   2.823   0.982   2.547  0.3225 -0.0447 -0.0141
  406TIP3    H122633   2.905   0.946   2.513  0.9828  0.8743  0.5476
  406TIP3    H222634   2.851   1.049   2.609 -0.8517 -0.7725  1.3472
  407TIP3   OH222635   3.149   3.986   4.153  0.1048  0.4689 -0.0281
  407TIP3    H122636   3.206   4.033   4.092 -0.2892 -0.0490 -0.8131
  407TIP3    H222637   3.130   3.903   4.110  1.5723 -0.8794  1.7407
  408TIP3   OH222638   4.961   5.962   1.487 -0.2607  0.2999 -0.4717
  408TIP3    H122639   4.876   5.924   1.468  0.4069 -1.2447 -0.4958
  408TIP3    H222640   4.982   5.931   1.575 -0.3099  1.8177  0.1134
  409TIP3   OH222641   3.167   0.098  11.099  0.1671  0.0707  0.0496
  409TIP3    H122642   3.209   0.133  11.177  0.8322  0.9568 -0.6886
  409TIP3    H222643   3.239   0.078  11.039 -0.3565 -0.1442 -0.5267
  410TIP3   OH222644   1.209   2.948   2.981 -0.3340 -0.1888  0.6225
  410TIP3    H122645   1.157   3.028   2.978  1.9041  1.5364  2.9080
  410TIP3    H222646   1.211   2.924   3.074  1.8349 -0.9018  0.4545
  411TIP3   OH222647   5.670   1.342  15.634 -0.2518  1.0905  0.0636
  411TIP3    H122648   5.652   1.423  15.587  0.0468  0.3584 -1.3571
  411TIP3    H222649   5.715   1.287  15.571 -0.1119 -0.0538  1.1238
  412TIP3   OH222650   4.535   1.053   2.250  0.3413 -0.1614 -0.0993
  412TIP3    H122651   4.499   0.978   2.203  0.2046 -0.4375  0.4411
  412TIP3    H222652   4.589   1.014   2.319  0.0374  0.2371  0.3634
  413TIP3   OH222653   1.631   0.409   2.189  0.2753  0.4397 -0.2711
  413TIP3    H122654   1.639   0.320   2.153 -1.0488  0.8081 -1.5453
  413TIP3    H222655   1.549   0.442   2.154 -0.0307  1.6332  1.4452
  414TIP3   OH222656   5.324   6.035   1.083  0.2992 -0.3724 -0.1256
  414TIP3    H122657   5.317   5.940   1.087 -0.4290 -0.2915  1.0013
  414TIP3    H222658   5.412   6.052   1.049  0.4525 -1.4367 -0.2826
  415TIP3   OH222659   1.902   0.546  14.355 -0.1780 -0.0731  0.2026
  415TIP3    H122660   1.898   0.557  14.260  0.4423  2.0253  0.3798
  415TIP3    H222661   1.966   0.476  14.368 -1.1769 -1.2703 -0.9244
  416TIP3   OH222662   0.662   6.673   2.827 -0.1639  0.2950  0.4592
  416TIP3    H122663   0.698   6.703   2.744 -1.6122  0.9554  0.0203
  416TIP3    H222664   0.567   6.674   2.813 -0.4186 -3.8067  0.6686
  417TIP3   OH222665   4.289   0.689   2.231  0.0421  0.8725  0.4696
  417TIP3    H122666   4.292   0.608   2.283  0.5968 -1.8446 -3.3567
  417TIP3    H222667   4.376   0.697   2.194 -1.1047  0.6587 -2.5841
  418TIP3   OH222668   0.460   0.851  13.692  0.3947  0.2358  0.3049
  418TIP3    H122669   0.384   0.793  13.689  1.2684 -0.9551 -0.0113
  418TIP3    H222670   0.485   0.863  13.600  2.2962 -1.8184  0.4630
  419TIP3   OH222671   4.176   4.518  15.582  0.5887 -0.0680 -0.3786
  419TIP3    H122672   4.140   4.534  15.669  2.7299 -0.4460  0.6543
  419TIP3    H222673   4.111   4.461  15.539 -0.4278 -0.0094  1.0153
  420TIP3   OH222674   4.207   4.701  13.013  0.3386 -0.6175 -0.2473
  420TIP3    H122675   4.121   4.706  12.970 -1.6405 -3.0448  2.9122
  420TIP3    H222676   4.214   4.782  13.063  0.1663 -0.1411 -0.9926
  421TIP3   OH222677   3.690   3.475   4.715  0.1291 -0.0674  0.7072
  421TIP3    H122678   3.621   3.410   4.729 -0.5228  0.4132 -0.1770
  421TIP3    H222679   3.725   3.454   4.628 -0.0404  0.7033  0.4474
  422TIP3   OH222680   4.506   3.724   5.182  0.2861 -0.2290  0.0444
  422TIP3    H122681   4.511   3.669   5.261  1.0089 -0.2908 -0.0362
  422TIP3    H222682   4.428   3.778   5.195 -0.6446 -1.5026 -0.0197
  423TIP3   OH222683   1.757   3.353  10.967  0.4410  0.1425  0.1998
  423TIP3    H122684   1.713   3.329  10.886  0.8278  0.4645 -0.1158
  423TIP3    H222685   1.830   3.408  10.939  1.0635 -0.4082  0.7001
  424TIP3   OH222686   5.539   6.593  10.862 -0.0194 -0.5340  0.1163
  424TIP3    H122687   5.571   6.608  10.773 -2.9182  1.2586 -0.7673
  424TIP3    H222688   5.557   6.675  10.908 -1.9739  0.0547 -0.0532
  425TIP3   OH222689   1.028   5.184   6.521 -0.0266  0.7108 -0.6172
  425TIP3    H122690   1.113   5.160   6.483  0.3666 -0.2103  0.7694
  425TIP3    H222691   0.965   5.130   6.475  0.2512  0.7002 -0.9924
  426TIP3   OH222692   2.104   2.471   5.405 -0.1134  0.1745 -0.1893
  426TIP3    H122693   2.099   2.530   5.480 -0.9261  2.1919 -1.7261
  426TIP3    H222694   2.135   2.527   5.334  1.5999 -1.9057 -1.1518
  427TIP3   OH222695   2.266   3.829   4.430 -0.5857 -0.6555 -0.2005
  427TIP3    H122696   2.227   3.861   4.511 -0.3307  3.3685 -1.4532
  427TIP3    H222697   2.202   3.850   4.362  1.1777  0.6450 -1.5699
  428TIP3   OH222698   5.436   2.475  14.101 -0.6255 -0.3826 -0.1339
  428TIP3    H122699   5.361   2.492  14.044  1.0723  0.2507 -2.3248
  428TIP3    H222700   5.511   2.512  14.053  1.4928 -3.2949  0.6689
  429TIP3   OH222701   2.019   0.297  10.964 -0.1168 -0.1232 -0.2666
  429TIP3    H122702   2.036   0.383  10.925 -0.8637  0.1359 -0.0356
  429TIP3    H222703   2.056   0.303  11.052  0.8202 -0.4258 -0.6221
  430TIP3   OH222704   0.350   0.008   4.373 -0.1462 -0.5495 -0.0040
  430TIP3    H122705   0.429  -0.008   4.426 -0.0099  3.8171  1.5289
  430TIP3    H222706   0.278   0.006   4.437 -0.6419  0.0796 -0.5309
  431TIP3   OH222707   2.948   3.713  15.213  0.2999 -0.6834 -0.3354
  431TIP3    H122708   2.960   3.631  15.166  1.0935 -0.2793 -0.8602
  431TIP3    H222709   3.015   3.712  15.281  0.4743 -0.3627 -0.5005
  432TIP3   OH222710   3.136   3.784   0.878 -0.3693  1.0770 -0.0834
  432TIP3    H122711   3.093   3.821   0.956  1.0898  1.4211  0.5990
  432TIP3    H222712   3.165   3.861   0.829 -1.4505  0.8632 -1.0964
  433TIP3   OH222713   2.545   4.541  16.852  0.3622  0.2612  0.2830
  433TIP3    H122714   2.545   4.462  16.906 -1.7063  0.2251  0.3193
  433TIP3    H222715   2.474   4.527  16.789  2.4663  0.4655 -2.2946
  434TIP3   OH222716   6.345   3.781   5.686  0.4505 -0.0189 -0.2128
  434TIP3    H122717   6.279   3.798   5.753  0.9879  0.8656  0.1063
  434TIP3    H222718   6.402   3.715   5.726  0.4707  0.1210 -0.0142
  435TIP3   OH222719   4.478   3.211   0.640  0.0553 -0.0458  0.2403
  435TIP3    H122720   4.540   3.273   0.679  0.6101 -0.8007  0.5658
  435TIP3    H222721   4.446   3.159   0.713  1.4669 -1.7959 -0.3346
  436TIP3   OH222722   3.438   5.046  17.575 -0.0021  0.1099  0.3464
  436TIP3    H122723   3.478   5.010  17.496 -1.3191  0.1234 -0.3670
  436TIP3    H222724   3.492   5.122  17.598  0.5599 -0.0655 -0.3804
  437TIP3   OH222725   3.326   4.565  14.955  0.8430  0.7674  0.8362
  437TIP3    H122726   3.373   4.632  14.906 -0.3606  0.6296 -0.5738
  437TIP3    H222727   3.388   4.535  15.021  1.8436  2.3479  0.6586
  438TIP3   OH222728   1.363   6.136   1.919  0.4553  0.6378  0.4773
  438TIP3    H122729   1.282   6.132   1.969  0.3296 -0.4968  0.2058
  438TIP3    H222730   1.408   6.214   1.952  0.7042 -0.4225  2.8228
  439TIP3   OH222731   3.439   5.578  14.090  0.0504 -0.5298  0.5135
  439TIP3    H122732   3.471   5.627  14.166  1.4667  1.2952 -1.1530
  439TIP3    H222733   3.395   5.643  14.036 -0.8481 -1.7745 -0.3046
  440TIP3   OH222734   4.490   2.949  15.676 -0.1415  0.5057 -0.0612
  440TIP3    H122735   4.551   3.020  15.656 -1.2092  1.4248 -0.1424
  440TIP3    H222736   4.447   2.976  15.758  0.7930 -0.9712  0.9746
  441TIP3   OH222737   0.545   5.977   4.228  0.3215  0.1066  0.0152
  441TIP3    H122738   0.462   5.990   4.181 -0.1041 -0.4292  0.5997
  441TIP3    H222739   0.612   5.980   4.159 -0.2302  0.0244 -0.5362
  442TIP3   OH222740   3.315   1.773  14.807  0.0753 -0.3998 -0.1574
  442TIP3    H122741   3.226   1.801  14.786  1.5307  2.4634 -3.6616
  442TIP3    H222742   3.361   1.855  14.829  2.2279 -1.5045 -0.2662
  443TIP3   OH222743   2.443   5.213   0.802 -0.6593  0.3348  0.5624
  443TIP3    H122744   2.394   5.293   0.786  0.1796  0.6033 -0.7923
  443TIP3    H222745   2.534   5.234   0.780 -0.3008 -0.7992  0.8257
  444TIP3   OH222746   5.780   5.772   1.527 -1.0402  0.8024 -0.6760
  444TIP3    H122747   5.811   5.682   1.531  0.1919  1.2330 -0.0573
  444TIP3    H222748   5.856   5.825   1.554 -2.6305  1.8365  2.1959
  445TIP3   OH222749   6.071   0.902   5.813  0.2398  0.4111 -0.1648
  445TIP3    H122750   6.148   0.855   5.782  0.9707  1.9709 -0.8026
  445TIP3    H222751   6.065   0.880   5.906  0.6581 -0.7645 -0.4046
  446TIP3   OH222752   3.137   5.951   6.273  0.0223  0.5117  0.5581
  446TIP3    H122753   3.170   5.863   6.288 -0.0171  0.3714 -0.1312
  446TIP3    H222754   3.069   5.964   6.339  0.4512  0.2630  1.0565
  447TIP3   OH222755   0.686   2.227  15.579  0.2186  0.1516 -0.0102
  447TIP3    H122756   0.759   2.167  15.596 -0.7211 -1.1692 -0.5138
  447TIP3    H222757   0.613   2.191  15.627 -0.8046 -0.0588 -1.6551
  448TIP3   OH222758   4.186   4.962   0.047 -0.4256 -0.1006 -0.7471
  448TIP3    H122759   4.102   4.960   0.001 -1.1165  1.5432  0.3362
  448TIP3    H222760   4.228   5.042   0.015 -0.5279  0.5861  0.7579
  449TIP3   OH222761   6.207   2.564   5.334  0.5583 -0.4909  0.9183
  449TIP3    H122762   6.115   2.586   5.352  0.2330 -0.4917 -0.5925
  449TIP3    H222763   6.256   2.642   5.359  0.1012 -0.3125  1.2843
  450TIP3   OH222764   5.414   4.792   4.153 -0.3777  0.1568  0.5502
  450TIP3    H122765   5.331   4.839   4.140  0.1935  0.8443 -0.8481
  450TIP3    H222766   5.481   4.860   4.146  0.2911 -0.2675  2.4425
  451TIP3   OH222767   4.415   0.383  14.646  0.1712  0.1716 -0.3157
  451TIP3    H122768   4.351   0.319  14.615  0.5444  0.0543 -0.8446
  451TIP3    H222769   4.475   0.333  14.701 -0.2547  0.3057  0.2901
  452TIP3   OH222770   6.563   1.371  11.598  0.1110 -0.2250  0.2641
  452TIP3    H122771   6.636   1.310  11.591  0.5421  0.0262  1.9762
  452TIP3    H222772   6.530   1.380  11.509  1.9554 -0.6123 -0.5125
  453TIP3   OH222773   1.466   1.977   5.992  0.0842 -0.4771  0.1127
  453TIP3    H122774   1.385   2.026   5.976  0.1275 -0.3622  0.2430
  453TIP3    H222775   1.445   1.919   6.065  0.3529  0.1165  0.6710
  454TIP3   OH222776   3.116   0.489  15.712 -0.0062 -0.0856  0.3076
  454TIP3    H122777   3.108   0.399  15.680 -2.0026 -0.1651  0.8876
  454TIP3    H222778   3.182   0.485  15.781 -0.2041 -1.1427  0.4466
  455TIP3   OH222779   1.615   5.502   6.518 -0.4613 -0.1655 -0.0226
  455TIP3    H122780   1.543   5.440   6.526 -1.5284  0.9066 -0.8946
  455TIP3    H222781   1.575   5.582   6.483  0.7320  1.2711  1.6550
  456TIP3   OH222782   5.790   4.418   2.712  0.3652  0.1621 -0.4814
  456TIP3    H122783   5.876   4.443   2.679  0.1409 -0.3140 -1.4418
  456TIP3    H222784   5.741   4.499   2.715  0.5414  0.2824 -0.8494
  457TIP3   OH222785   0.508   5.142  12.327 -0.0882 -0.0705 -0.1387
  457TIP3    H122786   0.570   5.182  12.388  0.4073  2.6057 -2.2432
  457TIP3    H222787   0.454   5.214  12.296 -0.9582 -1.4894 -2.1578
  458TIP3   OH222788   1.362   5.256  11.700 -0.2571  0.2445 -0.1991
  458TIP3    H122789   1.440   5.251  11.755 -0.4267 -0.5692 -0.0154
  458TIP3    H222790   1.392   5.297  11.619  0.4584 -0.4186 -0.2850
  459TIP3   OH222791   3.963   3.385  12.619  0.3409 -0.3840 -0.4022
  459TIP3    H122792   3.956   3.327  12.543  0.7168  1.7679 -2.1790
  459TIP3    H222793   3.916   3.465  12.593  0.0530  0.2464  1.8419
  460TIP3   OH222794   4.991   5.554  13.153 -0.1304 -0.1799 -0.4506
  460TIP3    H122795   4.933   5.484  13.123 -1.0034 -0.1742  1.1487
  460TIP3    H222796   5.039   5.516  13.226 -0.2329  0.7275  0.0990
  461TIP3   OH222797   2.341   4.376   0.025  0.5857 -0.2682  0.2123
  461TIP3    H122798   2.388   4.442   0.076 -0.2517  0.8787 -0.4406
  461TIP3    H222799   2.402   4.303   0.018  1.6557  0.5474  0.7395
  462TIP3   OH222800   1.549   3.376   3.505 -0.3772 -0.1290 -1.0126
  462TIP3    H122801   1.584   3.338   3.424 -0.7587  0.1161 -1.2896
  462TIP3    H222802   1.477   3.432   3.477 -2.1326 -1.9211 -0.3183
  463TIP3   OH222803   0.061   4.193  15.844  0.1946 -0.7600  0.0921
  463TIP3    H122804   0.052   4.099  15.834  1.0025 -0.8755  0.3493
  463TIP3    H222805   0.123   4.218  15.775  1.4853 -0.7235  1.2146
  464TIP3   OH222806   3.848   1.615   4.560 -0.0146 -0.6986 -0.0431
  464TIP3    H122807   3.851   1.710   4.544 -0.6090 -0.7966 -0.7731
  464TIP3    H222808   3.785   1.582   4.496  1.0058 -1.7435 -0.5433
  465TIP3   OH222809   0.835   4.347   3.864  0.2694 -0.0063  0.1611
  465TIP3    H122810   0.814   4.255   3.848  0.3269  0.3336 -2.2186
  465TIP3    H222811   0.803   4.393   3.787 -1.1784  2.2495  1.9562
  466TIP3   OH222812   2.071   1.155   1.361 -0.0804  0.1948  0.3882
  466TIP3    H122813   2.159   1.149   1.323 -0.5382  1.1347 -0.8791
  466TIP3    H222814   2.029   1.227   1.313 -1.6373 -0.4184  0.7849
  467TIP3   OH222815   0.961   6.242  16.045  0.2175 -0.4686 -0.3456
  467TIP3    H122816   0.878   6.287  16.058 -0.2291 -1.1018 -0.9350
  467TIP3    H222817   0.968   6.231  15.950  1.4663  0.4816 -0.3914
  468TIP3   OH222818   4.947   5.934   5.408 -0.0197  0.2661 -0.9320
  468TIP3    H122819   4.940   6.016   5.456 -1.2081 -1.5381  2.3343
  468TIP3    H222820   5.040   5.922   5.393  0.7534  0.1055  2.8743
  469TIP3   OH222821   3.227   3.788   3.985 -0.0603  0.7475  0.2626
  469TIP3    H122822   3.270   3.799   3.900 -0.6419 -2.1788 -0.5238
  469TIP3    H222823   3.292   3.744   4.040 -0.3851  0.7279  0.6369
  470TIP3   OH222824   0.489   2.447  13.160  0.5504  0.4081  0.1138
  470TIP3    H122825   0.440   2.520  13.122 -0.5732 -0.1998  0.3358
  470TIP3    H222826   0.560   2.430  13.099 -0.4990  0.2482 -1.0945
  471TIP3   OH222827   6.285   5.429   1.047 -0.3574 -0.1677  0.3276
  471TIP3    H122828   6.286   5.357   1.110 -3.3042 -0.5221  0.1014
  471TIP3    H222829   6.192   5.450   1.035  0.0545  0.2791 -3.4353
  472TIP3   OH222830   2.131   2.693   4.807 -0.6386 -0.4462  0.5972
  472TIP3    H122831   2.049   2.655   4.838 -0.3047 -1.9215 -0.2560
  472TIP3    H222832   2.187   2.618   4.787  0.0062  0.4638 -1.2638
  473TIP3   OH222833   2.776   6.240  12.968  0.3441  0.0868 -0.2143
  473TIP3    H122834   2.795   6.310  13.031 -1.2174 -0.1226  0.5302
  473TIP3    H222835   2.861   6.222  12.927  1.8488 -0.9533  3.0156
  474TIP3   OH222836   6.583   3.436   0.159  0.1853 -0.1758  0.0475
  474TIP3    H122837   6.523   3.419   0.231 -0.3031  0.3701 -0.2104
  474TIP3    H222838   6.665   3.462   0.201  0.0762 -0.3992  0.4040
  475TIP3   OH222839   2.274   1.199  17.395  0.1533  0.4440  0.6881
  475TIP3    H122840   2.326   1.254  17.335  1.3680 -1.0636  0.2909
  475TIP3    H222841   2.326   1.198  17.476  0.2120 -0.2154  0.6436
  476TIP3   OH222842   4.359   4.768   4.769  0.6245  0.1933  0.5991
  476TIP3    H122843   4.326   4.751   4.857 -0.1211 -0.4110  0.2082
  476TIP3    H222844   4.444   4.724   4.767  0.8162  0.5208  1.1297
  477TIP3   OH222845   5.739   6.297  12.908 -0.0861  0.5066  0.0123
  477TIP3    H122846   5.682   6.336  12.842  1.2636  1.4628 -0.6519
  477TIP3    H222847   5.692   6.219  12.938 -0.3104 -0.5472 -2.7982
  478TIP3   OH222848   3.600   4.656   1.117 -0.1069  0.5351 -0.4044
  478TIP3    H122849   3.686   4.688   1.145 -0.2136  0.9761 -0.5620
  478TIP3    H222850   3.555   4.735   1.087 -0.1424  0.1256 -1.4472
  479TIP3   OH222851   2.959   4.484  13.504  0.0144 -0.8937 -0.2101
  479TIP3    H122852   3.005   4.554  13.457  1.1159 -1.0585  0.5696
  479TIP3    H222853   3.022   4.413  13.510 -0.5005 -1.3127  0.4849
  480TIP3   OH222854   2.372   3.420   4.004  0.5891  0.1309 -0.0541
  480TIP3    H122855   2.427   3.492   4.035  1.6999  0.0783 -1.7759
  480TIP3    H222856   2.418   3.340   4.033  0.2180  0.0987  0.4515
  481TIP3   OH222857   4.142   0.949  10.803  0.2402  0.1810  0.2799
  481TIP3    H122858   4.189   1.031  10.819 -0.2535  0.7216 -0.8713
  481TIP3    H222859   4.067   0.953  10.862  0.7029  0.1247  0.8805
  482TIP3   OH222860   5.669   0.168  15.704 -0.4850  0.1564 -0.4100
  482TIP3    H122861   5.664   0.255  15.664 -3.7142  0.8601  1.2169
  482TIP3    H222862   5.753   0.169  15.751 -0.3318  2.2962 -0.6191
  483TIP3   OH222863   6.395   4.537   3.779  0.1011 -0.1773 -0.1700
  483TIP3    H122864   6.401   4.518   3.686  1.6193 -0.9317  0.0553
  483TIP3    H222865   6.301   4.547   3.796 -0.1970 -0.1193 -1.7440
  484TIP3   OH222866   6.580   1.843  17.339  0.9170 -0.0479 -0.0419
  484TIP3    H122867   6.602   1.862  17.248  1.3816 -2.0033 -0.3805
  484TIP3    H222868   6.551   1.752  17.339 -1.7542  0.7128  1.3640
  485TIP3   OH222869   5.772   5.083  17.063  0.9442 -0.5183 -0.2960
  485TIP3    H122870   5.723   5.074  16.981  0.9156  1.0474 -0.4847
  485TIP3    H222871   5.705   5.089  17.130  0.9577 -1.2983 -0.2040
  486TIP3   OH222872   3.315   2.034   1.243  0.0380 -0.0880  0.3434
  486TIP3    H122873   3.337   2.083   1.322 -0.3350  0.4181  0.1350
  486TIP3    H222874   3.237   1.984   1.268  0.4405 -0.6133  0.5676
  487TIP3   OH222875   5.377   2.272  15.276  0.4945 -0.6137  0.3470
  487TIP3    H122876   5.315   2.203  15.251 -0.3160  0.0946  0.3531
  487TIP3    H222877   5.354   2.346  15.221  2.8647 -1.0278 -1.3082
  488TIP3   OH222878   2.328   3.055   0.608 -0.0618  0.0033 -0.6442
  488TIP3    H122879   2.237   3.081   0.595  0.5388  2.3913 -0.5966
  488TIP3    H222880   2.379   3.123   0.563  1.7037 -1.0452 -0.3137
  489TIP3   OH222881   2.887   2.528  12.350 -0.2293 -0.0462 -0.0638
  489TIP3    H122882   2.816   2.590  12.364  0.1316  0.3291  0.1400
  489TIP3    H222883   2.846   2.453  12.307 -0.4351  0.8966 -1.5869
  490TIP3   OH222884   1.995   0.379  17.515 -0.0550 -0.1416  0.1206
  490TIP3    H122885   2.082   0.412  17.537  0.1311  0.6860 -1.6845
  490TIP3    H222886   1.962   0.440  17.449 -0.9728 -1.8525 -1.0862
  491TIP3   OH222887   3.108   2.782   5.677 -0.1594  0.2125  0.0717
  491TIP3    H122888   3.132   2.861   5.628 -0.7799 -0.2231 -0.9610
  491TIP3    H222889   3.072   2.815   5.760 -1.2814  1.0797 -0.7215
  492TIP3   OH222890   1.720   6.133  14.010 -0.4391  0.7119 -0.5646
  492TIP3    H122891   1.755   6.187  14.080  0.4230 -0.6968  0.1392
  492TIP3    H222892   1.759   6.169  13.930  1.0109  0.4596 -0.0044
  493TIP3   OH222893   3.601   0.381   2.845 -0.4052 -0.0137 -0.5535
  493TIP3    H122894   3.643   0.329   2.913 -1.0224 -0.9258 -0.8447
  493TIP3    H222895   3.673   0.421   2.797  0.0379  0.7205  0.6823
  494TIP3   OH222896   1.501   3.243  11.754 -0.7871 -0.3489  0.1258
  494TIP3    H122897   1.498   3.337  11.735  0.0369 -0.3681 -0.1451
  494TIP3    H222898   1.534   3.238  11.844 -1.7522 -0.3560  0.4899
  495TIP3   OH222899   5.389   6.143   3.369 -0.0908  0.4131  0.1070
  495TIP3    H122900   5.347   6.062   3.401 -0.1721  0.6999  0.7465
  495TIP3    H222901   5.482   6.130   3.388 -0.2550  1.0112  1.4598
  496TIP3   OH222902   4.333   6.447  11.455 -0.6837 -0.2063  0.3408
  496TIP3    H122903   4.306   6.355  11.457 -1.2516 -0.0577 -0.2859
  496TIP3    H222904   4.272   6.489  11.394  0.9219  0.1490 -1.0781
  497TIP3   OH222905   6.162   6.353   4.434  0.0220 -0.3428  0.7429
  497TIP3    H122906   6.123   6.433   4.398  0.8113 -0.5130 -0.5462
  497TIP3    H222907   6.228   6.385   4.496 -0.7157 -0.0389  1.3979
  498TIP3   OH222908   0.199   2.492   5.206  0.1903 -0.1131 -0.8157
  498TIP3    H122909   0.242   2.525   5.127  2.0047 -2.5395 -0.9438
  498TIP3    H222910   0.137   2.427   5.173  1.1106 -1.2920 -0.2663
  499TIP3   OH222911   5.748   6.297  15.677  0.4794  0.3638 -0.3432
  499TIP3    H122912   5.660   6.261  15.668  0.7101  0.1077 -1.9038
  499TIP3    H222913   5.735   6.392  15.682 -0.0946  0.2127  3.2565
  500TIP3   OH222914   5.639   4.823   1.619 -0.2465 -0.2603 -0.5059
  500TIP3    H122915   5.553   4.830   1.577 -1.8732 -2.6474  2.0580
  500TIP3    H222916   5.631   4.878   1.697  0.3286 -0.9571  0.0537
  501TIP3   OH222917   1.585   4.756   2.871  0.2982  0.1005 -0.2775
  501TIP3    H122918   1.629   4.826   2.918  1.0315 -2.2376  2.8500
  501TIP3    H222919   1.497   4.754   2.908  0.7925 -1.5854  0.9361
  502TIP3   OH222920   2.098   6.056  16.793  0.0008 -0.2223  0.4075
  502TIP3    H122921   2.005   6.071  16.807 -0.0872 -0.7526  0.4093
  502TIP3    H222922   2.116   5.971  16.834 -0.3345 -2.0375 -2.8133
  503TIP3   OH222923   0.072   5.660  13.453 -0.2253  0.0405  0.1436
  503TIP3    H122924   0.125   5.736  13.479  0.5378 -0.5508  0.3567
  503TIP3    H222925   0.078   5.600  13.527 -3.0655  0.8669  1.1634
  504TIP3   OH222926   2.066   2.709  12.525  0.3929 -0.1252  0.2307
  504TIP3    H122927   1.986   2.756  12.501  0.5050  1.3324  2.3868
  504TIP3    H222928   2.050   2.619  12.498 -1.8228  0.2110  0.2176
  505TIP3   OH222929   2.094   4.232  17.351 -0.2584  0.2836 -0.4968
  505TIP3    H122930   2.140   4.316  17.354 -1.5080  0.9684  1.1112
  505TIP3    H222931   2.056   4.223  17.438 -2.6434 -0.5382 -1.5506
  506TIP3   OH222932   1.388   5.704  13.982  0.0445  0.3512  0.2845
  506TIP3    H122933   1.435   5.784  13.960 -2.1110  1.3516 -0.9498
  506TIP3    H222934   1.421   5.680  14.069  0.4463  2.8178  0.8903
  507TIP3   OH222935   4.617   2.884   5.870  0.2121  0.3214 -0.0720
  507TIP3    H122936   4.623   2.887   5.775 -0.3490 -0.9537 -0.1698
  507TIP3    H222937   4.562   2.959   5.893  1.4540  1.4431 -0.6074
  508TIP3   OH222938   1.014   3.796  16.233  0.1087 -0.4419 -0.0377
  508TIP3    H122939   1.026   3.852  16.157  2.0570 -0.4033  0.2524
  508TIP3    H222940   1.001   3.708  16.198  0.3296 -0.3209 -0.4191
  509TIP3   OH222941   4.880   4.336  10.888 -0.6829  0.0160  0.3148
  509TIP3    H122942   4.834   4.275  10.946  2.8679 -1.3998  1.9099
  509TIP3    H222943   4.917   4.281  10.819  0.5452  0.6887  0.4065
  510TIP3   OH222944   2.700   1.632   2.724  0.0714  0.2497  0.1719
  510TIP3    H122945   2.662   1.679   2.798 -0.0385 -1.5116  1.2910
  510TIP3    H222946   2.789   1.612   2.752 -0.0491 -0.6434 -0.0573
  511TIP3   OH222947   0.581   5.886   1.129 -0.0567 -0.2700  0.3423
  511TIP3    H122948   0.581   5.972   1.170  1.7352  0.5441 -1.2469
  511TIP3    H222949   0.578   5.903   1.035 -0.5634 -1.9731  0.0148
  512TIP3   OH222950   3.136   0.148   5.530  0.4632 -0.1204 -0.7483
  512TIP3    H122951   3.193   0.224   5.520 -0.6152  0.7118 -0.7142
  512TIP3    H222952   3.149   0.097   5.451  1.1559  0.1326 -0.7976
  513TIP3   OH222953   5.998   1.290  11.095  0.1003 -0.0024 -0.2862
  513TIP3    H122954   6.082   1.334  11.088 -0.0525  0.0530 -3.4300
  513TIP3    H222955   5.983   1.255  11.007 -3.3312  0.3213  0.0503
  514TIP3   OH222956   1.568   4.988   1.102  0.2592  0.2514 -0.3476
  514TIP3    H122957   1.621   4.944   1.168 -1.1596  0.4438  0.9751
  514TIP3    H222958   1.497   4.926   1.083 -0.4599  1.0081 -0.1874
  515TIP3   OH222959   2.687   6.129   2.405 -0.1730  0.4301  0.3563
  515TIP3    H122960   2.616   6.124   2.468 -0.4316 -0.3024  0.0190
  515TIP3    H222961   2.676   6.214   2.363 -1.6724 -0.2195 -0.6410
  516TIP3   OH222962   2.607   4.023  15.471  1.0003 -0.2100 -0.7786
  516TIP3    H122963   2.679   3.959  15.465  0.1823 -1.2676  0.2829
  516TIP3    H222964   2.529   3.970  15.488  0.4867  1.1311  1.4536
  517TIP3   OH222965   6.137   2.007   4.699  0.4177  0.9534  0.7265
  517TIP3    H122966   6.088   2.010   4.781  0.4155  2.5079  0.7014
  517TIP3    H222967   6.215   1.956   4.719  0.9778  2.2628  2.0241
  518TIP3   OH222968   0.778   1.799   4.951 -0.2417 -0.1694  0.5424
  518TIP3    H122969   0.743   1.716   4.983  0.8948 -0.1503  1.9424
  518TIP3    H222970   0.809   1.843   5.030  0.9458  0.7246 -0.4007
  519TIP3   OH222971   4.324   2.789   1.651  0.2071  0.0227 -0.2659
  519TIP3    H122972   4.275   2.834   1.720  0.9128  0.8979 -0.3224
  519TIP3    H222973   4.268   2.798   1.573 -0.1865 -0.2070 -0.0143
  520TIP3   OH222974   4.399   5.422  15.414 -0.2205  0.2677  0.4783
  520TIP3    H122975   4.489   5.408  15.386 -0.3812  0.1321  0.0196
  520TIP3    H222976   4.393   5.380  15.499 -0.0590 -0.4051  0.1656
  521TIP3   OH222977   2.582   4.908   3.623  0.3004 -0.1616  0.6514
  521TIP3    H122978   2.520   4.967   3.666 -1.3794 -1.5767  0.2847
  521TIP3    H222979   2.637   4.874   3.694  0.6923  1.1211  0.9773
  522TIP3   OH222980   5.905   5.528   1.520 -0.2007 -0.2208 -0.4231
  522TIP3    H122981   6.000   5.520   1.532 -0.4174  0.0136  1.9731
  522TIP3    H222982   5.874   5.437   1.514  0.2390 -0.2837 -2.3009
  523TIP3   OH222983   1.061   0.216  12.135 -0.0669  0.2772  0.0424
  523TIP3    H122984   0.989   0.193  12.077  0.2432  0.5349 -0.4554
  523TIP3    H222985   1.132   0.156  12.111 -0.4459 -0.7359  1.2857
  524TIP3   OH222986   4.345   0.987  11.480 -0.6266 -0.9136 -0.6056
  524TIP3    H122987   4.339   0.963  11.387 -1.5642  0.8813 -1.0455
  524TIP3    H222988   4.413   1.054  11.483 -0.1679 -1.3910  0.1358
  525TIP3   OH222989   4.701   1.445  11.019 -0.3339 -0.1740 -0.9513
  525TIP3    H122990   4.703   1.411  10.929 -2.9494  0.3633 -1.2958
  525TIP3    H222991   4.683   1.538  11.009  1.5804  0.3721  0.1317
  526TIP3   OH222992   3.739   4.846  10.918 -0.6698 -0.1410  0.3080
  526TIP3    H122993   3.659   4.801  10.894 -1.0091  0.5574  0.1051
  526TIP3    H222994   3.712   4.937  10.931 -0.2316 -0.1974  1.8451
  527TIP3   OH222995   6.713   3.377  14.408 -0.4300  0.1399  0.0254
  527TIP3    H122996   6.663   3.308  14.364  0.0894  0.4286 -1.0364
  527TIP3    H222997   6.657   3.455  14.402 -1.1260 -0.2222  1.4431
  528TIP3   OH222998   5.129   0.065  12.452  0.5286  0.0250 -0.1658
  528TIP3    H122999   5.127   0.147  12.402  0.5023  0.0304 -0.1561
  528TIP3    H223000   5.045   0.024  12.434  1.2103 -0.8265 -1.5336
  529TIP3   OH223001   2.875   3.111   1.063 -0.0814  0.0651 -0.0469
  529TIP3    H123002   2.962   3.147   1.046 -0.5465  1.3206  0.1954
  529TIP3    H223003   2.850   3.146   1.148 -0.8894 -0.1657 -0.1784
  530TIP3   OH223004   5.164   6.417  12.342 -0.0211 -0.0186 -0.5338
  530TIP3    H123005   5.156   6.471  12.263 -3.5771 -0.1585 -0.4372
  530TIP3    H223006   5.174   6.328  12.310 -2.5763 -0.2166 -0.9708
  531TIP3   OH223007   1.406   2.507   1.329 -0.3199 -0.8487 -0.4501
  531TIP3    H123008   1.408   2.600   1.307 -1.7702 -1.0626 -1.6571
  531TIP3    H223009   1.412   2.462   1.244 -1.3164 -1.8130 -0.0256
  532TIP3   OH223010   0.544   3.636   6.345  0.2249 -0.1143 -0.6707
  532TIP3    H123011   0.521   3.630   6.252  1.0451 -0.5562 -0.8618
  532TIP3    H223012   0.636   3.607   6.348  0.7907  1.6488  0.0294
  533TIP3   OH223013   2.669   2.732   5.527  0.0237 -0.2729 -0.8746
  533TIP3    H123014   2.589   2.768   5.566 -0.1130 -1.3393 -0.1074
  533TIP3    H223015   2.643   2.709   5.438 -0.3334  0.0124 -0.8504
  534TIP3   OH223016   5.272   3.079  15.394  0.4471  0.1719 -0.2608
  534TIP3    H123017   5.255   3.021  15.320  0.6703 -0.6123  0.2886
  534TIP3    H223018   5.361   3.055  15.423 -0.2273 -0.6644  1.2428
  535TIP3   OH223019   4.846   5.357  17.503 -0.0371  0.2586 -0.5884
  535TIP3    H123020   4.790   5.280  17.492 -1.5914  1.3393 -0.4798
  535TIP3    H223021   4.923   5.323  17.549 -0.7135 -1.2176 -0.4695
  536TIP3   OH223022   3.743   5.040   6.532  0.4326  0.5147 -0.2605
  536TIP3    H123023   3.739   4.969   6.468  1.8818  0.2303 -0.0741
  536TIP3    H223024   3.681   5.015   6.601  1.2809 -0.8290  0.0478
  537TIP3   OH223025   0.751   2.422   2.556 -0.1826  0.5312 -0.0877
  537TIP3    H123026   0.786   2.438   2.644  1.9363  1.6565 -1.0751
  537TIP3    H223027   0.707   2.503   2.532  0.5673  0.7914 -0.6283
  538TIP3   OH223028   4.671   1.024   2.984 -0.7168 -0.2763 -0.4950
  538TIP3    H123029   4.636   0.960   2.922  1.4760 -0.1675 -1.9534
  538TIP3    H223030   4.643   1.109   2.949 -0.7631 -0.2891 -0.4889
  539TIP3   OH223031   2.247   2.389  13.182 -0.3007 -0.4339  0.3603
  539TIP3    H123032   2.207   2.352  13.261  1.0153 -0.7606  0.9190
  539TIP3    H223033   2.336   2.412  13.210 -0.6555  1.9981 -0.3217
  540TIP3   OH223034   1.517   1.337   0.267 -0.3183  0.1656  0.4448
  540TIP3    H123035   1.602   1.309   0.300  0.3786 -0.0521 -1.4002
  540TIP3    H223036   1.460   1.261   0.279  0.4581 -0.6331 -0.6841
  541TIP3   OH223037   2.715   1.137  12.706 -0.7390  0.0783 -0.5799
  541TIP3    H123038   2.674   1.217  12.671 -0.3718  0.1947 -0.7478
  541TIP3    H223039   2.806   1.161  12.720 -0.2998 -0.6861 -1.9078
  542TIP3   OH223040   1.958   6.434   2.774 -0.1898  0.1343 -0.4091
  542TIP3    H123041   1.929   6.351   2.737 -2.3706  0.5379  0.2579
  542TIP3    H223042   2.006   6.410   2.853  1.0990 -0.5498 -1.3684
  543TIP3   OH223043   2.474   1.882  10.799  0.1050 -0.0851  0.1728
  543TIP3    H123044   2.532   1.829  10.853  0.8812  0.3429 -0.2332
  543TIP3    H223045   2.413   1.819  10.761  1.7197 -0.8631 -1.2068
  544TIP3   OH223046   5.939   1.574   2.817 -0.1260  0.0427  0.2771
  544TIP3    H123047   6.017   1.565   2.762 -0.1349  1.1559  0.0494
  544TIP3    H223048   5.947   1.662   2.855 -1.4484  0.3396 -0.0694
  545TIP3   OH223049   6.013   5.457   6.021 -0.1390  0.1577 -0.1149
  545TIP3    H123050   5.984   5.396   6.088 -0.0385  1.5161  1.2102
  545TIP3    H223051   5.936   5.512   6.003  0.3390  0.9474  0.2090
  546TIP3   OH223052   1.007   5.925   2.650  0.1134 -0.4595  0.6315
  546TIP3    H123053   1.020   5.838   2.689  1.4390 -0.9077 -0.7045
  546TIP3    H223054   0.916   5.947   2.670 -0.9075 -3.0544 -0.6750
  547TIP3   OH223055   1.056   5.160   1.451  0.0838 -0.2785 -0.2995
  547TIP3    H123056   1.019   5.073   1.441  0.7479 -0.6662  0.5223
  547TIP3    H223057   0.981   5.219   1.445 -0.3680 -0.8981 -0.8724
  548TIP3   OH223058   1.692   6.197  16.582 -0.6048  0.5180 -0.1031
  548TIP3    H123059   1.601   6.227  16.584 -0.3273  1.7092 -2.0608
  548TIP3    H223060   1.688   6.111  16.540 -0.7473  1.1409 -1.4251
  549TIP3   OH223061   0.570   4.464  17.069  0.2835 -0.3021  0.4072
  549TIP3    H123062   0.524   4.428  16.994 -1.6560 -2.1144  2.3435
  549TIP3    H223063   0.541   4.555  17.073 -0.9368 -0.6468 -0.0710
  550TIP3   OH223064   2.141   2.073  11.415  0.3371  0.6530 -0.4488
  550TIP3    H123065   2.160   2.041  11.503  0.9847  1.3005 -0.3340
  550TIP3    H223066   2.079   2.011  11.378  1.2929 -0.5344 -0.1216
  551TIP3   OH223067   5.810   5.075  12.380 -0.0511 -0.1234 -0.6658
  551TIP3    H123068   5.735   5.135  12.373  1.2859  2.0240  1.6966
  551TIP3    H223069   5.803   5.038  12.467  1.7799  0.4231 -0.2472
  552TIP3   OH223070   2.521   1.659  16.485  0.4968  0.0985 -0.1805
  552TIP3    H123071   2.436   1.688  16.453  0.7075  0.5143 -0.3714
  552TIP3    H223072   2.512   1.564  16.496 -0.2592  0.2501  0.6241
  553TIP3   OH223073   2.541   1.611  13.435  0.2828  0.2546 -0.2910
  553TIP3    H123074   2.533   1.534  13.491  2.7059  0.9155  1.0916
  553TIP3    H223075   2.494   1.587  13.355 -1.4721 -1.5347  1.1548
  554TIP3   OH223076   1.002   3.170   5.789 -0.2405 -0.3893 -0.1591
  554TIP3    H123077   0.971   3.082   5.764 -0.0071 -0.3613 -0.5570
  554TIP3    H223078   1.085   3.154   5.834  1.7953 -0.2017 -3.4684
  555TIP3   OH223079   3.869   5.377  12.229 -0.7552 -0.0185  0.0030
  555TIP3    H123080   3.774   5.390  12.229 -0.6589  0.7759 -0.1224
  555TIP3    H223081   3.885   5.315  12.158 -0.9047  2.3210 -2.2335
  556TIP3   OH223082   2.237   3.987  15.613 -0.3735  0.0406  0.4398
  556TIP3    H123083   2.295   4.020  15.682 -0.9350  1.5011  0.2404
  556TIP3    H223084   2.150   4.018  15.637 -0.7140 -0.1690 -0.4756
  557TIP3   OH223085   2.980   1.081  14.830 -0.6786 -0.0557  0.5361
  557TIP3    H123086   3.002   0.994  14.862 -0.7388 -0.5920 -0.8127
  557TIP3    H223087   3.062   1.131  14.837 -1.2154  0.6003  3.6716
  558TIP3   OH223088   0.451   5.681   1.883  0.0826 -0.2405 -0.0344
  558TIP3    H123089   0.429   5.732   1.960  1.2797  0.6111 -0.2252
  558TIP3    H223090   0.436   5.739   1.809  1.8308  0.0239 -0.2305
  559TIP3   OH223091   3.646   1.313  11.390  0.3799  0.2028 -0.0399
  559TIP3    H123092   3.583   1.386  11.390  1.2224  0.9594 -0.5980
  559TIP3    H223093   3.666   1.300  11.297  0.3716 -0.6380  0.0741
  560TIP3   OH223094   4.231   5.965  12.658 -0.2801  0.5217  0.9558
  560TIP3    H123095   4.262   5.999  12.742 -1.7191  1.4562  1.1452
  560TIP3    H223096   4.202   6.042  12.610  0.2604 -0.0395 -0.3008
  561TIP3   OH223097   6.360   4.292   1.490  0.3028  0.1013 -0.3750
  561TIP3    H123098   6.348   4.380   1.527 -0.6377 -0.3557  0.4326
  561TIP3    H223099   6.282   4.244   1.516  2.1367 -1.8979  1.8602
  562TIP3   OH223100   3.882   0.142  11.078  0.3201 -0.1587 -0.0785
  562TIP3    H123101   3.893   0.106  11.166 -1.2276 -1.2714 -0.3050
  562TIP3    H223102   3.881   0.066  11.020  0.9778  0.5341 -1.0432
  563TIP3   OH223103   0.819   0.617  10.954  0.9154 -0.0065 -0.1280
  563TIP3    H123104   0.869   0.658  10.884  0.7511  0.4856  0.0370
  563TIP3    H223105   0.877   0.620  11.030  0.5972  0.6813  0.0960
  564TIP3   OH223106   4.888   0.532  11.891 -0.3606 -0.4495 -0.2306
  564TIP3    H123107   4.835   0.591  11.944 -1.2576 -1.4288 -0.0052
  564TIP3    H223108   4.878   0.565  11.801 -0.6805 -0.1318 -0.0825
  565TIP3   OH223109   5.230   4.360  16.860  1.0145 -0.0967 -0.1690
  565TIP3    H123110   5.210   4.266  16.868  2.0993 -0.4060 -0.8474
  565TIP3    H223111   5.168   4.402  16.919  0.9800 -1.3105  0.7287
  566TIP3   OH223112   0.121   6.191   2.507 -0.0627  0.5045 -0.0474
  566TIP3    H123113   0.075   6.261   2.460 -0.8298  1.4804  2.0061
  566TIP3    H223114   0.203   6.232   2.536  1.2939 -0.6525 -2.0569
  567TIP3   OH223115   4.780   2.242  14.099 -0.6450  1.2934  0.4681
  567TIP3    H123116   4.866   2.284  14.088 -0.5061  0.8954 -0.0060
  567TIP3    H223117   4.793   2.152  14.069 -1.6256  1.6657 -1.1888
  568TIP3   OH223118   3.368   4.106  13.892  0.1312 -0.6661  0.7565
  568TIP3    H123119   3.448   4.105  13.840  0.2967  3.4190  0.6319
  568TIP3    H223120   3.397   4.098  13.983  0.2409 -2.9241  0.5873
  569TIP3   OH223121   2.933   4.355   6.222  0.5818  0.3514  0.2622
  569TIP3    H123122   2.869   4.298   6.264  1.0671  0.0924  0.6632
  569TIP3    H223123   3.011   4.349   6.277  0.7196  1.2286  0.1864
  570TIP3   OH223124   2.397   6.530   5.811 -0.7517 -0.0681 -0.4303
  570TIP3    H123125   2.422   6.480   5.733 -0.1813  0.2046 -0.4276
  570TIP3    H223126   2.454   6.496   5.881 -1.2763 -0.3282 -0.1269
  571TIP3   OH223127   3.808   6.187   4.815  0.5689  0.1912 -0.2497
  571TIP3    H123128   3.736   6.243   4.785 -0.3414 -0.3220  0.8726
  571TIP3    H223129   3.878   6.249   4.838 -0.3851  0.9146  0.8947
  572TIP3   OH223130   3.901   5.910   3.728 -0.6495  0.3543 -0.2132
  572TIP3    H123131   3.970   5.855   3.766 -1.4616  0.5038  1.5511
  572TIP3    H223132   3.844   5.849   3.682 -1.6792 -0.4189  1.9255
  573TIP3   OH223133   0.767   5.950   5.050  0.0382 -0.3342  0.1531
  573TIP3    H123134   0.723   5.969   5.133 -2.3526  0.8871 -1.3185
  573TIP3    H223135   0.860   5.964   5.070 -0.2463 -1.7109  3.0224
  574TIP3   OH223136   6.488   5.763   0.070 -0.0112  0.0440 -0.0462
  574TIP3    H123137   6.514   5.721   0.152  0.4002  0.4455  0.0294
  574TIP3    H223138   6.518   5.853   0.078 -1.6921  0.6276  0.1817
  575TIP3   OH223139   3.221   1.367   2.110  0.4906  0.7599  0.2230
  575TIP3    H123140   3.254   1.321   2.032  0.9954  1.8470 -0.2187
  575TIP3    H223141   3.253   1.456   2.101 -0.2809  1.1538  1.1896
  576TIP3   OH223142   0.482   0.647  12.095  0.0510 -0.5041 -0.1923
  576TIP3    H123143   0.396   0.628  12.132  0.6884 -2.0246  0.6163
  576TIP3    H223144   0.478   0.613  12.005  0.0086 -1.1849  0.0620
  577TIP3   OH223145   2.086   2.361   2.048 -0.2777  0.2593 -0.5024
  577TIP3    H123146   2.154   2.415   2.089 -0.4942  0.6044 -0.5892
  577TIP3    H223147   2.100   2.372   1.954 -1.4096  1.5857 -0.5424
  578TIP3   OH223148   4.697   0.105   3.317 -0.1963  0.3230 -0.0655
  578TIP3    H123149   4.606   0.080   3.331 -0.0138  0.1335  0.9089
  578TIP3    H223150   4.731   0.119   3.406  1.2761 -1.5872 -0.2712
  579TIP3   OH223151   5.701   6.587  11.207  0.0625 -0.1004 -0.4105
  579TIP3    H123152   5.796   6.593  11.216 -0.1012  3.8278  0.8224
  579TIP3    H223153   5.677   6.667  11.160 -2.6390 -1.0585 -0.7922
  580TIP3   OH223154   1.434   4.161  17.500  0.2481 -0.2979 -0.1392
  580TIP3    H123155   1.409   4.252  17.481  1.2865  0.2759  1.0765
  580TIP3    H223156   1.360   4.109  17.469 -1.1362  1.0963  0.6799
  581TIP3   OH223157   5.180   0.913  16.110 -0.0336  0.5200 -0.2596
  581TIP3    H123158   5.188   0.936  16.018 -1.7762  0.5549 -0.4353
  581TIP3    H223159   5.129   0.832  16.110 -1.8878  1.6267  0.7331
  582TIP3   OH223160   4.010   6.350   5.406 -0.2363 -0.2973 -0.0889
  582TIP3    H123161   4.071   6.412   5.365 -0.3044  0.0135  0.2813
  582TIP3    H223162   3.970   6.399   5.478 -0.0203 -0.8836  0.4388
  583TIP3   OH223163   5.749   0.539  15.802 -0.3532  0.0105 -0.1524
  583TIP3    H123164   5.746   0.526  15.897 -1.2328 -0.5004 -0.2351
  583TIP3    H223165   5.691   0.613  15.786  0.5890  0.7580 -0.2061
  584TIP3   OH223166   2.630   5.200  13.383 -0.4920  0.5198  0.0492
  584TIP3    H123167   2.715   5.161  13.401 -0.0197  1.8153  0.7377
  584TIP3    H223168   2.567   5.143  13.427 -0.0180 -0.5771 -0.6558
  585TIP3   OH223169   4.791   5.178   5.864 -0.1441 -0.0542 -0.0967
  585TIP3    H123170   4.833   5.235   5.800 -3.1906  0.8588 -1.4902
  585TIP3    H223171   4.742   5.238   5.921 -1.6019 -1.1118 -0.1807
  586TIP3   OH223172   0.123   3.957   5.446 -0.1321 -0.2142 -0.3749
  586TIP3    H123173   0.047   3.904   5.470 -1.3702  0.4960 -2.3956
  586TIP3    H223174   0.105   4.043   5.485  0.0175 -0.2599 -0.2059
  587TIP3   OH223175   4.076   6.457  11.936  0.1078 -0.1098  0.1382
  587TIP3    H123176   4.059   6.525  12.001 -0.2946  0.0236 -0.1034
  587TIP3    H223177   4.058   6.499  11.852  0.2144 -0.4068 -0.0365
  588TIP3   OH223178   6.632   4.124  16.658 -0.1972  0.6318  0.3033
  588TIP3    H123179   6.630   4.080  16.573  2.7016 -0.9253  0.9071
  588TIP3    H223180   6.687   4.201  16.644 -0.3467  0.7968  0.6068
  589TIP3   OH223181   5.201   3.864  15.967  0.2400  0.6234 -0.2648
  589TIP3    H123182   5.127   3.803  15.960  0.2557  0.6358 -0.5671
  589TIP3    H223183   5.170   3.944  15.924  0.2410  0.8113  0.0782
  590TIP3   OH223184   6.575   1.829   0.236  0.4738  0.4117  0.6998
  590TIP3    H123185   6.632   1.846   0.310  0.3891  0.3905  0.7703
  590TIP3    H223186   6.539   1.914   0.212  0.5004  0.4185  0.6845
  591TIP3   OH223187   3.222   0.689   0.115 -0.2314  0.2917 -0.2622
  591TIP3    H123188   3.171   0.760   0.075 -1.4599 -0.2763  0.2504
  591TIP3    H223189   3.278   0.732   0.179 -0.1679  0.9161 -0.7289
  592TIP3   OH223190   6.008   5.124  13.408  0.9595  0.0676  0.2946
  592TIP3    H123191   6.011   5.046  13.462  0.8436 -0.8901 -1.0282
  592TIP3    H223192   6.077   5.110  13.342 -1.5804 -0.8168 -2.3765
  593TIP3   OH223193   0.588   5.003  11.451  0.2140 -0.2021 -0.3017
  593TIP3    H123194   0.668   4.952  11.461 -1.4782 -2.8767  0.8888
  593TIP3    H223195   0.567   4.999  11.358  0.7482 -0.6688 -0.4025
  594TIP3   OH223196   2.425   3.065   1.212 -0.0622  0.4114  0.4594
  594TIP3    H123197   2.338   3.051   1.173  0.3846 -1.6617  0.1163
  594TIP3    H223198   2.476   2.989   1.185  1.8783  1.5625  0.7039
  595TIP3   OH223199   5.562   5.415  15.285 -0.0101 -0.1207 -0.0914
  595TIP3    H123200   5.640   5.422  15.230  1.6067  0.7789  2.1715
  595TIP3    H223201   5.509   5.490  15.259  0.8676  0.4752 -0.2262
  596TIP3   OH223202   3.238   0.794   3.273 -0.2170 -0.4470 -0.0977
  596TIP3    H123203   3.233   0.714   3.326  0.7233 -0.6564 -0.3157
  596TIP3    H223204   3.242   0.763   3.183  1.8427 -0.2537 -0.1232
  597TIP3   OH223205   0.910   2.372  16.451  0.2250  0.3838 -0.5517
  597TIP3    H123206   0.962   2.417  16.385  0.0657  0.2654 -0.7606
  597TIP3    H223207   0.856   2.440  16.490  0.9930  0.6290  0.1177
  598TIP3   OH223208   0.353   3.632   2.787  0.3082  0.2266  0.0724
  598TIP3    H123209   0.394   3.603   2.705 -1.2820 -1.4447 -0.2072
  598TIP3    H223210   0.313   3.716   2.765  1.8921  0.9447 -0.1684
  599TIP3   OH223211   4.595   6.578  11.698  0.1091  0.3329  0.0009
  599TIP3    H123212   4.668   6.537  11.652 -0.4712 -1.4840  0.6172
  599TIP3    H223213   4.595   6.537  11.785 -0.9721  1.1082  0.3936
  600TIP3   OH223214   5.370   1.592  12.320  0.3669 -0.3382 -0.6874
  600TIP3    H123215   5.328   1.551  12.396  1.1751 -0.3953 -0.2685
  600TIP3    H223216   5.321   1.557  12.245 -1.0108  0.4063 -0.1692
  601TIP3   OH223217   6.499   2.473  13.479  0.2991 -0.3244 -0.0793
  601TIP3    H123218   6.480   2.557  13.521 -0.2443 -0.0834 -0.7977
  601TIP3    H223219   6.416   2.445  13.442  0.9713 -0.0497 -1.8513
  602TIP3   OH223220   5.465   4.493  14.708  0.0767 -0.5319  0.1365
  602TIP3    H123221   5.465   4.435  14.784  1.3442 -1.2384 -0.3649
  602TIP3    H223222   5.433   4.438  14.636  2.0119 -0.9121 -0.5050
  603TIP3   OH223223   4.549   2.198  15.955 -0.5657 -0.7140  0.0658
  603TIP3    H123224   4.565   2.250  16.034 -0.6269 -0.3342 -0.1683
  603TIP3    H223225   4.469   2.236  15.918  1.2769  1.4004 -2.0331
  604TIP3   OH223226   2.424   4.132   3.839 -0.5358  0.7610 -0.0700
  604TIP3    H123227   2.348   4.092   3.880  0.4856 -0.9597  0.2377
  604TIP3    H223228   2.473   4.170   3.912 -0.9197  1.5783 -0.2300
  605TIP3   OH223229   3.571   3.226  15.283 -0.3527 -0.7183 -0.3318
  605TIP3    H123230   3.608   3.276  15.210  1.1071  0.9014  1.4362
  605TIP3    H223231   3.537   3.292  15.343 -0.9969 -1.9955  0.7759
  606TIP3   OH223232   5.171   2.675  12.222  0.1485  0.0767  0.1921
  606TIP3    H123233   5.137   2.709  12.305  1.5217 -1.4231  1.4342
  606TIP3    H223234   5.244   2.733  12.201  0.0677  0.2060  0.2682
  607TIP3   OH223235   1.874   2.403   2.341 -0.0842 -0.1327  0.1081
  607TIP3    H123236   1.908   2.487   2.311 -3.3094  0.9432 -0.8994
  607TIP3    H223237   1.847   2.418   2.432 -1.2976  0.1673 -0.2871
  608TIP3   OH223238   5.721   5.597   0.511 -0.0153  0.1600  0.1130
  608TIP3    H123239   5.801   5.646   0.528  0.5674 -1.1351  1.3157
  608TIP3    H223240   5.651   5.650   0.550  0.2236  1.3151 -0.9808
  609TIP3   OH223241   3.427   2.512   6.762  0.0868 -0.2733 -0.5266
  609TIP3    H123242   3.518   2.505   6.732  0.0294 -0.7904 -0.5765
  609TIP3    H223243   3.430   2.481   6.853 -0.0503 -0.3453 -0.5470
  610TIP3   OH223244   0.047   2.880   1.225 -0.2868  0.4321 -0.1859
  610TIP3    H123245  -0.045   2.886   1.249 -1.0949 -0.2017 -2.7709
  610TIP3    H223246   0.078   2.800   1.268 -2.2342 -1.8653 -2.6470
  611TIP3   OH223247   3.683   0.732  15.001 -0.3476 -0.6878  0.2497
  611TIP3    H123248   3.615   0.782  15.047 -1.2410 -0.4047 -1.3060
  611TIP3    H223249   3.671   0.755  14.909  0.2777 -2.5524 -0.3346
  612TIP3   OH223250   6.534   3.005  17.095 -0.5838  0.0052  0.0366
  612TIP3    H123251   6.466   3.024  17.030 -1.1900  0.1574  0.7042
  612TIP3    H223252   6.489   2.952  17.161 -0.0619  0.1541  0.5129
  613TIP3   OH223253   4.832   4.917   3.976 -0.4075  0.3079  0.3741
  613TIP3    H123254   4.865   4.902   3.888  0.7618 -0.8772  0.9811
  613TIP3    H223255   4.798   4.832   4.004  1.4370  0.0007  1.9182
  614TIP3   OH223256   3.623   1.253  13.499 -0.6071  0.4485  0.0723
  614TIP3    H123257   3.638   1.307  13.421  0.7253  0.1441  0.1022
  614TIP3    H223258   3.667   1.298  13.570 -0.7528  0.0820  0.4042
  615TIP3   OH223259   3.475   0.011  11.571  0.3283 -0.3741 -0.3026
  615TIP3    H123260   3.392  -0.036  11.576  0.9439 -1.3578  1.6587
  615TIP3    H223261   3.521  -0.031  11.498 -0.1473 -1.0951 -0.1999
  616TIP3   OH223262   4.878   3.496  13.249 -0.0813  0.4344 -0.0642
  616TIP3    H123263   4.901   3.487  13.342  0.9755  2.6451 -0.0359
  616TIP3    H223264   4.790   3.532  13.249  0.0102  0.6608  0.0996
  617TIP3   OH223265   0.100   2.156  15.661 -0.2058 -0.3689  0.0848
  617TIP3    H123266   0.155   2.087  15.697  1.7148  0.7685 -0.4888
  617TIP3    H223267   0.143   2.237  15.689 -0.0970  0.5626 -2.4764
  618TIP3   OH223268   1.435   0.024   4.560 -0.0660  0.0890 -0.1404
  618TIP3    H123269   1.502  -0.034   4.595  1.1565  1.7636  0.4212
  618TIP3    H223270   1.471   0.055   4.477 -1.1037 -0.5919 -0.8841
  619TIP3   OH223271   0.499   1.641   6.108  0.1733  0.4938 -0.0089
  619TIP3    H123272   0.448   1.601   6.178 -0.2078  2.9870  1.2612
  619TIP3    H223273   0.439   1.644   6.034  0.0592 -0.7534  0.0054
  620TIP3   OH223274   4.157   5.689  12.618 -0.3754  0.2733  0.2518
  620TIP3    H123275   4.145   5.684  12.523  0.2807 -1.0238  0.2129
  620TIP3    H223276   4.160   5.782  12.637 -0.8327  0.5604 -0.9572
  621TIP3   OH223277   4.598   6.123   4.959 -0.2577  0.1961  0.7844
  621TIP3    H123278   4.527   6.084   5.011 -1.3066  0.1369 -0.6438
  621TIP3    H223279   4.667   6.140   5.023 -0.7026 -1.7471  1.8564
  622TIP3   OH223280   2.650   0.100   2.707 -0.2249  0.5486  0.0065
  622TIP3    H123281   2.711   0.068   2.641 -0.1685 -1.0702  0.8017
  622TIP3    H223282   2.701   0.165   2.757  0.8276 -0.6495  0.5473
  623TIP3   OH223283   3.842   2.657  12.764  0.2133  0.4324  0.6358
  623TIP3    H123284   3.824   2.728  12.826  0.8338  0.1983  1.0992
  623TIP3    H223285   3.917   2.611  12.802  0.7556  0.4182 -0.4075
  624TIP3   OH223286   2.332   1.700   3.145 -0.0410 -0.4455 -0.9192
  624TIP3    H123287   2.321   1.788   3.108 -1.4053  0.8647  2.2821
  624TIP3    H223288   2.414   1.705   3.194 -0.3413 -0.8291 -0.3728
  625TIP3   OH223289   5.483   4.253   2.302  0.0164 -0.0048  0.3044
  625TIP3    H123290   5.517   4.230   2.216 -1.0845  2.0842 -0.7738
  625TIP3    H223291   5.556   4.295   2.347  0.5615 -1.0058  0.3930
  626TIP3   OH223292   2.109   3.228  16.610 -0.2726 -0.0837 -0.0872
  626TIP3    H123293   2.097   3.220  16.516 -1.3290 -0.7592  0.0846
  626TIP3    H223294   2.024   3.256  16.643 -0.2343 -0.9311  0.7757
  627TIP3   OH223295   5.620   2.555   2.181 -0.4989 -0.1592  0.0213
  627TIP3    H123296   5.553   2.489   2.194  0.0303 -0.6493  0.3056
  627TIP3    H223297   5.592   2.629   2.236 -0.6844 -0.4450  0.3134
  628TIP3   OH223298   5.353   3.035  17.027 -0.1454 -0.8020 -0.2794
  628TIP3    H123299   5.413   3.018  17.100 -0.2162 -1.0882 -0.2886
  628TIP3    H223300   5.388   3.114  16.986  0.1302 -0.8725 -0.1838
  629TIP3   OH223301   6.697   1.319   4.634  0.3476 -0.2572  0.0436
  629TIP3    H123302   6.643   1.301   4.711  0.8932  1.4140  0.8548
  629TIP3    H223303   6.766   1.376   4.666  0.8626  0.0947 -1.6073
  630TIP3   OH223304   4.155   2.739  16.764  0.0516  0.1145 -0.2772
  630TIP3    H123305   4.174   2.832  16.780 -1.1380  0.3475 -0.0869
  630TIP3    H223306   4.186   2.695  16.844  0.9442  0.2884 -0.5148
  631TIP3   OH223307   5.976   5.931  11.365  0.1941 -0.0775 -0.4529
  631TIP3    H123308   5.926   6.000  11.323  1.1101 -0.2943 -1.9893
  631TIP3    H223309   5.926   5.851  11.347  0.8356 -0.2381 -1.6243
  632TIP3   OH223310   1.041   5.994   0.298 -0.4009  0.0069  0.0012
  632TIP3    H123311   1.134   6.015   0.286 -0.0876 -1.0192  0.5696
  632TIP3    H223312   1.034   5.967   0.389 -1.1384 -0.5906 -0.2251
  633TIP3   OH223313   4.170   1.383  14.558  0.1930 -0.0039 -0.1787
  633TIP3    H123314   4.081   1.418  14.558  0.6244  1.1262  0.1941
  633TIP3    H223315   4.159   1.289  14.572 -0.9200  0.1849  0.2979
  634TIP3   OH223316   1.550   3.958  12.912  0.5115 -0.3917  0.6705
  634TIP3    H123317   1.523   3.886  12.969  0.0121 -0.2663  0.5978
  634TIP3    H223318   1.603   4.014  12.968  1.1823 -0.9768  0.6438
  635TIP3   OH223319   0.249   0.798  11.951  0.2192  0.2207 -0.3794
  635TIP3    H123320   0.169   0.810  11.899  1.2119 -0.2734 -2.0927
  635TIP3    H223321   0.318   0.841  11.900  1.2679 -0.3966  0.4715
  636TIP3   OH223322   3.553   5.273   2.595  0.1891 -0.4706 -0.7245
  636TIP3    H123323   3.513   5.270   2.508  1.3794  0.0983 -1.3189
  636TIP3    H223324   3.480   5.264   2.656 -0.6984 -0.5785 -1.7812
  637TIP3   OH223325   6.531   1.592  14.132 -0.2536 -0.1582 -0.7314
  637TIP3    H123326   6.527   1.497  14.142  0.3257 -0.2288 -1.1118
  637TIP3    H223327   6.558   1.625  14.218 -0.6548 -0.3177 -0.5424
  638TIP3   OH223328   0.267   1.460   5.310  0.6691  0.2124 -0.0268
  638TIP3    H123329   0.276   1.534   5.250 -2.3450 -0.0225 -0.9555
  638TIP3    H223330   0.184   1.477   5.355  0.2965 -2.1867  0.3208
  639TIP3   OH223331   2.573   4.003  11.302  0.0182  0.4995 -0.0514
  639TIP3    H123332   2.607   4.088  11.273 -0.0678  0.6106  0.1755
  639TIP3    H223333   2.651   3.947  11.309  0.2583  0.9729  1.2300
  640TIP3   OH223334   1.667   4.836   4.685 -0.7895 -0.4874 -0.2225
  640TIP3    H123335   1.660   4.902   4.616  0.7131  1.1589  1.1022
  640TIP3    H223336   1.628   4.878   4.762 -0.7897 -1.5838  0.3914
  641TIP3   OH223337   5.834   3.271   0.357 -0.3203  1.0622  0.6119
  641TIP3    H123338   5.801   3.358   0.382  1.8689  2.1566 -0.0245
  641TIP3    H223339   5.924   3.270   0.389  0.9350  0.5261 -2.5843
  642TIP3   OH223340   0.743   2.123  16.429 -0.2389  0.1958 -0.0564
  642TIP3    H123341   0.692   2.147  16.506  2.2414  0.0615  1.7424
  642TIP3    H223342   0.818   2.182  16.430  1.2201 -1.5406 -0.8345
  643TIP3   OH223343   5.729   3.724   1.184  0.2936  0.3274  0.2982
  643TIP3    H123344   5.653   3.772   1.152  1.0323  0.9294 -0.5907
  643TIP3    H223345   5.692   3.657   1.242 -1.1019 -0.6887 -1.6270
  644TIP3   OH223346   5.149   6.332  16.249 -0.0438  0.3124  0.0150
  644TIP3    H123347   5.221   6.337  16.313 -0.9101  0.1419  1.0294
  644TIP3    H223348   5.080   6.284  16.294 -0.5186 -0.2098 -1.2294
  645TIP3   OH223349   1.658   2.577  15.443 -0.1873 -0.1676 -0.3918
  645TIP3    H123350   1.739   2.592  15.394  0.0384 -0.9282 -0.2671
  645TIP3    H223351   1.589   2.587  15.377 -0.0889  1.5796 -0.2684
  646TIP3   OH223352   5.670   2.739   4.610 -0.3649 -0.5838  0.3475
  646TIP3    H123353   5.602   2.725   4.545 -1.9112  2.5460  1.0574
  646TIP3    H223354   5.631   2.711   4.693  0.0765 -0.8676  0.4639
  647TIP3   OH223355   4.061   3.332  14.781  0.1162 -0.2248 -0.0621
  647TIP3    H123356   4.009   3.413  14.783 -0.5572 -0.6539  0.3284
  647TIP3    H223357   4.138   3.352  14.834 -0.0362  0.1730  0.0134
  648TIP3   OH223358   5.672   3.995   6.684  0.0933 -0.2136 -0.9220
  648TIP3    H123359   5.608   3.925   6.697  2.0561 -1.7266  1.7373
  648TIP3    H223360   5.749   3.949   6.650  1.7638  0.3175  1.8270
  649TIP3   OH223361   6.312   1.436   4.482  0.1696 -0.3247  0.3227
  649TIP3    H123362   6.384   1.403   4.428 -0.8620  1.5873 -2.4664
  649TIP3    H223363   6.350   1.447   4.569  2.9255 -0.3823 -0.7621
  650TIP3   OH223364   1.610   2.171  13.095 -0.0977 -0.1331 -0.0204
  650TIP3    H123365   1.583   2.107  13.161  1.6292 -1.1400 -0.2121
  650TIP3    H223366   1.701   2.191  13.117 -0.2836  1.4680 -0.6030
  651TIP3   OH223367   4.064   4.674   3.581 -0.9413  0.3599  0.4499
  651TIP3    H123368   4.135   4.697   3.641 -1.7131  1.1933  1.0562
  651TIP3    H223369   4.043   4.583   3.603 -0.8911  0.5036  1.1059
  652TIP3   OH223370   1.903   5.222  15.542 -0.5654  0.0155  0.2610
  652TIP3    H123371   1.998   5.219  15.530 -0.3887 -0.7964  1.6605
  652TIP3    H223372   1.886   5.309  15.578 -0.2418 -0.1379  0.7918
  653TIP3   OH223373   6.180   2.710  14.469  0.1408  0.0826  0.0949
  653TIP3    H123374   6.125   2.741  14.541  0.9886  2.6676 -0.2883
  653TIP3    H223375   6.196   2.787  14.415  1.6038 -1.2523 -1.5078
  654TIP3   OH223376   2.588   0.486  17.035 -0.3588 -1.0036  0.0355
  654TIP3    H123377   2.539   0.566  17.016  0.9344 -0.3102 -0.5015
  654TIP3    H223378   2.619   0.497  17.125 -1.8221 -1.8126  0.6790
  655TIP3   OH223379   5.699   2.952  16.346 -0.4521  0.1099  1.3112
  655TIP3    H123380   5.647   3.013  16.294 -0.2609  0.1816  1.2036
  655TIP3    H223381   5.698   2.870  16.297  1.0743  0.6143  0.3458
  656TIP3   OH223382   6.188   5.107  13.178  0.5307 -0.5133  0.1307
  656TIP3    H123383   6.282   5.111  13.192  0.3750 -0.8945  1.3789
  656TIP3    H223384   6.177   5.036  13.115  1.1676  0.5235 -1.2042
  657TIP3   OH223385   2.697   2.796   2.564  0.4733  0.0933  0.3743
  657TIP3    H123386   2.771   2.741   2.539 -0.0838  0.4844 -2.5562
  657TIP3    H223387   2.621   2.738   2.560  0.1585  0.5447 -0.6084
  658TIP3   OH223388   1.231   0.241  14.604 -0.0729  0.4173  0.2044
  658TIP3    H123389   1.157   0.266  14.549  1.1379 -1.0327 -2.3165
  658TIP3    H223390   1.300   0.303  14.581  0.6215 -0.5493 -0.4136
  659TIP3   OH223391   2.251   4.042  12.994  0.5856 -0.8297  0.0600
  659TIP3    H123392   2.252   4.054  12.899  0.9970 -0.6553  0.0833
  659TIP3    H223393   2.197   4.114  13.026  0.8230 -0.6164 -0.0100
  660TIP3   OH223394   2.866   4.383  14.107  0.2183 -0.9566 -0.3005
  660TIP3    H123395   2.820   4.356  14.027  1.1574 -2.4645 -0.3626
  660TIP3    H223396   2.799   4.380  14.175 -0.7493  0.9060 -1.0626
  661TIP3   OH223397   4.085   3.387   3.673  0.3728 -0.2842 -0.1630
  661TIP3    H123398   4.002   3.398   3.627  1.0489 -1.8975 -1.8492
  661TIP3    H223399   4.059   3.366   3.763 -1.0191  0.2002 -0.4218
  662TIP3   OH223400   6.182   1.850   5.104  0.0058  0.1059 -0.1638
  662TIP3    H123401   6.179   1.945   5.091  0.0787  0.0189 -0.8222
  662TIP3    H223402   6.274   1.827   5.089 -0.5350 -0.4800 -2.9835
  663TIP3   OH223403   4.444   4.513  12.213  0.0351 -0.6222 -0.0822
  663TIP3    H123404   4.476   4.510  12.123 -0.2554 -0.2873 -0.2002
  663TIP3    H223405   4.496   4.581  12.255 -0.8559  0.2859 -0.4143
  664TIP3   OH223406   5.349   0.700   1.412 -0.3502 -0.5785 -0.5200
  664TIP3    H123407   5.333   0.738   1.499 -0.8621  0.9702 -1.2629
  664TIP3    H223408   5.344   0.606   1.426 -2.6970 -0.3383  0.7182
  665TIP3   OH223409   4.101   4.729   2.432 -0.5932 -0.0924 -0.1447
  665TIP3    H123410   4.101   4.636   2.410 -2.0188  0.0098 -0.7021
  665TIP3    H223411   4.018   4.762   2.396 -0.3641  1.2789  0.5201
  666TIP3   OH223412   3.241   2.722  11.667 -0.1028  0.4837  0.2063
  666TIP3    H123413   3.197   2.756  11.589  0.5545 -0.7932 -0.7589
  666TIP3    H223414   3.170   2.689  11.722 -0.4555 -0.8288 -0.9742
  667TIP3   OH223415   2.640   0.091   0.778 -0.5721  0.0504 -0.0688
  667TIP3    H123416   2.577   0.062   0.712 -0.1185 -0.7602 -0.1688
  667TIP3    H223417   2.650   0.015   0.835  1.3186 -0.3491 -0.8425
  668TIP3   OH223418   2.070   1.318   5.811 -0.1871 -0.4868 -0.0457
  668TIP3    H123419   2.164   1.310   5.799 -0.3152 -1.4534 -0.4813
  668TIP3    H223420   2.033   1.244   5.762 -1.1853  0.0494 -0.1295
  669TIP3   OH223421   4.715   6.513  13.609 -0.4802  0.0540 -0.6793
  669TIP3    H123422   4.784   6.469  13.660  0.8896 -0.5078 -2.8844
  669TIP3    H223423   4.753   6.599  13.587 -1.9379  1.2023  1.0313
  670TIP3   OH223424   5.210   0.440  15.276 -0.5574  0.1452  0.2282
  670TIP3    H123425   5.195   0.346  15.286  0.8207 -0.2121 -0.8089
  670TIP3    H223426   5.291   0.456  15.323  1.4064  0.0097 -2.8525
  671TIP3   OH223427   6.164   0.090   5.196 -0.5700 -0.4077  0.2283
  671TIP3    H123428   6.196   0.171   5.235 -0.0727 -0.2110 -0.5839
  671TIP3    H223429   6.069   0.102   5.190 -0.3915  0.5842 -0.9152
  672TIP3   OH223430   0.342   1.512   6.284 -0.9145 -0.0274  0.3418
  672TIP3    H123431   0.358   1.442   6.347 -0.0822  1.4000  1.8104
  672TIP3    H223432   0.247   1.525   6.286 -0.8450  0.5351  2.0034
  673TIP3   OH223433   3.603   3.597   5.996 -0.0233  0.2533  0.1086
  673TIP3    H123434   3.572   3.665   6.055  0.2065  1.0323 -0.6522
  673TIP3    H223435   3.593   3.634   5.908  1.4722 -0.1054 -0.2562
  674TIP3   OH223436   4.887   2.151   5.063  0.5336  0.1936  0.1939
  674TIP3    H123437   4.867   2.061   5.040  0.8020  0.3489 -0.6982
  674TIP3    H223438   4.860   2.202   4.987 -1.9865  1.1897  1.6647
  675TIP3   OH223439   2.686   5.224  12.863  0.3535 -0.2016  0.3905
  675TIP3    H123440   2.735   5.173  12.799  0.6930 -0.7165  1.0501
  675TIP3    H223441   2.719   5.313  12.852  2.3081 -0.7158  1.6045
  676TIP3   OH223442   3.279   1.756   1.587 -0.0223  0.4389  0.4197
  676TIP3    H123443   3.200   1.729   1.540 -0.3460  1.3117  0.4553
  676TIP3    H223444   3.335   1.796   1.521 -0.0768  0.8091  0.5923
  677TIP3   OH223445   3.121   6.571  15.679  0.1962  0.0336 -0.7813
  677TIP3    H123446   3.210   6.571  15.643  0.8109  2.2753  0.5261
  677TIP3    H223447   3.069   6.615  15.612  0.1848 -0.7132 -1.2742
  678TIP3   OH223448   2.458   3.266   1.411  0.0550 -0.0903 -0.2727
  678TIP3    H123449   2.457   3.189   1.354 -1.3704 -0.4924  0.2335
  678TIP3    H223450   2.375   3.310   1.392  0.2885  0.6354  0.3510
  679TIP3   OH223451   4.803   2.380   5.477  0.0453 -0.3895 -0.2499
  679TIP3    H123452   4.816   2.416   5.390  0.3744 -0.3579 -0.1898
  679TIP3    H223453   4.711   2.353   5.479  0.0290 -0.3592 -0.5931
  680TIP3   OH223454   6.584   5.957  12.229 -0.3850  0.0594 -0.4852
  680TIP3    H123455   6.632   5.881  12.262 -1.3097 -0.5049 -0.4159
  680TIP3    H223456   6.510   5.920  12.182 -0.8291  0.9257 -0.4883
  681TIP3   OH223457   4.654   2.182  17.548 -0.2307  0.2563 -0.2543
  681TIP3    H123458   4.566   2.167  17.583  0.4560 -1.3881  0.9318
  681TIP3    H223459   4.711   2.174  17.624  1.0396  0.1415 -1.1883
  682TIP3   OH223460   5.117   5.183   5.005  0.0753 -0.1293  0.5334
  682TIP3    H123461   5.192   5.226   4.965 -0.1997  0.4540  0.6340
  682TIP3    H223462   5.156   5.113   5.059  0.5596  0.3405  0.8020
  683TIP3   OH223463   5.261   0.240  15.887 -0.2053  0.1541 -0.3625
  683TIP3    H123464   5.317   0.275  15.956 -0.8948 -0.5884  0.5910
  683TIP3    H223465   5.297   0.154  15.868 -1.7620 -0.9173  1.2219
  684TIP3   OH223466   4.047   0.139   2.577 -0.1981 -0.4657 -0.3392
  684TIP3    H123467   4.127   0.090   2.558 -0.2349 -0.0122 -1.7898
  684TIP3    H223468   4.076   0.230   2.584 -0.5533 -0.3202 -0.7106
  685TIP3   OH223469   2.382   4.422  11.996  0.1504  0.2952  0.4572
  685TIP3    H123470   2.355   4.491  11.935 -0.7010  1.0030  1.5819
  685TIP3    H223471   2.302   4.373  12.013  0.5141 -0.2791  0.5272
  686TIP3   OH223472   0.030   0.686  13.651 -0.1777 -0.0925 -0.3457
  686TIP3    H123473  -0.038   0.656  13.590 -0.0155  1.1422 -1.1740
  686TIP3    H223474   0.109   0.642  13.621 -0.4629 -1.0040  0.1994
  687TIP3   OH223475   0.072   6.675   1.083 -0.1956  0.1106  0.5672
  687TIP3    H123476   0.078   6.711   1.172 -0.3526 -0.4478  0.8049
  687TIP3    H223477  -0.021   6.658   1.071  0.1151 -2.5718  1.4054
  688TIP3   OH223478   3.298   4.707   3.281  0.2725  0.3617  0.1069
  688TIP3    H123479   3.268   4.709   3.371  2.7779  0.5654  1.0035
  688TIP3    H223480   3.302   4.614   3.259 -0.2998  0.3100  0.2032
  689TIP3   OH223481   6.326   3.643  15.530 -0.0905 -0.2803 -0.1130
  689TIP3    H123482   6.341   3.732  15.499 -1.7189  0.5902  1.4270
  689TIP3    H223483   6.299   3.594  15.453 -1.0014  1.0260 -0.6469
  690TIP3   OH223484   3.737   6.691   1.332 -0.3318  0.2110  0.5047
  690TIP3    H123485   3.734   6.624   1.400 -0.3243 -0.3193 -0.0140
  690TIP3    H223486   3.761   6.771   1.379 -0.1223 -0.1899  1.0922
  691TIP3   OH223487   0.568   4.264   3.258  0.1417  0.4992  0.1044
  691TIP3    H123488   0.474   4.261   3.277  0.1729 -0.1802  0.1962
  691TIP3    H223489   0.584   4.354   3.230 -0.8501  0.2410 -1.4360
  692TIP3   OH223490   5.941   2.254  14.059  0.4733  0.0210 -0.3713
  692TIP3    H123491   5.875   2.221  14.121  0.3522  0.1457 -0.4346
  692TIP3    H223492   5.891   2.309  13.998  0.8697  1.4471  0.5366
  693TIP3   OH223493   6.046   4.027  12.123  0.2938 -0.5628 -0.0755
  693TIP3    H123494   6.035   3.973  12.202  2.0927 -2.8795 -1.2797
  693TIP3    H223495   5.988   3.987  12.058 -1.2765  1.4110  0.0001
  694TIP3   OH223496   5.849   2.689   5.050  0.5979  0.7112  0.3472
  694TIP3    H123497   5.901   2.744   5.109 -0.3091  1.1714  0.7430
  694TIP3    H223498   5.876   2.714   4.962  1.9519  0.0383  0.5371
  695TIP3   OH223499   5.638   1.048   1.253  0.4199  0.2450 -0.9146
  695TIP3    H123500   5.577   1.022   1.184  1.0183  1.1801 -1.8406
  695TIP3    H223501   5.603   1.130   1.287  0.1299 -0.2142 -0.0921
  696TIP3   OH223502   0.626   2.472   5.303 -0.7189  0.2751 -0.2842
  696TIP3    H123503   0.544   2.422   5.310 -1.5962  1.7000 -0.0263
  696TIP3    H223504   0.598   2.561   5.286  0.7850  0.9072  0.3801
  697TIP3   OH223505   6.089   0.628   2.957 -0.2531 -0.0943  0.0523
  697TIP3    H123506   6.077   0.537   2.987  0.4609  0.2867  1.6249
  697TIP3    H223507   6.046   0.631   2.872 -0.9784 -1.7089  0.3144
  698TIP3   OH223508   0.649   4.990   3.097  0.1231 -0.3520  0.4282
  698TIP3    H123509   0.578   5.018   3.038 -0.4142  0.9338  1.6210
  698TIP3    H223510   0.713   4.949   3.039 -0.2436  1.1248 -1.1133
  699TIP3   OH223511   1.490   1.036  11.817 -0.2675  0.0505 -0.3657
  699TIP3    H123512   1.399   1.065  11.820 -0.0255  0.9758 -1.6193
  699TIP3    H223513   1.538   1.109  11.779  1.1287 -0.1576  0.9102
  700TIP3   OH223514   4.271   4.196  14.815 -0.4616 -0.2454 -0.5645
  700TIP3    H123515   4.224   4.233  14.740  2.3974  1.5397 -1.6538
  700TIP3    H223516   4.348   4.154  14.776  0.8232  0.2573  1.2910
  701TIP3   OH223517   2.592   2.789  15.286  0.3166  0.0364 -0.2779
  701TIP3    H123518   2.547   2.825  15.209  2.5284  3.5776 -0.1367
  701TIP3    H223519   2.664   2.737  15.250 -1.1623 -1.9882 -0.4841
  702TIP3   OH223520   0.950   2.377  17.553  0.2171 -0.5517 -0.1292
  702TIP3    H123521   1.016   2.308  17.551  0.8171 -0.0019  0.1935
  702TIP3    H223522   0.867   2.330  17.560  0.6145 -1.2396  0.1342
  703TIP3   OH223523   0.823   3.520   0.986  0.1008  0.4768 -0.1095
  703TIP3    H123524   0.767   3.507   0.909 -0.0637  0.9069 -0.0652
  703TIP3    H223525   0.912   3.523   0.950  0.0644  0.2181 -0.2280
  704TIP3   OH223526   6.144   5.626   5.613  0.1892  0.0757  0.1609
  704TIP3    H123527   6.225   5.611   5.565 -0.4893  0.3198 -1.0842
  704TIP3    H223528   6.095   5.544   5.604 -0.4210  0.5124 -0.5223
  705TIP3   OH223529   1.530   0.016   1.836 -0.3851  0.0736 -0.2491
  705TIP3    H123530   1.603   0.063   1.797  0.7310 -0.4153  1.1592
  705TIP3    H223531   1.491   0.079   1.898  0.6484 -0.5603  1.0899
  706TIP3   OH223532   5.273   2.980   6.208  0.4288  0.2533 -0.5310
  706TIP3    H123533   5.270   2.974   6.112  0.7729 -0.2675 -0.5157
  706TIP3    H223534   5.365   3.001   6.228  1.1214 -2.6091 -0.2033
  707TIP3   OH223535   6.495   0.477  15.769 -0.3772  0.1890 -0.4588
  707TIP3    H123536   6.574   0.527  15.751  0.7753 -0.7548  1.6058
  707TIP3    H223537   6.444   0.483  15.688  1.3265  1.6494 -1.5099
  708TIP3   OH223538   6.528   3.415   2.507 -0.6147 -0.6562 -0.4682
  708TIP3    H123539   6.552   3.331   2.547  0.9523  0.3068  0.7441
  708TIP3    H223540   6.578   3.418   2.426 -0.0890 -0.5707 -0.1421
  709TIP3   OH223541   0.411   3.033   5.295  0.7477 -0.3149 -0.1824
  709TIP3    H123542   0.374   2.962   5.348  1.9027 -1.6063 -1.0130
  709TIP3    H223543   0.365   3.111   5.323 -1.1084 -1.5125  0.2679
  710TIP3   OH223544   5.845   0.871   0.258 -0.1252 -0.1230  0.1518
  710TIP3    H123545   5.763   0.888   0.212 -1.2617 -2.7627  0.9890
  710TIP3    H223546   5.822   0.872   0.351  1.0124 -0.0112  0.4575
  711TIP3   OH223547   1.904   0.747  12.255  0.0380 -0.1150 -0.3237
  711TIP3    H123548   1.974   0.772  12.314 -0.3112  0.0432  0.0308
  711TIP3    H223549   1.837   0.814  12.267  0.3637  0.4778 -1.6368
  712TIP3   OH223550   1.203   5.844  16.806 -0.4503 -0.0960 -0.1062
  712TIP3    H123551   1.258   5.823  16.731  0.7520 -2.0499  1.2317
  712TIP3    H223552   1.118   5.806  16.785 -0.7628  1.2063 -1.3326
  713TIP3   OH223553   0.461   4.601  13.570  0.6962 -0.1443  0.0580
  713TIP3    H123554   0.458   4.664  13.642  0.1477 -1.1514  0.9483
  713TIP3    H223555   0.379   4.614  13.523  0.7035 -0.0142  0.0816
  714TIP3   OH223556   6.139   1.232  14.388  0.0765 -0.6282  0.2636
  714TIP3    H123557   6.216   1.184  14.419  0.6975 -0.8791 -1.5526
  714TIP3    H223558   6.160   1.324  14.406  0.5221 -0.7508  0.3851
  715TIP3   OH223559   4.412   6.106   2.047 -0.1738  0.6892  0.5120
  715TIP3    H123560   4.353   6.031   2.036 -2.0715  2.1602  0.0009
  715TIP3    H223561   4.412   6.123   2.141 -3.0674  2.4076  0.3584
  716TIP3   OH223562   4.416   5.758  17.451  0.2316 -0.3995 -0.2731
  716TIP3    H123563   4.438   5.747  17.359 -2.9498 -0.2997 -1.1643
  716TIP3    H223564   4.425   5.852  17.467  3.7887 -0.7127  0.5335
  717TIP3   OH223565   6.583   0.003   1.599 -0.2150  0.3116 -0.1310
  717TIP3    H123566   6.570   0.075   1.661  0.9299 -1.0833  1.8646
  717TIP3    H223567   6.657   0.031   1.545 -0.1595  0.8991  0.2374
  718TIP3   OH223568   3.968   1.127  14.617  0.4710  0.0959  0.0803
  718TIP3    H123569   4.015   1.076  14.551 -0.9861 -0.2437 -0.7559
  718TIP3    H223570   3.888   1.077  14.633 -0.0614  1.1162  0.7359
  719TIP3   OH223571   2.897   0.401   6.477  0.4785  0.3639 -0.2919
  719TIP3    H123572   2.970   0.451   6.514  0.4418  1.5480 -1.7106
  719TIP3    H223573   2.831   0.400   6.546  0.5100  2.2819 -0.1701
  720TIP3   OH223574   6.483   5.684  15.482 -0.2943 -0.1977 -0.2074
  720TIP3    H123575   6.517   5.696  15.571  0.1979  1.2269 -0.5548
  720TIP3    H223576   6.395   5.721  15.485  0.2211  1.1242 -0.6175
  721TIP3   OH223577   5.870   0.013  13.589 -0.1218 -0.4227 -0.3866
  721TIP3    H123578   5.801   0.074  13.562 -0.6265 -0.0969  1.4695
  721TIP3    H223579   5.823  -0.063  13.623  0.4209 -0.3832  0.4894
  722TIP3   OH223580   3.785   2.049   1.788  0.3377  0.5480  0.5875
  722TIP3    H123581   3.718   1.981   1.777  1.1646 -0.6045  2.2118
  722TIP3    H223582   3.753   2.123   1.737 -1.3134 -0.5723 -0.0737
  723TIP3   OH223583   3.458   0.149   0.663  0.4168  0.3534  0.3316
  723TIP3    H123584   3.486   0.235   0.695  1.9416  0.2450 -0.6238
  723TIP3    H223585   3.517   0.088   0.707 -0.6047 -0.2129  0.9365
  724TIP3   OH223586   1.250   3.341   5.073  0.3662  0.5282  0.0937
  724TIP3    H123587   1.252   3.416   5.014  0.1542  0.8881  0.5383
  724TIP3    H223588   1.341   3.316   5.084  0.4034  0.3991 -0.4561
  725TIP3   OH223589   4.140   3.944  16.876 -0.7175 -0.2659 -0.6092
  725TIP3    H123590   4.215   3.913  16.825 -1.3787 -0.0134 -1.7444
  725TIP3    H223591   4.063   3.919  16.825 -1.5220 -1.8452  1.2367
  726TIP3   OH223592   1.553   3.448  16.504  0.5527  0.3301  0.2466
  726TIP3    H123593   1.618   3.378  16.504 -0.9940 -1.1801  1.2417
  726TIP3    H223594   1.486   3.419  16.566 -0.2330  2.6387  0.5814
  727TIP3   OH223595   6.007   5.386   5.185  0.1648  0.7583 -0.8340
  727TIP3    H123596   5.923   5.420   5.215 -0.3296 -0.5949 -0.5703
  727TIP3    H223597   5.983   5.310   5.130  1.2209 -0.1304 -0.1022
  728TIP3   OH223598   2.926   3.079   0.148  0.2985 -0.1611  0.0928
  728TIP3    H123599   2.922   2.984   0.159 -0.1824 -0.1585 -0.0787
  728TIP3    H223600   3.019   3.100   0.162  0.1453 -0.4612  1.7644
  729TIP3   OH223601   4.985   6.575  15.678 -0.3008 -0.2203 -0.5024
  729TIP3    H123602   5.017   6.655  15.637 -0.4874  0.2650  0.2577
  729TIP3    H223603   4.992   6.593  15.772  0.1133 -1.2892 -0.3189
  730TIP3   OH223604   3.842   1.032   5.221  0.4320  0.3129  0.2612
  730TIP3    H123605   3.867   0.969   5.288 -0.4541 -1.6285 -1.1357
  730TIP3    H223606   3.878   0.996   5.140 -0.9897  1.0472 -0.7471
  731TIP3   OH223607   2.366   5.457  12.970  0.0370  0.2655 -0.0460
  731TIP3    H123608   2.366   5.548  12.938  1.2357  0.4143  0.3426
  731TIP3    H223609   2.374   5.465  13.065 -0.0248 -0.2558  0.0059
  732TIP3   OH223610   0.242   2.570  11.947  0.0409  0.7195 -0.2318
  732TIP3    H123611   0.150   2.578  11.925  0.0294  0.7185 -0.1842
  732TIP3    H223612   0.258   2.475  11.951  0.2691  0.7152 -1.1725
  733TIP3   OH223613   0.668   6.066  15.034  0.3015  0.2692  0.4808
  733TIP3    H123614   0.750   6.062  14.986  0.0542  0.7700  0.0018
  733TIP3    H223615   0.601   6.045  14.969  0.1421 -1.6253  1.2017
  734TIP3   OH223616   3.136   3.471   2.440 -0.3605 -0.9916  0.5403
  734TIP3    H123617   3.158   3.474   2.347 -0.0098 -0.4102  0.6370
  734TIP3    H223618   3.154   3.381   2.466 -2.1679 -1.6586 -0.3625
  735TIP3   OH223619   6.407   0.126   0.927 -0.0587  0.0259 -0.0121
  735TIP3    H123620   6.360   0.209   0.929 -0.1865  0.1390 -3.2625
  735TIP3    H223621   6.368   0.078   0.854  3.0800 -0.9345 -1.2132
  736TIP3   OH223622   2.889   4.157   0.961 -0.2576 -0.7336 -0.5857
  736TIP3    H123623   2.962   4.211   0.933 -1.3239  0.0120 -2.0467
  736TIP3    H223624   2.812   4.213   0.951 -1.3399 -2.3205 -1.5824
  737TIP3   OH223625   6.466   3.584  13.317  0.1235 -0.4153  0.8702
  737TIP3    H123626   6.487   3.656  13.377 -1.6217 -0.4788  1.6253
  737TIP3    H223627   6.372   3.569  13.329 -0.8219  0.8452 -3.2807
  738TIP3   OH223628   4.791   1.324  12.395 -0.4672 -0.1855  0.1281
  738TIP3    H123629   4.887   1.325  12.397 -0.4754 -0.0440  1.6568
  738TIP3    H223630   4.769   1.240  12.354  0.3052  0.1400 -0.9793
  739TIP3   OH223631   3.652   1.150   4.236 -0.3582 -0.1634  0.2143
  739TIP3    H123632   3.581   1.113   4.287 -0.3053  0.8743  1.0802
  739TIP3    H223633   3.708   1.076   4.214 -0.2668 -0.6151  1.8561
  740TIP3   OH223634   5.306   4.741   5.315 -0.4428 -0.4899  0.7466
  740TIP3    H123635   5.396   4.753   5.285 -1.2170 -1.0646 -2.0140
  740TIP3    H223636   5.287   4.649   5.297 -1.9028 -0.1307  0.3673
  741TIP3   OH223637   2.294   1.161   1.844  0.1301  0.1039 -0.1810
  741TIP3    H123638   2.224   1.186   1.785 -0.0384  0.5660  0.2028
  741TIP3    H223639   2.289   1.066   1.849 -0.9864  0.1782  0.4643
  742TIP3   OH223640   3.204   1.011   1.690  0.2710  0.1057  0.1184
  742TIP3    H123641   3.238   0.940   1.744  1.7742  1.9282  1.7490
  742TIP3    H223642   3.275   1.033   1.630 -0.0340  0.4707 -0.1159
  743TIP3   OH223643   5.679   0.664  16.544  0.1561  0.5770  0.4084
  743TIP3    H123644   5.713   0.651  16.632 -0.2370  0.6661  0.5788
  743TIP3    H223645   5.595   0.709  16.557  0.0135  0.4406  0.0025
  744TIP3   OH223646   2.348   1.792   5.550  0.1900 -0.1297  0.4436
  744TIP3    H123647   2.412   1.863   5.554  1.3549 -1.2086  1.3595
  744TIP3    H223648   2.385   1.730   5.487  0.1067 -0.8117  1.0619
  745TIP3   OH223649   5.557   3.506  14.389 -0.1456 -0.3103 -0.2198
  745TIP3    H123650   5.607   3.426  14.406 -1.4977 -0.8921  1.2692
  745TIP3    H223651   5.501   3.485  14.313  0.6051 -0.2272 -0.8073
  746TIP3   OH223652   0.949   6.345  15.048  0.3067  0.0235 -0.6982
  746TIP3    H123653   0.900   6.424  15.023 -0.6297 -0.3601 -0.1538
  746TIP3    H223654   1.040   6.374  15.053  0.0537  0.9304 -1.0782
  747TIP3   OH223655   4.826   3.268   4.450  0.5993 -0.2383 -0.2115
  747TIP3    H123656   4.824   3.173   4.439  0.7036 -0.3140  0.3520
  747TIP3    H223657   4.916   3.287   4.478  0.4005 -0.0652  0.3360
  748TIP3   OH223658   2.093   5.503   1.997 -0.1893  0.0044 -0.4281
  748TIP3    H123659   2.146   5.493   1.918  0.6171 -0.8407  0.1900
  748TIP3    H223660   2.130   5.440   2.058 -0.8793  0.5577  0.5884
  749TIP3   OH223661   2.559   0.646   3.067  0.6089 -0.2044 -0.9216
  749TIP3    H123662   2.474   0.664   3.107  0.9181  0.3575 -0.4919
  749TIP3    H223663   2.560   0.700   2.988  0.1385 -1.0433 -1.5098
  750TIP3   OH223664   2.080   0.905  12.410  0.4474 -0.0798  0.5838
  750TIP3    H123665   2.044   0.922  12.497  1.8229  2.3768  0.7806
  750TIP3    H223666   2.160   0.958  12.407  0.9111 -0.8027 -1.8598
  751TIP3   OH223667   3.359   6.053  17.442 -0.6731 -0.2655 -0.0099
  751TIP3    H123668   3.289   5.990  17.423 -1.5437  1.1753 -1.8480
  751TIP3    H223669   3.328   6.135  17.406  1.9917  0.4497 -0.9230
  752TIP3   OH223670   0.450   1.680  14.578 -0.0912 -0.0062  0.5741
  752TIP3    H123671   0.418   1.623  14.508 -2.0608  1.6118  0.0648
  752TIP3    H223672   0.407   1.648  14.657 -0.8197  0.4600  0.3725
  753TIP3   OH223673   1.182   6.154  12.472  0.0313 -0.3111  0.2233
  753TIP3    H123674   1.197   6.232  12.419  0.4579 -0.1869  0.5210
  753TIP3    H223675   1.090   6.159  12.497  0.5908  1.3599  2.2196
  754TIP3   OH223676   6.060   6.169  12.273 -0.0425 -0.1877  0.1169
  754TIP3    H123677   6.109   6.204  12.198  0.3561  2.8095  1.6163
  754TIP3    H223678   5.969   6.193  12.255  0.1441  1.1359  0.8569
  755TIP3   OH223679   0.019   5.570  15.514  0.2099 -0.5446  0.4933
  755TIP3    H123680  -0.025   5.513  15.577 -0.1656 -1.1897 -0.3336
  755TIP3    H223681  -0.050   5.629  15.482 -0.2279 -1.8703 -1.1619
  756TIP3   OH223682   4.215   1.646   4.111 -0.3599  1.1480  0.0030
  756TIP3    H123683   4.184   1.556   4.098  0.5891  0.4770  1.9731
  756TIP3    H223684   4.134   1.696   4.125 -0.8366  0.3602  0.1788
  757TIP3   OH223685   0.438   3.970  13.091  0.0218 -0.6547 -0.5392
  757TIP3    H123686   0.500   3.983  13.163  1.7442  1.4212 -2.2376
  757TIP3    H223687   0.477   3.902  13.037  0.3688 -0.0284 -1.0987
  758TIP3   OH223688   2.213   5.925  10.870  0.1566 -1.2206  0.6139
  758TIP3    H123689   2.164   5.848  10.897  0.5092 -1.8314 -0.4050
  758TIP3    H223690   2.186   5.940  10.779  1.6028 -1.4004  0.1266
  759TIP3   OH223691   4.643   5.554  13.118  0.1658  0.0739  0.3282
  759TIP3    H123692   4.724   5.531  13.073  0.0745 -0.0279  0.2123
  759TIP3    H223693   4.574   5.528  13.056 -0.1239 -3.1928  1.7926
  760TIP3   OH223694   4.674   4.800   4.544  0.4234  0.3661  0.3835
  760TIP3    H123695   4.657   4.892   4.567  2.0686  0.3325  1.9849
  760TIP3    H223696   4.645   4.751   4.621  1.1323 -0.2799  0.2503
  761TIP3   OH223697   0.268   4.557  13.825  0.1649  0.4162  0.3697
  761TIP3    H123698   0.233   4.501  13.756 -0.1588 -0.0695  0.9339
  761TIP3    H223699   0.214   4.539  13.902  1.6509 -0.3918  1.2752
  762TIP3   OH223700   2.477   2.310   2.035  0.6641 -0.1689 -0.3968
  762TIP3    H123701   2.432   2.278   2.113 -0.5129  0.4471 -0.8003
  762TIP3    H223702   2.407   2.324   1.971  1.3949  1.0442 -0.9631
  763TIP3   OH223703   5.098   2.777   2.190 -0.1131  0.1674  0.0081
  763TIP3    H123704   5.092   2.738   2.103 -1.1640 -0.7634  0.4870
  763TIP3    H223705   5.021   2.746   2.237  0.5956  0.4022  1.3883
  764TIP3   OH223706   2.868   1.362   2.429 -0.6791 -0.9944 -0.3369
  764TIP3    H123707   2.787   1.397   2.392 -0.9947 -0.4628  0.8018
  764TIP3    H223708   2.850   1.356   2.523  1.0913  0.5856  0.1695
  765TIP3   OH223709   6.184   6.584  12.100  0.0457 -0.2697 -0.1332
  765TIP3    H123710   6.096   6.621  12.095  0.5416  1.0717  0.5539
  765TIP3    H223711   6.238   6.642  12.047  0.8351 -0.0225  0.9066
  766TIP3   OH223712   5.068   4.203  13.140  0.5478 -0.2304  0.1166
  766TIP3    H123713   4.974   4.211  13.130  0.6679  1.4555 -0.0708
  766TIP3    H223714   5.102   4.208  13.051  0.8140 -0.8499  0.1806
  767TIP3   OH223715   3.447   0.114   3.164 -0.6837  0.1939  0.1783
  767TIP3    H123716   3.370   0.057   3.171 -0.2905 -0.2959  0.6178
  767TIP3    H223717   3.478   0.102   3.074  0.0800 -1.2069  0.6051
  768TIP3   OH223718   5.921   6.085   3.022  0.4376 -0.2181  0.2406
  768TIP3    H123719   5.852   6.131   3.070  0.0386 -0.6070  0.0431
  768TIP3    H223720   5.993   6.148   3.016 -0.7299  0.9855 -1.5417
  769TIP3   OH223721   3.034   3.129  12.169  0.4703  0.1091 -0.2130
  769TIP3    H123722   3.066   3.073  12.240  1.3730 -0.3262 -0.9368
  769TIP3    H223723   3.067   3.087  12.089  0.3956  1.1807 -0.8239
  770TIP3   OH223724   4.133   4.095  11.260 -0.4042 -0.2178  0.1657
  770TIP3    H123725   4.187   4.173  11.244 -0.3908 -0.2131  0.2308
  770TIP3    H223726   4.173   4.054  11.337 -1.0826  0.3206  0.8114
  771TIP3   OH223727   2.492   4.752   2.521  0.1134 -0.1767 -0.2968
  771TIP3    H123728   2.483   4.750   2.616 -0.1444 -1.5633 -0.3213
  771TIP3    H223729   2.582   4.783   2.506 -0.0703  0.6881  0.3681
  772TIP3   OH223730   4.071   0.391   1.609  0.2404  0.0234 -0.3162
  772TIP3    H123731   4.109   0.476   1.633  0.7158 -0.0725 -0.7218
  772TIP3    H223732   3.990   0.387   1.660  2.1068 -1.0405  2.8323
  773TIP3   OH223733   3.989   4.501   1.353  0.5208 -0.1544 -1.0694
  773TIP3    H123734   3.929   4.430   1.374 -0.5203  0.5568 -1.5464
  773TIP3    H223735   4.009   4.542   1.438 -0.9017  0.5488 -1.0438
  774TIP3   OH223736   2.163   1.087  13.807  0.0270 -0.3927  0.3474
  774TIP3    H123737   2.108   1.157  13.771  1.1267  0.4128  0.1479
  774TIP3    H223738   2.192   1.120  13.892  2.0111  0.2678 -0.5016
  775TIP3   OH223739   4.935   2.657   6.145  0.2346 -0.2477  0.2477
  775TIP3    H123740   4.984   2.646   6.064  0.1660  0.7058  0.0685
  775TIP3    H223741   4.846   2.678   6.116 -0.7300 -3.3742  0.5351
  776TIP3   OH223742   0.018   6.186  12.341 -0.2185  0.0793 -0.2557
  776TIP3    H123743   0.021   6.191  12.437 -1.9123  1.3732 -0.2405
  776TIP3    H223744  -0.051   6.122  12.323  1.8793 -2.2011 -0.6552
  777TIP3   OH223745   2.938   3.533  15.570  0.4010  0.3488  0.9152
  777TIP3    H123746   3.014   3.542  15.628 -0.0460  1.4205  1.3565
  777TIP3    H223747   2.918   3.439  15.571  1.9608 -0.0214  0.4574
  778TIP3   OH223748   0.278   5.320  12.030 -0.3002 -0.3569  0.0356
  778TIP3    H123749   0.354   5.316  12.088 -0.5462 -0.4269  0.3597
  778TIP3    H223750   0.304   5.378  11.959 -0.8099  1.7621  1.4698
  779TIP3   OH223751   3.132   2.171   0.872 -0.2669  0.2106 -0.2590
  779TIP3    H123752   3.186   2.229   0.818  2.0664 -1.5641  0.0297
  779TIP3    H223753   3.091   2.111   0.809 -0.4113  0.3791 -0.3271
  780TIP3   OH223754   0.601   2.787   1.688 -0.2277  0.2769 -0.3856
  780TIP3    H123755   0.635   2.858   1.633 -1.5531 -1.2950 -3.3894
  780TIP3    H223756   0.629   2.707   1.644 -1.2752 -1.0879  1.3264
  781TIP3   OH223757   6.356   3.492   0.928  0.4018 -0.5175 -0.1832
  781TIP3    H123758   6.347   3.412   0.877 -3.5089 -0.2908 -0.1862
  781TIP3    H223759   6.352   3.563   0.864 -2.6178 -0.2861  0.1154
  782TIP3   OH223760   2.004   5.330  17.036 -0.0433  0.1902  0.5858
  782TIP3    H123761   2.058   5.257  17.009 -2.7968 -1.1429 -1.8348
  782TIP3    H223762   1.967   5.302  17.120 -0.7237 -1.0521 -0.1025
  783TIP3   OH223763   4.381   4.220  15.359 -0.2066 -0.5425 -0.0713
  783TIP3    H123764   4.316   4.150  15.347 -0.5774 -0.1524 -0.3638
  783TIP3    H223765   4.369   4.277  15.283  2.2960 -1.8879 -1.6114
  784TIP3   OH223766   2.716   2.002  12.378 -0.3857  0.5198 -0.4357
  784TIP3    H123767   2.665   2.007  12.297 -0.9207  0.7568 -0.0921
  784TIP3    H223768   2.700   1.913  12.411 -0.8064  0.6840 -0.1867
  785TIP3   OH223769   6.198   3.129  16.703 -0.7773 -0.0573  0.1331
  785TIP3    H123770   6.174   3.138  16.611 -1.5986 -0.2502  0.3182
  785TIP3    H223771   6.117   3.148  16.751 -1.2298 -3.0175  0.7163
  786TIP3   OH223772   4.030   2.553  16.626  0.2426  0.0102  0.1201
  786TIP3    H123773   4.064   2.628  16.673  0.4074  0.3343 -0.4973
  786TIP3    H223774   4.067   2.562  16.538  1.8740 -1.8427  0.5407
  787TIP3   OH223775   4.580   3.064   4.633  0.0532  0.4888 -0.3966
  787TIP3    H123776   4.528   3.129   4.586  0.7734  0.7948 -0.7810
  787TIP3    H223777   4.541   2.980   4.608  0.0418  0.6822 -1.0551
  788TIP3   OH223778   3.677   5.556  13.215  0.0803 -0.3658 -0.0908
  788TIP3    H123779   3.599   5.524  13.261 -0.7897  1.3936 -0.2667
  788TIP3    H223780   3.733   5.479  13.207 -1.8954 -1.8297 -0.5169
  789TIP3   OH223781   2.007   4.316  15.796 -0.1748  0.4275  0.2824
  789TIP3    H123782   1.972   4.382  15.857  0.3224  0.4004  0.6028
  789TIP3    H223783   1.989   4.232  15.838 -3.0103  0.1422 -1.2198
  790TIP3   OH223784   6.039   4.796   1.433  0.1276 -0.2772 -0.5285
  790TIP3    H123785   6.058   4.833   1.520 -0.0738  1.5689 -1.2157
  790TIP3    H223786   5.970   4.731   1.449 -0.0993  0.2247  0.6643
  791TIP3   OH223787   0.249   2.828   5.963  0.4523  0.2272  0.4254
  791TIP3    H123788   0.285   2.858   6.046  2.5372 -0.4703 -0.1619
  791TIP3    H223789   0.258   2.903   5.904 -0.4042  0.5020  0.6246
  792TIP3   OH223790   6.477   3.575  15.233  0.0991 -0.0343  1.1188
  792TIP3    H123791   6.458   3.629  15.156  0.2707  0.2218  1.2536
  792TIP3    H223792   6.391   3.548  15.264 -0.1002  1.4178  1.9410
  793TIP3   OH223793   2.932   4.278  16.387  0.3118 -0.3353  0.1622
  793TIP3    H123794   2.937   4.194  16.341  1.2705 -0.0442 -0.2936
  793TIP3    H223795   2.953   4.257  16.478  2.0226 -0.3929 -0.2150
  794TIP3   OH223796   1.947   4.011   2.973 -0.3397  0.3587 -0.0750
  794TIP3    H123797   1.895   4.091   2.986  1.1111  1.3326 -0.0964
  794TIP3    H223798   1.998   4.027   2.894 -0.3823 -0.8013 -0.3594
  795TIP3   OH223799   6.151   5.722   1.754  0.0543 -0.1561 -0.3136
  795TIP3    H123800   6.101   5.680   1.824 -0.3085 -0.3070 -0.6542
  795TIP3    H223801   6.237   5.740   1.792  0.5007 -1.9669 -0.4068
  796TIP3   OH223802   0.440   5.685  11.825 -0.2551 -0.0385 -0.4368
  796TIP3    H123803   0.412   5.742  11.896 -0.3293  0.5895 -0.9523
  796TIP3    H223804   0.462   5.745  11.753  0.8945 -0.5858 -0.5796
  797TIP3   OH223805   5.179   1.110   5.441  0.3657  0.3280  0.2885
  797TIP3    H123806   5.174   1.128   5.535 -2.0727  0.3286  0.2277
  797TIP3    H223807   5.206   1.018   5.435  1.2698  0.5394  0.9512
  798TIP3   OH223808   5.570   1.914   0.816  0.1871 -0.0311  0.2343
  798TIP3    H123809   5.536   1.980   0.754 -0.5921  0.0070  0.6901
  798TIP3    H223810   5.623   1.964   0.877  1.5184 -0.1563 -0.7740
  799TIP3   OH223811   5.504   4.298  17.155 -0.1847 -0.1956  0.1167
  799TIP3    H123812   5.436   4.344  17.204 -0.3606 -0.2913 -0.0355
  799TIP3    H223813   5.456   4.250  17.087  0.0080 -0.4980  0.1934
  800TIP3   OH223814   4.790   0.889   3.996 -0.3250  0.1681 -0.3654
  800TIP3    H123815   4.723   0.868   3.931 -0.5883  1.3895 -0.5143
  800TIP3    H223816   4.786   0.985   4.004  1.6169  0.3177 -0.6365
  801TIP3   OH223817   0.143   4.575  17.267  0.4301  0.0976 -0.2571
  801TIP3    H123818   0.055   4.614  17.273 -0.2362 -1.5587  2.0863
  801TIP3    H223819   0.183   4.595  17.351  1.0678 -1.9041 -0.0468
  802TIP3   OH223820   3.359   4.777   0.638 -0.2163 -0.1765  0.0637
  802TIP3    H123821   3.370   4.771   0.543 -0.1965 -0.3769  0.0778
  802TIP3    H223822   3.441   4.815   0.669  0.0009 -0.6280  0.0558
  803TIP3   OH223823   0.347   0.505  17.231 -0.3809  0.2100 -0.7680
  803TIP3    H123824   0.313   0.587  17.267 -1.7472 -0.4781 -0.3875
  803TIP3    H223825   0.284   0.439  17.261  0.8311 -1.0127 -0.8457
  804TIP3   OH223826   0.342   3.037   4.371  0.3341 -1.0916 -0.1855
  804TIP3    H123827   0.266   3.006   4.420  0.2813 -0.6554  0.0110
  804TIP3    H223828   0.349   2.976   4.297  1.2025 -2.5700  1.0614
  805TIP3   OH223829   5.139   1.080   4.972 -0.0170 -0.5985  0.3096
  805TIP3    H123830   5.142   0.984   4.977 -1.3916 -0.6513  0.3762
  805TIP3    H223831   5.206   1.102   4.906 -0.1629 -1.6533 -0.2168
  806TIP3   OH223832   2.558   1.037  12.967 -0.0449  0.2725 -0.5417
  806TIP3    H123833   2.603   1.105  13.018  1.9918 -1.4760  0.1498
  806TIP3    H223834   2.466   1.047  12.991  0.2672  2.2874  0.0871
  807TIP3   OH223835   1.222   5.242  15.422  0.0350  0.0946 -0.0509
  807TIP3    H123836   1.179   5.298  15.485 -2.6055 -0.9636 -0.7767
  807TIP3    H223837   1.257   5.169  15.473 -0.5165  0.1283  0.3704
  808TIP3   OH223838   6.336   2.252   6.069  0.1068  0.3463  0.4391
  808TIP3    H123839   6.293   2.249   6.154  0.4786  0.5182  0.6347
  808TIP3    H223840   6.402   2.183   6.072  1.6389  1.7676  1.1324
  809TIP3   OH223841   2.457   1.723  11.155 -0.0735 -0.3395 -0.4843
  809TIP3    H123842   2.505   1.692  11.078 -0.4436 -1.6449 -0.2160
  809TIP3    H223843   2.375   1.758  11.120 -0.1176 -0.6696 -0.7158
  810TIP3   OH223844   3.872   3.234   2.127  0.5041 -0.1231  0.9673
  810TIP3    H123845   3.794   3.205   2.174 -0.9091  1.2607 -0.3965
  810TIP3    H223846   3.910   3.302   2.182  0.6559 -0.6670  1.5434
  811TIP3   OH223847   1.173   2.818  16.181 -0.1898 -0.5354 -0.0287
  811TIP3    H123848   1.240   2.879  16.212  0.8419 -1.9601  0.6239
  811TIP3    H223849   1.108   2.817  16.251  1.3203 -2.4821  1.4556
  812TIP3   OH223850   3.255   3.756  13.864  0.2061 -0.7601 -0.0670
  812TIP3    H123851   3.324   3.781  13.925 -0.9168  0.1047  0.8957
  812TIP3    H223852   3.204   3.691  13.911 -0.9274  0.2330  0.1196
  813TIP3   OH223853   0.513   3.597  13.446 -0.2496 -0.4234  0.8798
  813TIP3    H123854   0.582   3.540  13.413 -0.6274 -0.2289 -0.2951
  813TIP3    H223855   0.456   3.539  13.497 -0.7260 -1.1591 -0.4407
  814TIP3   OH223856   0.516   4.672  11.788  0.4689 -0.9636  0.3155
  814TIP3    H123857   0.549   4.600  11.735  0.0937 -0.6054 -0.4374
  814TIP3    H223858   0.469   4.728  11.725  0.2737 -0.3622  0.9773
  815TIP3   OH223859   4.783   1.771  11.490 -0.9516 -0.2954 -0.4517
  815TIP3    H123860   4.731   1.813  11.422 -1.2143 -2.2730 -1.5383
  815TIP3    H223861   4.786   1.679  11.465  0.6176 -0.7454  1.1709
  816TIP3   OH223862   0.387   0.080   3.203 -0.6245  0.0976 -0.6717
  816TIP3    H123863   0.354   0.011   3.146  1.2338  0.3623 -2.1704
  816TIP3    H223864   0.474   0.100   3.169 -0.1330  1.5041  1.2171
  817TIP3   OH223865   5.930   1.771  13.678  0.1344  0.0107  0.3913
  817TIP3    H123866   5.836   1.762  13.667  0.1723 -0.1947  0.2397
  817TIP3    H223867   5.940   1.835  13.748 -0.1309 -1.1840  1.5533
  818TIP3   OH223868   5.382   3.307  14.608  0.4505  0.7069 -0.4166
  818TIP3    H123869   5.349   3.358  14.534  1.6941 -0.4034 -1.8169
  818TIP3    H223870   5.403   3.221  14.570 -2.1114 -1.1415  1.9552
  819TIP3   OH223871   3.866   0.769   3.474  0.7158  0.6556 -0.0277
  819TIP3    H123872   3.888   0.862   3.463  1.0495  0.6135  0.2871
  819TIP3    H223873   3.898   0.747   3.561 -0.6013  0.5923  0.4551
  820TIP3   OH223874   1.410   2.244   4.311 -0.5216 -0.6746  0.0463
  820TIP3    H123875   1.353   2.239   4.388  1.9657 -1.8461  1.9577
  820TIP3    H223876   1.431   2.337   4.303 -0.2352 -0.6209  1.2674
  821TIP3   OH223877   0.924   6.195  12.328  0.4677 -0.1353 -0.3454
  821TIP3    H123878   0.936   6.268  12.388 -2.2317  0.0985  0.0515
  821TIP3    H223879   0.873   6.131  12.379 -0.2274 -0.7575 -1.7599
  822TIP3   OH223880   0.215   2.669  13.016 -0.0533 -0.2003  0.5090
  822TIP3    H123881   0.128   2.643  13.046  0.6110 -1.8315  1.1182
  822TIP3    H223882   0.252   2.720  13.089 -0.5747  0.7430  0.1360
  823TIP3   OH223883   2.417   1.791  17.182  0.1769  0.9066  0.1417
  823TIP3    H123884   2.427   1.817  17.273 -0.4633 -2.4971  1.3527
  823TIP3    H223885   2.487   1.727  17.167 -1.4765 -0.7843 -0.7690
  824TIP3   OH223886   2.296   4.290   6.339 -0.3776  0.0612  0.2872
  824TIP3    H123887   2.329   4.287   6.429  1.7679  0.1482 -0.4510
  824TIP3    H223888   2.252   4.205   6.327  0.1266 -0.3334  1.1367
  825TIP3   OH223889   0.071   1.202  11.626 -0.1023  0.0668 -0.1376
  825TIP3    H123890   0.129   1.152  11.569 -1.0750  0.6867 -1.7410
  825TIP3    H223891   0.128   1.234  11.696  0.4822 -3.5138  1.2062
  826TIP3   OH223892   1.423   1.004   5.735 -0.4915 -0.3474  0.0424
  826TIP3    H123893   1.443   0.956   5.654 -1.0090  0.3740 -0.5368
  826TIP3    H223894   1.507   1.017   5.778 -0.2417 -0.9667 -0.2587
  827TIP3   OH223895   0.467   4.976  11.212 -0.1295 -0.0044 -0.2906
  827TIP3    H123896   0.395   5.025  11.253 -1.1845 -0.8630 -1.0788
  827TIP3    H223897   0.495   5.032  11.140 -0.8219 -0.1934 -0.7186
  828TIP3   OH223898   5.797   1.225  13.771 -0.1989 -0.1464 -0.4600
  828TIP3    H123899   5.729   1.164  13.743  0.6047 -1.4600  0.3293
  828TIP3    H223900   5.760   1.268  13.848 -0.5446 -0.0894 -0.6584
  829TIP3   OH223901   3.021   3.539   0.863 -0.4210 -0.0319  0.4544
  829TIP3    H123902   3.017   3.541   0.767 -1.7685 -1.6907  0.4240
  829TIP3    H223903   3.047   3.627   0.888 -0.1284  0.4547 -1.4361
  830TIP3   OH223904   1.019   2.974  17.484 -0.9279  0.9436  0.1371
  830TIP3    H123905   1.001   2.895  17.535 -1.1160 -0.0865 -1.4655
  830TIP3    H223906   0.987   3.046  17.539  0.5896  0.0807  2.3042
  831TIP3   OH223907   5.108   0.200   4.955  0.3438  0.1300 -0.3997
  831TIP3    H123908   5.080   0.225   5.043 -0.4732 -0.2779 -0.5323
  831TIP3    H223909   5.196   0.237   4.947  0.5883 -0.1572  0.7253
  832TIP3   OH223910   4.355   1.888   3.983 -0.3905 -0.2211  0.3823
  832TIP3    H123911   4.322   1.825   4.047  1.5751 -0.8817  0.8137
  832TIP3    H223912   4.301   1.966   3.995 -0.3030 -0.4483  2.6292
  833TIP3   OH223913   0.219   6.204   3.438  0.2310 -0.2807 -0.2149
  833TIP3    H123914   0.281   6.213   3.365  1.4950  0.5429  0.9124
  833TIP3    H223915   0.218   6.291   3.479 -2.3690 -0.0092 -0.7017
  834TIP3   OH223916   5.463   0.129  14.219  0.0236  0.0565  0.5698
  834TIP3    H123917   5.517   0.083  14.283  0.1015 -1.3173 -0.4594
  834TIP3    H223918   5.499   0.104  14.134 -0.5888  1.2199 -0.0636
  835TIP3   OH223919   0.500   4.707  12.679  0.1990  0.4177  0.2994
  835TIP3    H123920   0.499   4.794  12.640 -1.6516  1.5001  2.4723
  835TIP3    H223921   0.505   4.647  12.605 -0.5786  2.3470 -1.4133
  836TIP3   OH223922   6.161   0.095  15.722  0.1428 -0.0754 -0.2797
  836TIP3    H123923   6.139   0.168  15.664 -0.5941 -1.3608 -1.7119
  836TIP3    H223924   6.253   0.109  15.746  0.1338  1.0751 -0.8768
  837TIP3   OH223925   5.402   2.930   6.616 -0.2386  0.1241  0.5836
  837TIP3    H123926   5.495   2.949   6.604 -0.3230  2.5132  2.7915
  837TIP3    H223927   5.400   2.867   6.689 -0.3537  0.8431  1.2122
  838TIP3   OH223928   1.979   4.725   3.460 -0.0439 -0.2369 -0.5491
  838TIP3    H123929   1.978   4.651   3.399  1.6752 -0.7533  0.0019
  838TIP3    H223930   1.940   4.691   3.541  1.3705 -0.7846 -0.0707
  839TIP3   OH223931   0.034   1.805  15.555 -0.5631 -0.3450  0.4357
  839TIP3    H123932   0.038   1.781  15.647  0.3349 -1.0474  0.2315
  839TIP3    H223933  -0.050   1.771  15.525 -0.5555 -0.7366  0.8400
  840TIP3   OH223934   5.568   2.221   3.982 -0.4194  0.0543 -0.1831
  840TIP3    H123935   5.616   2.230   4.065 -2.5115 -2.1044  1.3966
  840TIP3    H223936   5.552   2.311   3.954 -1.0236  0.9436  2.6707
  841TIP3   OH223937   6.709   1.869   6.687  0.2274 -0.0675  0.0537
  841TIP3    H123938   6.723   1.963   6.681 -0.5595 -0.0536 -2.8571
  841TIP3    H223939   6.796   1.833   6.706  0.8469  1.1418 -0.3963
  842TIP3   OH223940   4.715   5.815  16.101  0.3081 -0.2857 -0.2402
  842TIP3    H123941   4.640   5.850  16.149  0.8562  0.9001 -0.2207
  842TIP3    H223942   4.678   5.744  16.048 -0.5079 -0.8622  1.0456
  843TIP3   OH223943   0.418   6.032  16.761  0.3210 -0.0186 -0.5602
  843TIP3    H123944   0.449   5.962  16.703  1.7223 -2.2202  2.5544
  843TIP3    H223945   0.493   6.091  16.769 -0.2699  0.9374 -1.8241
  844TIP3   OH223946   5.080   0.056   0.491 -0.0703  0.2797  0.1378
  844TIP3    H123947   5.112  -0.032   0.471 -0.8759  0.3076 -1.3646
  844TIP3    H223948   5.009   0.041   0.554  1.2957  0.0619  1.7092
  845TIP3   OH223949   5.511   1.114   5.412  0.0751  0.3107  1.1261
  845TIP3    H123950   5.470   1.200   5.405 -2.5655 -0.5106  4.0070
  845TIP3    H223951   5.578   1.126   5.480  1.3141  0.5266 -0.0888
  846TIP3   OH223952   3.217   6.394  14.130  0.0009 -0.1697  0.5007
  846TIP3    H123953   3.279   6.466  14.120  0.1716 -0.1203  1.7928
  846TIP3    H223954   3.254   6.340  14.200 -1.0739 -0.4899  0.8431
  847TIP3   OH223955   0.653   1.806  12.575  0.3990 -0.2427  0.1422
  847TIP3    H123956   0.616   1.776  12.492  1.3970 -2.6530  0.4677
  847TIP3    H223957   0.639   1.732  12.635  1.1424  0.7961  1.6526
  848TIP3   OH223958   6.488   1.399   5.349 -0.0960  0.5834  0.0823
  848TIP3    H123959   6.442   1.393   5.432 -0.9458  0.6982 -0.3737
  848TIP3    H223960   6.521   1.489   5.346  0.7610  0.3005  0.7126
  849TIP3   OH223961   4.418   3.168  15.439 -0.1391 -0.5237 -0.6305
  849TIP3    H123962   4.338   3.127  15.407  0.3281 -3.2462  1.3555
  849TIP3    H223963   4.488   3.110  15.412  1.2839  1.8464 -2.3814
  850TIP3   OH223964   0.569   6.541   2.544 -0.1073 -0.1040  0.4440
  850TIP3    H123965   0.619   6.623   2.537  1.2112 -0.9064  0.2451
  850TIP3    H223966   0.493   6.555   2.487 -0.4852  1.3870  1.2548
  851TIP3   OH223967   2.010   0.503  12.100  0.4051  0.2114 -0.0802
  851TIP3    H123968   1.963   0.566  12.154  0.0461  1.1318 -1.4150
  851TIP3    H223969   1.989   0.528  12.010  1.2589 -1.0566 -0.6635
  852TIP3   OH223970   3.742   1.618  14.866  0.0881 -0.4096  0.0564
  852TIP3    H123971   3.784   1.595  14.949 -0.8702 -4.0478 -0.2863
  852TIP3    H223972   3.808   1.669  14.819  0.1467  3.1063  3.4656
  853TIP3   OH223973   2.520   5.794   5.797  0.0162 -0.0197  0.1131
  853TIP3    H123974   2.530   5.784   5.892 -0.2578  2.1976  0.4228
  853TIP3    H223975   2.603   5.829   5.768  0.5420 -1.8509 -0.7072
  854TIP3   OH223976   1.926   5.671  15.153 -0.0293  0.0792  0.7814
  854TIP3    H123977   1.831   5.660  15.162  0.2748 -2.3489  1.6018
  854TIP3    H223978   1.962   5.583  15.165  2.2200  0.6039 -1.2942
  855TIP3   OH223979   3.509   4.022  11.628  0.1604 -0.0962 -0.0160
  855TIP3    H123980   3.505   3.964  11.552  0.4795 -1.5014  0.9876
  855TIP3    H223981   3.561   4.097  11.599 -0.9049  0.0782 -1.5738
  856TIP3   OH223982   4.041   1.264   0.251  0.0032  0.0492  0.0729
  856TIP3    H123983   4.000   1.282   0.166 -0.1574  1.1101  0.3678
  856TIP3    H223984   4.046   1.168   0.255 -0.4818 -0.0283 -0.8993
  857TIP3   OH223985   3.488   2.765   5.107 -0.5524 -0.2296  0.2113
  857TIP3    H123986   3.553   2.813   5.158  1.8496 -1.0154 -1.9022
  857TIP3    H223987   3.404   2.792   5.144  0.9108  1.0136  2.9457
  858TIP3   OH223988   4.962   1.754   6.328  0.2532 -0.4515  0.1638
  858TIP3    H123989   5.022   1.802   6.387 -0.2321  1.1142 -0.5592
  858TIP3    H223990   4.905   1.705   6.387  0.7389 -0.1067  0.9429
  859TIP3   OH223991   1.212   1.263  17.083 -0.4843  0.0093 -0.2095
  859TIP3    H123992   1.258   1.210  17.018 -1.0480 -0.2911 -0.3675
  859TIP3    H223993   1.197   1.347  17.039 -0.5709 -0.0810 -0.3537
  860TIP3   OH223994   3.280   0.057  10.714 -0.1600  0.0281  0.2785
  860TIP3    H123995   3.258  -0.015  10.772  0.9588 -0.3124  0.3184
  860TIP3    H223996   3.248   0.030  10.628  0.1121 -0.4549  0.3250
  861TIP3   OH223997   3.993   2.567  17.362  0.0650 -0.7247 -0.2854
  861TIP3    H123998   4.040   2.636  17.316 -1.5899 -0.1792 -1.2799
  861TIP3    H223999   4.039   2.557  17.445 -0.0281  2.0883  0.2207
  862TIP3   OH224000   2.712   0.881  17.156 -0.5288  0.0516  0.2315
  862TIP3    H124001   2.749   0.795  17.177  0.6901  0.7248  0.9842
  862TIP3    H224002   2.620   0.874  17.183 -0.5019 -1.0776  0.0867
  863TIP3   OH224003   0.676   3.289  13.102 -0.3551 -0.2621 -0.1633
  863TIP3    H124004   0.582   3.271  13.095 -0.1010 -0.8589 -3.3727
  863TIP3    H224005   0.690   3.369  13.052  0.9644 -0.7768 -0.6736
  864TIP3   OH224006   2.298   2.368  10.772  0.8442 -0.6689 -0.9000
  864TIP3    H124007   2.345   2.376  10.855 -0.3346  0.5024 -0.3112
  864TIP3    H224008   2.304   2.275  10.750  1.5068 -0.9273  0.2988
  865TIP3   OH224009   1.942   6.264  17.596 -0.2264  0.2930 -0.1813
  865TIP3    H124010   1.856   6.297  17.621 -0.5982 -1.4403  1.0724
  865TIP3    H224011   1.938   6.256  17.501 -1.5918 -0.0771 -0.1096
  866TIP3   OH224012   1.115   3.643   3.722  0.3058  0.3531  0.6674
  866TIP3    H124013   1.104   3.700   3.646 -0.0539 -1.2651 -0.5645
  866TIP3    H224014   1.064   3.684   3.791  0.6519  1.8768  0.0535
  867TIP3   OH224015   3.582   4.194   1.456  0.2142  0.1681  0.2016
  867TIP3    H124016   3.566   4.129   1.524  0.6677  0.0913  0.2360
  867TIP3    H224017   3.544   4.155   1.377 -0.2155  0.2106  0.3883
  868TIP3   OH224018   1.247   0.715  14.050 -0.2720 -0.2450 -0.1815
  868TIP3    H124019   1.310   0.689  13.983  0.9918  0.3888  0.7067
  868TIP3    H224020   1.246   0.642  14.111 -0.5568 -0.3422 -0.3035
  869TIP3   OH224021   1.685   5.885  14.215 -0.2292 -0.8030  0.2720
  869TIP3    H124022   1.773   5.887  14.255  0.0305 -2.0676 -0.2157
  869TIP3    H224023   1.682   5.965  14.163  1.0129 -1.1915 -0.4607
  870TIP3   OH224024   2.010   0.148   5.648  0.2219 -0.2653 -0.2515
  870TIP3    H124025   2.020   0.193   5.564  1.7888  0.2646  0.1953
  870TIP3    H224026   2.036   0.057   5.629 -1.8514 -0.7724 -0.8877
  871TIP3   OH224027   0.355   4.965   6.851 -0.3054  0.2545 -0.1797
  871TIP3    H124028   0.445   4.994   6.869 -0.7021  2.2068 -1.0390
  871TIP3    H224029   0.304   5.000   6.924 -0.5862  0.5511 -0.5114
  872TIP3   OH224030   2.694   2.856   1.386 -0.3024  0.4737  0.3637
  872TIP3    H124031   2.642   2.830   1.311 -1.6224 -3.6038  2.4053
  872TIP3    H224032   2.757   2.785   1.398  0.5559  1.5024  2.5085
  873TIP3   OH224033   3.365   4.889  17.045  0.1241  0.3307  0.0337
  873TIP3    H124034   3.400   4.885  17.134  4.1044  3.0529 -1.1111
  873TIP3    H224035   3.410   4.818  16.999  1.1285  1.3169 -0.5661
  874TIP3   OH224036   3.133   5.177   4.170 -0.7192 -0.5921  0.2867
  874TIP3    H124037   3.102   5.257   4.212 -1.0769  0.0642 -1.1641
  874TIP3    H224038   3.146   5.115   4.242 -2.7272 -0.0106  1.2182
  875TIP3   OH224039   0.603   2.349   1.341 -0.1426  0.3778  0.1078
  875TIP3    H124040   0.687   2.331   1.298 -0.2379  4.0735 -2.0286
  875TIP3    H224041   0.623   2.346   1.435  2.4600  1.3286 -0.3334
  876TIP3   OH224042   5.621   5.477   7.244 -0.0040  0.1958 -0.2029
  876TIP3    H124043   5.662   5.402   7.202 -0.3034  0.4246 -0.9347
  876TIP3    H224044   5.694   5.530   7.276  0.2091 -0.3224  0.1741
  877TIP3   OH224045   6.690   1.903   4.580  0.1109 -0.2500 -0.3122
  877TIP3    H124046   6.688   1.816   4.540  1.4632 -0.8164  0.7657
  877TIP3    H224047   6.725   1.888   4.668 -0.5266  1.2652  0.2273
  878TIP3   OH224048   4.286   0.043   4.819 -0.0892  0.0695  0.2684
  878TIP3    H124049   4.211  -0.015   4.809  0.5076 -0.8386  0.8811
  878TIP3    H224050   4.266   0.095   4.898 -0.6533  0.7649 -0.3192
  879TIP3   OH224051   0.709   3.584   2.497 -0.4476 -0.4131 -0.0145
  879TIP3    H124052   0.778   3.630   2.545  0.6378 -1.1958 -0.7949
  879TIP3    H224053   0.689   3.507   2.551  1.8317 -2.1157 -1.4307
  880TIP3   OH224054   0.112   1.116   2.920 -0.3653  0.4408 -0.4645
  880TIP3    H124055   0.047   1.104   2.850 -1.7315  0.7543  0.6861
  880TIP3    H224056   0.099   1.040   2.977 -0.8416  1.2966  0.6047
  881TIP3   OH224057   0.505   3.366  16.494 -0.5702 -0.0695  0.7292
  881TIP3    H124058   0.452   3.290  16.519  0.2222 -1.1134 -0.6596
  881TIP3    H224059   0.500   3.368  16.398 -0.6280  1.6920  0.7307
  882TIP3   OH224060   5.789   3.778  14.159  0.2866 -0.0789 -0.0831
  882TIP3    H124061   5.811   3.864  14.125  0.6609  0.8358  2.3190
  882TIP3    H224062   5.865   3.724  14.137  0.5047  0.4544 -0.6796
  883TIP3   OH224063   3.720   0.469   2.412  0.6825  0.4232 -0.4604
  883TIP3    H124064   3.743   0.423   2.331  1.4718 -0.5501  0.2937
  883TIP3    H224065   3.668   0.543   2.383  1.5693  0.5133 -1.9321
  884TIP3   OH224066   4.806   1.549   2.486  0.0709 -0.1250 -1.0602
  884TIP3    H124067   4.844   1.607   2.553  0.0818 -0.4182 -0.8149
  884TIP3    H224068   4.783   1.609   2.414 -0.9839  0.3519 -0.3529
  885TIP3   OH224069   2.771   6.091  11.421 -0.1237  0.5723  0.7002
  885TIP3    H124070   2.721   6.121  11.498 -1.6548  0.5185 -0.2202
  885TIP3    H224071   2.775   5.996  11.430 -3.5166  0.1000 -0.9890
  886TIP3   OH224072   1.946   0.011  12.363 -0.1448 -0.3358  0.6469
  886TIP3    H124073   1.950   0.008  12.458 -4.0368 -3.2776  0.9499
  886TIP3    H224074   1.980  -0.074  12.334 -2.6769 -1.1973 -0.1323
  887TIP3   OH224075   2.561   3.048  16.886  0.5902  0.0502 -0.1913
  887TIP3    H124076   2.500   3.098  16.832  0.4031 -1.2746 -1.2676
  887TIP3    H224077   2.556   3.089  16.973 -0.9057  0.7321 -0.5644
  888TIP3   OH224078   6.161   2.411  17.543  0.1341 -0.2960 -0.5242
  888TIP3    H124079   6.146   2.502  17.572  1.7090 -0.4975  1.1216
  888TIP3    H224080   6.074   2.377  17.526 -0.6471  0.9866  0.6487
  889TIP3   OH224081   6.424   3.252  12.367 -0.5874 -0.0771  0.1232
  889TIP3    H124082   6.484   3.284  12.299  0.3480  0.0301  0.9816
  889TIP3    H224083   6.353   3.317  12.369 -0.6688 -0.1236 -0.7929
  890TIP3   OH224084   4.199   4.646  14.062  0.1333  0.1942 -0.2986
  890TIP3    H124085   4.263   4.632  14.131  0.3558 -0.9060 -0.7029
  890TIP3    H224086   4.231   4.593  13.988 -1.1883 -0.3409 -0.5232
  891TIP3   OH224087   2.733   5.017   0.244  0.0624 -0.1275 -0.2108
  891TIP3    H124088   2.664   5.028   0.180 -0.0228 -2.2414 -0.5597
  891TIP3    H224089   2.690   5.033   0.329 -0.8452 -1.2692 -0.4301
  892TIP3   OH224090   6.224   4.997  12.131  0.1776  0.5590 -0.3192
  892TIP3    H124091   6.211   5.048  12.051 -0.8910  1.2783  0.2841
  892TIP3    H224092   6.220   5.062  12.201  2.5093  0.1604  0.2783
  893TIP3   OH224093   5.023   1.050  14.564 -0.1837 -0.2908  0.2158
  893TIP3    H124094   5.040   0.958  14.546 -0.7048 -0.0933 -1.4286
  893TIP3    H224095   4.988   1.085  14.482 -3.6263  0.5040  1.8016
  894TIP3   OH224096   5.595   4.005  14.530 -0.0013  0.2997  0.1006
  894TIP3    H124097   5.619   4.066  14.460 -1.2913  0.2545 -0.4167
  894TIP3    H224098   5.593   3.919  14.487 -1.2127  0.3290  0.0661
  895TIP3   OH224099   0.970   1.546  14.222 -0.0207  0.4650  0.1383
  895TIP3    H124100   0.973   1.642  14.223  1.4177  0.4382  0.0866
  895TIP3    H224101   0.968   1.521  14.314  0.4645  0.5246  0.1634
  896TIP3   OH224102   4.286   1.710  16.617  0.1575  0.2020  0.4122
  896TIP3    H124103   4.367   1.757  16.596 -0.6483  0.6322 -2.1175
  896TIP3    H224104   4.288   1.633  16.561 -0.6811 -0.3707  1.1399
  897TIP3   OH224105   2.354   0.330  14.847 -0.4430  0.1151 -0.5502
  897TIP3    H124106   2.428   0.389  14.830  1.1709 -1.5672  0.2972
  897TIP3    H224107   2.289   0.354  14.781  1.5030  0.5967 -2.4239
  898TIP3   OH224108   0.491   1.839   5.628  0.3855 -0.2307 -0.6863
  898TIP3    H124109   0.512   1.932   5.622  0.3358 -0.0707  1.1538
  898TIP3    H224110   0.412   1.828   5.576  0.0631  0.8785 -0.4427
  899TIP3   OH224111   4.160   5.109  12.632  0.1354 -0.2701  0.5577
  899TIP3    H124112   4.086   5.166  12.655  0.0880 -0.9570  2.2780
  899TIP3    H224113   4.182   5.064  12.714  1.7237 -0.9429 -0.1905
  900TIP3   OH224114   3.471   0.561  15.153 -0.5511 -0.7622  0.3422
  900TIP3    H124115   3.396   0.586  15.207 -0.8274 -1.6765  0.3931
  900TIP3    H224116   3.547   0.598  15.199 -0.7281 -1.9093  1.6290
  901TIP3   OH224117   0.696   3.244   2.005 -0.1390 -0.4509  0.4677
  901TIP3    H124118   0.765   3.310   2.007 -1.0481  0.5312  1.3739
  901TIP3    H224119   0.626   3.282   2.059 -1.9900 -0.7223 -1.6002
  902TIP3   OH224120   0.924   0.859  13.023  0.0473  0.1268  0.0223
  902TIP3    H124121   0.866   0.792  13.059  0.5490  0.1604  0.9192
  902TIP3    H224122   0.977   0.888  13.097  0.8342  0.4971 -0.6601
  903TIP3   OH224123   5.214   3.486  10.915 -1.0368  0.2469 -0.1601
  903TIP3    H124124   5.290   3.428  10.903 -2.0163 -1.0173 -0.5063
  903TIP3    H224125   5.221   3.514  11.006 -1.0270 -1.2042  0.3208
  904TIP3   OH224126   1.102   2.485  14.622 -0.0395 -0.2768 -0.1284
  904TIP3    H124127   1.092   2.390  14.621 -2.5421 -0.1062  1.0735
  904TIP3    H224128   1.141   2.504  14.707 -0.9173 -0.1718  0.2654
  905TIP3   OH224129   0.854   1.170  13.595 -0.3176 -0.0019  0.3587
  905TIP3    H124130   0.922   1.130  13.648  0.2050 -1.1612 -1.1115
  905TIP3    H224131   0.774   1.164  13.648  0.6572  1.2299  2.0323
  906TIP3   OH224132   2.601   3.825   4.952 -0.7143 -0.3976  0.0090
  906TIP3    H124133   2.515   3.839   4.912 -1.2549  1.6756  1.6779
  906TIP3    H224134   2.584   3.762   5.022 -0.3149 -1.9528 -1.2556
  907TIP3   OH224135   5.275   2.692  16.854 -0.0278  0.6858 -0.5889
  907TIP3    H124136   5.361   2.728  16.831 -0.2076  0.6645 -1.3146
  907TIP3    H224137   5.212   2.756  16.818 -0.3240  0.2902 -0.7781
  908TIP3   OH224138   5.832   6.355   3.711  0.0055  0.0890 -0.2787
  908TIP3    H124139   5.923   6.370   3.687  0.6759  0.7361  2.2776
  908TIP3    H224140   5.789   6.329   3.630  2.1894  0.9409 -1.8081
  909TIP3   OH224141   0.769   1.269  17.609 -0.4298  0.0058  0.3706
  909TIP3    H124142   0.717   1.253  17.689  0.7626 -1.7295  0.8522
  909TIP3    H224143   0.854   1.231  17.628 -0.0297 -0.2046 -1.6602
  910TIP3   OH224144   5.677   6.664  12.040 -0.3887 -0.4008  0.0829
  910TIP3    H124145   5.723   6.741  12.073  0.0321 -0.4104 -0.4701
  910TIP3    H224146   5.635   6.626  12.117 -0.5967  0.3737  0.3642
  911TIP3   OH224147   5.413   4.943  12.134 -0.7424 -1.0989  0.1683
  911TIP3    H124148   5.443   4.989  12.055 -2.3247 -0.0101  0.1554
  911TIP3    H224149   5.487   4.888  12.159  1.2761  1.3588  0.0906
  912TIP3   OH224150   3.641   3.531  10.797 -0.3861  0.2666 -0.3379
  912TIP3    H124151   3.694   3.505  10.722  0.1759 -0.9154  0.4579
  912TIP3    H224152   3.580   3.459  10.810 -1.9750  1.4246 -0.9817
  913TIP3   OH224153   3.317   3.112  13.020  0.0296  0.0934  0.7118
  913TIP3    H124154   3.345   3.066  13.099  0.6533 -0.3434  0.2514
  913TIP3    H224155   3.244   3.167  13.048  2.1438  2.2958  2.2885
  914TIP3   OH224156   3.552   2.226   4.083  0.5717 -0.5966 -0.3714
  914TIP3    H124157   3.617   2.291   4.112 -1.5606  0.7629  1.7842
  914TIP3    H224158   3.565   2.152   4.143 -0.7201  0.2761  1.0665
  915TIP3   OH224159   3.339   1.997  13.012  0.5128 -0.0398 -0.3420
  915TIP3    H124160   3.310   2.021  13.100  0.9000 -1.8780  0.3358
  915TIP3    H224161   3.385   2.074  12.980  0.0412  0.8029  0.9105
  916TIP3   OH224162   1.085   0.324   0.105 -0.1220  0.3008 -0.2194
  916TIP3    H124163   1.146   0.252   0.087  0.8820  1.0719  0.0055
  916TIP3    H224164   1.141   0.397   0.130 -1.1633  0.9692  0.2347
  917TIP3   OH224165   2.348   2.517   0.802  0.2246 -0.3464 -0.4679
  917TIP3    H124166   2.377   2.427   0.806  1.1463 -0.0384 -0.0003
  917TIP3    H224167   2.336   2.534   0.708  2.8417 -0.1128 -0.8396
  918TIP3   OH224168   3.167   5.905  11.757 -0.0822 -0.0239  0.1853
  918TIP3    H124169   3.160   5.970  11.687  1.4069 -0.0547 -0.0096
  918TIP3    H224170   3.172   5.821  11.711 -2.8659 -0.4382  0.4463
  919TIP3   OH224171   5.266   3.794  16.989  0.0847 -0.3492 -0.4016
  919TIP3    H124172   5.206   3.839  17.048  0.3696 -1.5259  0.8207
  919TIP3    H224173   5.341   3.853  16.981  0.5081 -0.6220  1.2708
  920TIP3   OH224174   5.537   1.874  14.541  0.0380  0.4756 -0.1715
  920TIP3    H124175   5.454   1.894  14.498  0.1018  2.9695  0.7085
  920TIP3    H224176   5.532   1.780  14.561 -2.1644  0.3807 -0.9549
  921TIP3   OH224177   5.370   5.548  12.575 -1.0699  0.1287 -0.9261
  921TIP3    H124178   5.328   5.536  12.660 -1.1966  1.0214 -0.8579
  921TIP3    H224179   5.314   5.610  12.529 -0.2004  0.8055 -1.0929
  922TIP3   OH224180   5.192   1.607  17.570  0.2588 -0.1688  0.6065
  922TIP3    H124181   5.285   1.617  17.547  0.2033 -0.2127  0.3645
  922TIP3    H224182   5.145   1.656  17.502  0.1036 -0.1771  0.7091
  923TIP3   OH224183   5.454   4.811   3.074  0.0736 -0.1259  0.4402
  923TIP3    H124184   5.427   4.721   3.097  3.5574 -1.1371  1.1263
  923TIP3    H224185   5.453   4.812   2.978 -0.1727 -0.8392  0.4261
  924TIP3   OH224186   3.220   4.949  13.071  0.7587  0.0666  0.6599
  924TIP3    H124187   3.287   4.883  13.054  0.0584 -0.1863 -1.3775
  924TIP3    H224188   3.179   4.921  13.153  0.2309 -2.3103 -0.3213
  925TIP3   OH224189   5.152   3.316  15.313  0.7902  0.2174 -0.0174
  925TIP3    H124190   5.152   3.298  15.219 -1.0336 -1.4890  0.2512
  925TIP3    H224191   5.166   3.231  15.354 -2.5924  0.1480  1.2736
  926TIP3   OH224192   0.285   1.272  12.109 -0.3320  0.3308  0.0527
  926TIP3    H124193   0.276   1.358  12.150  0.1976  0.7260 -0.6209
  926TIP3    H224194   0.315   1.214  12.178  1.6210  1.2179  0.0106
  927TIP3   OH224195   4.153   3.572   5.732  0.2373  0.2318 -0.0535
  927TIP3    H124196   4.158   3.494   5.786  0.2727  1.0482  1.1555
  927TIP3    H224197   4.152   3.539   5.642 -0.0669 -1.1632  0.4393
  928TIP3   OH224198   1.077   2.860  17.248 -0.2208  0.4409 -0.4980
  928TIP3    H124199   1.171   2.871  17.239 -0.1707  1.3602  0.8590
  928TIP3    H224200   1.055   2.903  17.330 -1.5878 -1.2061  0.0575
  929TIP3   OH224201   5.124   0.399  12.777  0.1930 -0.3079  0.0872
  929TIP3    H124202   5.100   0.448  12.699 -0.7553  0.0669  0.6043
  929TIP3    H224203   5.053   0.336  12.789  1.0355 -1.3442 -0.1535
  930TIP3   OH224204   4.096   4.416   3.892  0.1756  0.1055  0.0368
  930TIP3    H124205   4.016   4.465   3.875 -0.7386 -1.1379  0.6456
  930TIP3    H224206   4.111   4.366   3.811 -0.0643 -0.1989  0.1784
  931TIP3   OH224207   2.344   3.486   4.734  0.3361 -0.5157 -0.5448
  931TIP3    H124208   2.307   3.410   4.692  1.4502 -1.1662 -0.3979
  931TIP3    H224209   2.436   3.463   4.749  0.4853  0.5111  0.2873
  932TIP3   OH224210   0.825   0.130   5.932 -0.2072 -0.4143  0.1316
  932TIP3    H124211   0.825   0.140   6.027 -1.3370 -0.4518  0.1434
  932TIP3    H224212   0.742   0.087   5.912  0.1070 -0.5848 -0.8581
  933TIP3   OH224213   0.837   3.485   6.353  0.1223  0.5674 -0.2509
  933TIP3    H124214   0.771   3.428   6.314  0.0353  0.9446 -0.6599
  933TIP3    H224215   0.798   3.514   6.436 -0.0488  0.4525 -0.2913
  934TIP3   OH224216   4.502   4.613   2.156  0.0842 -0.5954 -0.1138
  934TIP3    H124217   4.431   4.552   2.135 -1.2968  1.0110 -0.3003
  934TIP3    H224218   4.458   4.686   2.199  1.7108  0.2523  0.1627
  935TIP3   OH224219   4.002   0.654  13.356  0.0033 -0.0745 -0.3203
  935TIP3    H124220   3.940   0.673  13.286 -0.5565 -0.0939  0.1659
  935TIP3    H224221   4.074   0.716  13.342  0.3164 -0.6557 -1.4260
  936TIP3   OH224222   5.956   1.268  11.975 -0.6928 -0.1015 -0.0293
  936TIP3    H124223   6.015   1.195  11.962 -0.8456 -0.5061  1.3539
  936TIP3    H224224   6.013   1.343  11.994 -0.5624 -0.7407  2.5055
  937TIP3   OH224225   4.173   1.064   3.914 -0.4337  0.3123 -0.2100
  937TIP3    H124226   4.128   1.004   3.854  2.2251 -0.8130 -1.2011
  937TIP3    H224227   4.229   1.117   3.857 -0.5163  1.7414  0.9725
  938TIP3   OH224228   4.369   1.772  16.234 -0.1722 -0.4457 -0.2441
  938TIP3    H124229   4.307   1.777  16.161  0.0217  0.1671 -0.3767
  938TIP3    H224230   4.432   1.842  16.217 -1.3807  1.2140  1.6625
  939TIP3   OH224231   4.870   3.268   1.460  0.1164  0.0400 -0.1475
  939TIP3    H124232   4.937   3.209   1.494  1.6393  1.2234 -0.9621
  939TIP3    H224233   4.844   3.228   1.376  0.2694 -0.0932 -0.1317
  940TIP3   OH224234   3.873   3.455  14.583  0.1210 -0.0646  0.1793
  940TIP3    H124235   3.829   3.503  14.653 -0.1560  0.9314 -0.6542
  940TIP3    H224236   3.954   3.503  14.566  0.9114 -1.1355  0.7976
  941TIP3   OH224237   5.386   6.528  12.493  0.5064  0.1472 -0.7947
  941TIP3    H124238   5.325   6.514  12.421  2.3914 -2.6739 -2.0137
  941TIP3    H224239   5.385   6.446  12.542  0.5821  1.3911  1.4430
  942TIP3   OH224240   5.494   2.875   2.693 -0.4471 -0.5455  0.0593
  942TIP3    H124241   5.567   2.905   2.638  0.4031 -1.7204  0.5195
  942TIP3    H224242   5.432   2.948   2.692 -0.1251 -0.2536 -1.8668
  943TIP3   OH224243   0.536   4.005  14.490 -0.0051 -0.4640 -0.1097
  943TIP3    H124244   0.487   4.005  14.408  2.3811  0.0364 -1.6152
  943TIP3    H224245   0.597   3.933  14.482  1.5529  0.7500  0.3952
  944TIP3   OH224246   6.167   4.100   2.677  0.2459  0.0317 -0.1449
  944TIP3    H124247   6.116   4.034   2.630  0.3972 -0.5771  0.5232
  944TIP3    H224248   6.230   4.133   2.613  0.0162 -0.3084 -0.5453
  945TIP3   OH224249   5.563   4.502   6.203  0.3998 -0.2068 -0.0144
  945TIP3    H124250   5.487   4.454   6.237  0.5927  0.3486  1.2795
  945TIP3    H224251   5.602   4.542   6.281  0.6837  1.4245 -0.9585
  946TIP3   OH224252   5.008   3.733   2.501 -0.2055 -0.3027  0.2392
  946TIP3    H124253   4.978   3.644   2.519  0.2136 -0.7876 -1.3314
  946TIP3    H224254   5.002   3.742   2.406  1.3882  0.7483  0.2064
  947TIP3   OH224255   3.554   6.102   3.437  0.7522  0.2574 -0.3787
  947TIP3    H124256   3.517   6.136   3.519  0.5304 -1.9103  0.4744
  947TIP3    H224257   3.631   6.157   3.422  1.8567 -0.3957  2.2865
  948TIP3   OH224258   4.583   6.649   5.512 -0.0605  0.3461  0.0174
  948TIP3    H124259   4.515   6.583   5.521 -0.1987  0.4478 -0.2803
  948TIP3    H224260   4.544   6.718   5.459 -0.2784  1.1643  1.1849
  949TIP3   OH224261   6.097   6.307   3.003 -0.5774  0.6125 -0.6128
  949TIP3    H124262   6.190   6.314   3.024 -0.4341 -1.3878 -0.4274
  949TIP3    H224263   6.057   6.379   3.052  0.2675 -1.3203  3.3180
  950TIP3   OH224264   3.573   6.351   4.818 -0.4736  0.3685 -0.5967
  950TIP3    H124265   3.565   6.380   4.909  1.3934 -1.4817  0.2476
  950TIP3    H224266   3.489   6.308   4.799 -0.4628 -0.2590  0.6680
  951TIP3   OH224267   1.338   5.731  11.751 -0.0674  0.2675 -0.0767
  951TIP3    H124268   1.300   5.779  11.825  1.2405  1.2986 -0.0299
  951TIP3    H224269   1.389   5.661  11.792 -0.6945 -0.2089 -0.0881
  952TIP3   OH224270   6.611   0.744   3.636  0.0958  0.0261  0.1778
  952TIP3    H124271   6.557   0.667   3.652 -0.4878  0.2649 -0.6165
  952TIP3    H224272   6.552   0.808   3.597  0.2807  1.3064  1.8773
  953TIP3   OH224273   4.745   6.388   2.849 -0.7792  0.2269 -0.8166
  953TIP3    H124274   4.708   6.303   2.826 -1.1234  0.2604 -0.4161
  953TIP3    H224275   4.693   6.451   2.798 -1.3049  0.2758 -0.2340
  954TIP3   OH224276   3.912   6.626   3.942  0.5121 -0.5458 -0.8301
  954TIP3    H124277   3.961   6.565   3.886 -0.4105  0.0165 -2.3096
  954TIP3    H224278   3.833   6.578   3.967  0.2644 -0.3196 -1.1670
  955TIP3   OH224279   3.978   2.034  17.415  0.7019 -0.2481  0.3868
  955TIP3    H124280   3.936   2.080  17.342 -0.6150 -1.1922  0.4983
  955TIP3    H224281   3.996   2.102  17.479  1.5029  0.5336 -0.6446
  956TIP3   OH224282   4.873   0.037  13.607 -0.1079  0.2202 -0.1826
  956TIP3    H124283   4.955   0.085  13.598 -0.0175  0.1995  0.4874
  956TIP3    H224284   4.809   0.088  13.558  0.2315  0.4143 -0.4252
  957TIP3   OH224285   0.100   0.242  11.598  0.2124  0.1291 -0.0231
  957TIP3    H124286   0.160   0.206  11.663  0.7409 -2.8091 -1.9883
  957TIP3    H224287   0.141   0.226  11.514 -2.2114  0.2297 -1.3372
  958TIP3   OH224288   4.089   0.222  14.073 -0.2232 -0.1574 -0.1612
  958TIP3    H124289   4.046   0.177  14.000 -0.4056 -0.1399 -0.0659
  958TIP3    H224290   4.102   0.311  14.042 -0.0929 -0.2109 -0.2575
  959TIP3   OH224291   3.273   5.138  14.900 -0.5902 -0.2363 -0.2423
  959TIP3    H124292   3.240   5.195  14.831 -0.3265 -0.8596 -0.9057
  959TIP3    H224293   3.357   5.176  14.924 -0.5738 -0.1482 -0.4360
  960TIP3   OH224294   3.631   4.865  13.168 -0.0252  0.5660 -0.2603
  960TIP3    H124295   3.690   4.910  13.107  0.4547 -1.0021 -0.9948
  960TIP3    H224296   3.681   4.789  13.197 -1.2090 -0.0790  0.1191
  961TIP3   OH224297   0.054   3.043   2.057  0.3003 -0.1056 -0.0678
  961TIP3    H124298   0.148   3.057   2.057  0.5029 -1.2530 -1.2581
  961TIP3    H224299   0.043   2.954   2.091 -0.4630  0.4627  1.2571
  962TIP3   OH224300   1.920   5.973   3.082  0.4228  0.2895  0.0694
  962TIP3    H124301   1.855   6.032   3.119 -0.7594  0.0071 -1.4772
  962TIP3    H224302   1.970   5.942   3.158 -2.2349 -0.6870  1.5452
  963TIP3   OH224303   4.366   6.505  12.712  0.1784 -0.1832 -0.0197
  963TIP3    H124304   4.403   6.587  12.747  0.5878 -0.8862  1.2622
  963TIP3    H224305   4.427   6.480  12.642 -1.5832  2.1430 -2.5774
  964TIP3   OH224306   5.476   1.938   4.908  0.3034 -0.3723  0.4796
  964TIP3    H124307   5.522   2.015   4.940  0.3762 -0.0621 -0.3377
  964TIP3    H224308   5.497   1.935   4.814  1.6817 -2.3370  0.7917
  965TIP3   OH224309   2.256   4.163  16.341  0.3727  0.1289  0.4806
  965TIP3    H124310   2.319   4.133  16.276  2.5541  0.7007  2.2272
  965TIP3    H224311   2.303   4.229  16.392 -0.8675 -0.9732  3.2556
  966TIP3   OH224312   4.292   1.077  13.006  0.2502  0.4405 -0.1665
  966TIP3    H124313   4.242   1.158  12.993  0.7852  0.9275  0.6973
  966TIP3    H224314   4.235   1.022  13.061  0.4676  0.8238  0.4572
  967TIP3   OH224315   2.634   3.314  13.997  0.3503  0.1101 -0.2182
  967TIP3    H124316   2.612   3.375  14.067 -0.5003 -0.9414  0.4637
  967TIP3    H224317   2.690   3.365  13.938  1.3923  0.9230  1.3823
  968TIP3   OH224318   5.993   4.919  17.094 -0.3525 -0.3740 -0.1320
  968TIP3    H124319   6.051   4.928  17.018  1.0925 -1.0829  0.8448
  968TIP3    H224320   5.918   4.974  17.073  0.6892  0.6417 -1.4311
  969TIP3   OH224321   3.321   0.910  17.133 -0.0838  0.1518  0.0823
  969TIP3    H124322   3.320   0.946  17.044 -2.9314 -0.9799 -0.4437
  969TIP3    H224323   3.361   0.824  17.123 -0.9803 -0.2383 -0.2596
  970TIP3   OH224324   0.617   1.961  14.691 -0.0959  0.1465  0.3687
  970TIP3    H124325   0.584   1.952  14.780  1.7480 -1.7059  0.9332
  970TIP3    H224326   0.538   1.971  14.637 -1.2803  0.5787  2.1008
  971TIP3   OH224327   4.030   0.500  11.706 -0.1989  0.2856 -0.3675
  971TIP3    H124328   4.024   0.595  11.705 -0.6000  0.2789  0.3996
  971TIP3    H224329   3.940   0.470  11.717  0.1296 -0.1047  1.6914
  972TIP3   OH224330   3.221   2.670  14.949 -0.1398 -0.5074 -0.2039
  972TIP3    H124331   3.261   2.642  14.867  1.2400 -1.5217  0.7571
  972TIP3    H224332   3.244   2.763  14.956  1.8772 -0.9769  0.1616
  973TIP3   OH224333   5.729   2.087  16.847  0.3071 -0.3271 -0.2616
  973TIP3    H124334   5.752   2.118  16.934 -0.3841  0.0316 -0.2003
  973TIP3    H224335   5.633   2.085  16.846  0.2001  1.7808 -1.7159
  974TIP3   OH224336   1.464   6.635   3.372  0.0714  0.4490 -0.0043
  974TIP3    H124337   1.439   6.715   3.418  0.4584  1.3031 -1.2317
  974TIP3    H224338   1.467   6.568   3.441 -1.6521  1.1578  0.8046
  975TIP3   OH224339   4.388   6.389   1.867  0.3202  0.0711  0.1226
  975TIP3    H124340   4.394   6.388   1.771  1.2383  1.2047  0.1527
  975TIP3    H224341   4.411   6.300   1.893  0.6703 -0.0871 -0.6855
  976TIP3   OH224342   0.141   3.966   5.983 -0.3613  0.4806  0.7250
  976TIP3    H124343   0.233   3.944   5.967 -1.0047 -0.2571 -2.6673
  976TIP3    H224344   0.117   3.914   6.059  1.3091 -1.5634 -0.0481
  977TIP3   OH224345   4.308   2.627   0.338  0.0719 -0.1037  0.0256
  977TIP3    H124346   4.357   2.545   0.328  2.1796  1.1643 -0.7181
  977TIP3    H224347   4.338   2.682   0.265  0.8490  2.3080  2.0181
  978TIP3   OH224348   3.989   6.079   0.693  0.1794  0.1627 -0.2897
  978TIP3    H124349   3.979   6.067   0.599  2.1824  1.1052 -0.6829
  978TIP3    H224350   3.976   5.992   0.731  2.4036 -0.8861 -1.7660
  979TIP3   OH224351   5.923   3.033  15.658  0.8762 -0.6448  0.0186
  979TIP3    H124352   5.836   3.059  15.628  0.5965  1.1710  2.1062
  979TIP3    H224353   5.983   3.085  15.606  0.5532  0.1422  0.4148
  980TIP3   OH224354   1.794   4.884   0.377  0.4414  0.5095 -0.0929
  980TIP3    H124355   1.859   4.817   0.356  1.3093  1.2900  0.0702
  980TIP3    H224356   1.720   4.864   0.319  0.9018 -0.2557 -0.4310
  981TIP3   OH224357   0.568   6.623   3.454  0.2856  0.3550 -0.8725
  981TIP3    H124358   0.472   6.626   3.455  0.2045  1.3970  2.9360
  981TIP3    H224359   0.594   6.709   3.422 -0.1834  1.3707  1.3395
  982TIP3   OH224360   0.774   3.248  15.009  0.2767 -1.0698 -0.0827
  982TIP3    H124361   0.751   3.333  15.047  0.9792  0.1566 -2.1969
  982TIP3    H224362   0.720   3.184  15.056 -0.7585  0.6091  1.1126
  983TIP3   OH224363   2.781   3.906  14.179  0.0253 -0.6891  0.1909
  983TIP3    H124364   2.696   3.934  14.213 -0.3865 -1.6217 -0.0241
  983TIP3    H224365   2.832   3.987  14.171 -0.3553 -0.2650  1.6305
  984TIP3   OH224366   4.397   6.492  13.393  0.2687 -0.3338 -0.3303
  984TIP3    H124367   4.404   6.462  13.484  0.8438  4.2366  1.4400
  984TIP3    H224368   4.306   6.475  13.370 -0.4004 -0.1195  1.8457
  985TIP3   OH224369   4.351   0.393   1.508  0.3239  0.0904  0.2736
  985TIP3    H124370   4.372   0.454   1.579 -2.5977  0.6460  0.7835
  985TIP3    H224371   4.329   0.450   1.434  3.2110 -0.4792 -1.1678
  986TIP3   OH224372   0.146   2.045  13.947 -0.0126 -0.5091  0.4835
  986TIP3    H124373   0.176   2.101  13.876 -0.7910 -0.3497  0.2688
  986TIP3    H224374   0.226   2.020  13.994  0.3108  1.3544  1.0158
  987TIP3   OH224375   4.801   3.737   4.152 -0.5772  0.3707 -0.4189
  987TIP3    H124376   4.864   3.667   4.171 -0.3352  0.6904 -0.0305
  987TIP3    H224377   4.848   3.798   4.096 -0.8509  0.1303 -0.9188
  988TIP3   OH224378   0.522   4.391  16.274 -0.3215  0.1256 -0.0973
  988TIP3    H124379   0.549   4.344  16.353 -1.5823 -0.2799  0.1136
  988TIP3    H224380   0.534   4.483  16.296 -0.5598  0.0132  0.5238
  989TIP3   OH224381   3.731   1.466   3.581 -0.4815  0.0921  0.4158
  989TIP3    H124382   3.705   1.532   3.517 -0.4542  0.5985  0.9130
  989TIP3    H224383   3.675   1.391   3.563 -1.7753  0.8899  0.9937
  990TIP3   OH224384   2.034   5.649  17.496 -0.0520  0.3347  0.2750
  990TIP3    H124385   2.056   5.557  17.480 -0.3334  0.3367 -0.1449
  990TIP3    H224386   2.112   5.686  17.538  1.2850  0.6549 -2.3038
  991TIP3   OH224387   0.400   2.827   2.609 -0.4262  0.1205  0.6175
  991TIP3    H124388   0.420   2.913   2.647 -4.0764  0.9909  0.8896
  991TIP3    H224389   0.366   2.776   2.682 -2.9191  0.1734 -0.4062
  992TIP3   OH224390   1.158   6.072   1.620  0.5726  0.6345  0.6902
  992TIP3    H124391   1.196   6.055   1.534  1.5806  0.9904  1.0576
  992TIP3    H224392   1.209   6.018   1.680  0.8504  1.5110  1.2558
  993TIP3   OH224393   5.434   3.199  16.527  0.3600  0.5798  0.1285
  993TIP3    H124394   5.439   3.244  16.443  0.9920 -0.5675 -0.4755
  993TIP3    H224395   5.525   3.191  16.556  0.3661 -1.0616 -0.2302
  994TIP3   OH224396   4.179   4.569   6.593  0.1319  0.5307  0.1538
  994TIP3    H124397   4.158   4.592   6.502 -0.9604 -0.2875  0.1786
  994TIP3    H224398   4.236   4.640   6.623  0.5897  0.7625 -1.1985
  995TIP3   OH224399   1.096   6.510  17.582  0.2552 -0.7654 -0.0461
  995TIP3    H124400   1.059   6.423  17.602  3.1539 -1.7465  1.5883
  995TIP3    H224401   1.162   6.493  17.515  1.3764  0.0394  0.8308
  996TIP3   OH224402   5.509   5.103   3.246  0.2275  0.3059  0.0537
  996TIP3    H124403   5.565   5.157   3.303 -0.0574  0.8341 -0.1583
  996TIP3    H224404   5.506   5.150   3.163 -1.6140  1.0214  0.4654
  997TIP3   OH224405   5.131   5.704  17.312 -0.7766 -0.4774 -0.4417
  997TIP3    H124406   5.224   5.680  17.312 -0.9720 -1.3467  1.1897
  997TIP3    H224407   5.085   5.621  17.321 -1.6302  0.0964  0.7087
  998TIP3   OH224408   0.121   0.064  16.649 -0.6128  0.4832  0.1557
  998TIP3    H124409   0.194   0.024  16.602 -1.3757 -1.2443  0.3611
  998TIP3    H224410   0.112   0.151  16.611  0.0953 -0.1186 -1.4598
  999TIP3   OH224411   1.394   1.333   5.191  0.3216  0.5514  0.3937
  999TIP3    H124412   1.440   1.409   5.156 -0.8934  1.3966  0.5553
  999TIP3    H224413   1.322   1.370   5.242 -0.8409 -0.7218 -0.2580
 1000TIP3   OH224414   0.885   1.454   5.282  0.5601  0.1550 -0.1073
 1000TIP3    H124415   0.932   1.399   5.219  0.5329 -0.1693  0.1566
 1000TIP3    H224416   0.945   1.526   5.300  0.6919  0.0882 -0.2743
 1001TIP3   OH224417   1.310   6.336  15.979  0.6782 -0.2068  0.1008
 1001TIP3    H124418   1.323   6.320  16.072  1.6920 -0.1548 -0.0222
 1001TIP3    H224419   1.342   6.257  15.936  0.9601  0.0885 -0.2377
 1002TIP3   OH224420   5.881   3.857   6.072  0.0495  0.1858 -0.2958
 1002TIP3    H124421   5.835   3.779   6.103  0.7309 -0.9232 -1.9176
 1002TIP3    H224422   5.943   3.878   6.141 -0.6261 -0.2941  0.4669
 1003TIP3   OH224423   3.230   0.547  15.313 -0.6433  0.2452  0.0114
 1003TIP3    H124424   3.206   0.556  15.405  1.0422 -0.5898  0.5829
 1003TIP3    H224425   3.218   0.454  15.294  0.0278  0.2143 -0.2900
 1004TIP3   OH224426   1.027   3.181  13.083  0.3228 -0.2873 -0.5251
 1004TIP3    H124427   1.094   3.210  13.146 -0.5384  2.0026 -0.5549
 1004TIP3    H224428   1.072   3.186  12.998  0.3783  0.5051 -0.4649
 1005TIP3   OH224429   6.436   4.469   3.523 -0.7075 -0.7361  0.4478
 1005TIP3    H124430   6.403   4.512   3.444 -0.6250  0.9544  1.2985
 1005TIP3    H224431   6.488   4.395   3.491  0.8842  0.9925 -1.1618
 1006TIP3   OH224432   5.233   4.852   2.785 -0.2138 -0.2824  0.2912
 1006TIP3    H124433   5.161   4.914   2.771 -0.1774 -0.4638 -0.8183
 1006TIP3    H224434   5.234   4.798   2.706  2.9238  1.5399 -1.0900
 1007TIP3   OH224435   2.769   6.600   1.111  0.0827 -0.0322  0.1934
 1007TIP3    H124436   2.763   6.645   1.195  0.0216 -0.6487  0.5238
 1007TIP3    H224437   2.863   6.584   1.100  0.1508  0.5384 -0.1273
 1008TIP3   OH224438   4.606   3.385   4.351 -0.1570 -0.4327  0.8871
 1008TIP3    H124439   4.609   3.475   4.384  0.5704  0.0740 -0.5087
 1008TIP3    H224440   4.678   3.341   4.396 -0.0303 -0.1141  0.9977
 1009TIP3   OH224441   5.903   5.458  14.045  0.0870  0.2209 -0.1987
 1009TIP3    H124442   5.935   5.530  13.991 -0.4945 -0.1342 -1.0448
 1009TIP3    H224443   5.980   5.403  14.060  0.3224  0.5008 -0.3742
 1010TIP3   OH224444   1.028   0.932   6.948 -0.1174 -0.2091  0.2570
 1010TIP3    H124445   1.004   0.900   6.861 -1.0816  1.9021 -0.3240
 1010TIP3    H224446   1.122   0.951   6.941 -0.1347 -0.2991 -0.2458
 1011TIP3   OH224447   0.440   1.357   6.482 -0.6494 -0.3257  0.4311
 1011TIP3    H124448   0.533   1.356   6.501 -0.5474 -0.2911 -0.0374
 1011TIP3    H224449   0.399   1.396   6.559 -0.2614 -0.1754  0.5622
 1012TIP3   OH224450   2.278   6.606  16.626  0.0440 -0.1170  0.3043
 1012TIP3    H124451   2.287   6.565  16.540  0.5975 -2.3269  1.3342
 1012TIP3    H224452   2.195   6.654  16.622 -0.0587 -0.3899 -1.3716
 1013TIP3   OH224453   1.883   3.902  15.692 -0.8817 -0.3795  0.8779
 1013TIP3    H124454   1.938   3.926  15.766 -0.2095 -0.4300  0.4065
 1013TIP3    H224455   1.858   3.811  15.709  1.1728 -1.1892 -0.0562
 1014TIP3   OH224456   0.069   3.360  12.621 -0.1894  0.2812  0.2697
 1014TIP3    H124457   0.053   3.409  12.540  0.1121 -0.4827 -0.2754
 1014TIP3    H224458   0.103   3.425  12.682 -0.2696  0.8476 -0.2723
 1015TIP3   OH224459   1.325   2.066  11.745  0.5482  0.1994  0.2547
 1015TIP3    H124460   1.282   2.055  11.830  0.2551 -2.0545 -0.1312
 1015TIP3    H224461   1.275   2.136  11.702 -0.3292  0.2430  1.3044
 1016TIP3   OH224462   5.149   1.850  13.994 -0.6646 -0.3728  0.0255
 1016TIP3    H124463   5.158   1.940  13.960  1.9607 -0.2855  0.7018
 1016TIP3    H224464   5.073   1.814  13.948 -0.8407  1.6834 -1.4271
 1017TIP3   OH224465   2.199   5.802  11.485 -0.1977 -0.3042  0.3124
 1017TIP3    H124466   2.262   5.839  11.424 -0.5427 -1.6559 -0.9339
 1017TIP3    H224467   2.230   5.828  11.572  0.3776  1.5606 -0.4006
 1018TIP3   OH224468   1.317   3.123  13.916 -0.2371 -0.1900  0.0640
 1018TIP3    H124469   1.356   3.110  14.003  1.1711 -0.7823 -0.6132
 1018TIP3    H224470   1.288   3.214  13.916  0.4461  0.0407  0.8962
 1019TIP3   OH224471   6.009   6.532   2.369  0.4804  0.0789 -0.3237
 1019TIP3    H124472   5.937   6.552   2.309  1.7444  1.5824 -1.4365
 1019TIP3    H224473   6.058   6.614   2.375  1.5753 -0.6459  1.1408
 1020TIP3   OH224474   4.897   3.171   3.441 -0.1219  1.2992 -0.0937
 1020TIP3    H124475   4.870   3.087   3.404  2.5499 -0.4270  1.5355
 1020TIP3    H224476   4.816   3.221   3.448 -1.9286 -1.3156 -0.6555
 1021TIP3   OH224477   0.395   1.317   4.047 -0.2011  0.0052 -0.1701
 1021TIP3    H124478   0.389   1.394   3.990  0.6713  0.8723  0.8807
 1021TIP3    H224479   0.489   1.300   4.055 -0.2076  0.7580  2.1075
 1022TIP3   OH224480   4.241   5.950  12.952 -0.1631  0.4101 -0.8418
 1022TIP3    H124481   4.229   5.976  13.043  0.4621 -2.1038  0.0633
 1022TIP3    H224482   4.315   5.889  12.955 -0.2185  0.1727 -3.0174
 1023TIP3   OH224483   5.471   0.477   3.962 -0.1559  0.3644  0.7787
 1023TIP3    H124484   5.423   0.404   4.000 -0.1620 -1.0225 -1.6826
 1023TIP3    H224485   5.491   0.449   3.873  1.4077  2.6742  0.3069
 1024TIP3   OH224486   5.502   0.542   2.994  0.3351 -0.2132 -0.3902
 1024TIP3    H124487   5.438   0.527   3.064  0.7366 -0.6281 -0.1026
 1024TIP3    H224488   5.461   0.504   2.916 -0.1996  0.4288 -0.4250
 1025TIP3   OH224489   2.509   2.063  15.047 -0.0783  0.8549  0.5078
 1025TIP3    H124490   2.558   2.145  15.053  0.6980  0.3433  1.3732
 1025TIP3    H224491   2.573   1.995  15.066  0.1419 -0.3017 -3.4090
 1026TIP3   OH224492   4.209   0.112  15.127  0.1049  0.3319  0.2681
 1026TIP3    H124493   4.267   0.083  15.198  0.3943  1.1931  0.3893
 1026TIP3    H224494   4.216   0.042  15.061  0.3858 -0.1278  0.7748
 1027TIP3   OH224495   1.677   1.006   4.375  0.3223  0.4092  0.0107
 1027TIP3    H124496   1.665   1.059   4.296 -0.2433  0.4787  0.1438
 1027TIP3    H224497   1.771   1.013   4.393  0.2763  1.3052 -0.0211
 1028TIP3   OH224498   0.976   0.846   5.854  0.1378  0.0798  0.5887
 1028TIP3    H124499   1.043   0.913   5.842  0.6126 -0.4380  0.2777
 1028TIP3    H224500   1.005   0.796   5.930  1.3377 -1.5355 -0.8356
 1029TIP3   OH224501   6.023   2.799  15.686 -0.0323  0.6288 -0.4041
 1029TIP3    H124502   5.987   2.888  15.685  0.7762  1.0181  1.4239
 1029TIP3    H224503   6.043   2.782  15.778  2.4053 -0.3892 -1.0453
 1030TIP3   OH224504   5.049   3.099  13.694  0.8299 -0.0887  0.2790
 1030TIP3    H124505   5.094   3.015  13.694  0.9589 -0.0367 -0.7933
 1030TIP3    H224506   5.014   3.108  13.605  1.7752  1.4734  0.0134
 1031TIP3   OH224507   2.909   2.629   5.579 -0.3554  0.3278 -0.5712
 1031TIP3    H124508   2.948   2.702   5.627  0.5283 -0.3888 -0.1650
 1031TIP3    H224509   2.822   2.660   5.555 -1.1268  0.4654  2.1139
 1032TIP3   OH224510   0.623   5.299  13.194  0.4343 -0.2007 -0.0812
 1032TIP3    H124511   0.631   5.236  13.266 -4.4511 -2.3222 -0.9778
 1032TIP3    H224512   0.642   5.248  13.115  0.3540  0.5471 -0.5950
 1033TIP3   OH224513   4.336   1.400   1.789 -0.0035  0.4640  0.1848
 1033TIP3    H124514   4.431   1.410   1.791 -0.0761  1.2183  0.0477
 1033TIP3    H224515   4.312   1.411   1.697 -0.3320  1.4181  0.3699
 1034TIP3   OH224516   2.061   0.957  15.988  0.6691  0.0931  0.2082
 1034TIP3    H124517   2.101   0.974  16.073  1.4101  1.2831 -0.3402
 1034TIP3    H224518   2.120   0.896  15.945  0.4949 -0.2121  0.4019
 1035TIP3   OH224519   6.220   2.348   1.799  0.0523  0.0754 -0.4837
 1035TIP3    H124520   6.163   2.332   1.874 -0.2117 -2.6765 -1.1467
 1035TIP3    H224521   6.159   2.367   1.727  0.1147 -0.3092 -0.6400
 1036TIP3   OH224522   5.002   0.038  14.628 -0.1743 -0.3143 -0.6774
 1036TIP3    H124523   4.933  -0.027  14.622  0.1095 -0.6012 -0.8321
 1036TIP3    H224524   5.073   0.003  14.574  0.2093 -0.1659 -0.2678
 1037TIP3   OH224525   3.730   6.195  11.418 -0.6938  0.4391  0.6357
 1037TIP3    H124526   3.757   6.174  11.329 -1.3932 -0.7095  0.6824
 1037TIP3    H224527   3.688   6.116  11.451 -3.0843  1.7225  0.9552
 1038TIP3   OH224528   3.698   5.020   3.324 -0.2623 -0.6181  0.3436
 1038TIP3    H124529   3.626   5.079   3.346  0.2273  0.0919  0.0516
 1038TIP3    H224530   3.660   4.959   3.261 -0.5536 -0.1161  0.0286
 1039TIP3   OH224531   1.179   5.306   0.150  0.6022  0.2292  0.3511
 1039TIP3    H124532   1.119   5.354   0.094 -0.3220  0.4648  1.5037
 1039TIP3    H224533   1.261   5.303   0.100  0.3028  1.8325 -0.3097
 1040TIP3   OH224534   6.570   1.422  11.864 -0.5235  0.2530  0.6397
 1040TIP3    H124535   6.562   1.400  11.771 -2.4964 -1.1040  1.0544
 1040TIP3    H224536   6.643   1.483  11.868  1.9458 -2.3213 -1.3219
 1041TIP3   OH224537   4.462   0.473  12.775  0.0559 -0.0438 -0.0832
 1041TIP3    H124538   4.381   0.490  12.824 -1.3959 -1.3998 -1.8919
 1041TIP3    H224539   4.487   0.559  12.741  0.3072  0.6742  1.7585
 1042TIP3   OH224540   0.689   2.133   0.932 -0.5122 -0.4368 -0.1927
 1042TIP3    H124541   0.596   2.114   0.944 -0.5288  0.4254  1.2924
 1042TIP3    H224542   0.734   2.075   0.994 -0.1519  0.0370 -0.0062
 1043TIP3   OH224543   6.182   5.643   4.406 -0.4220  0.2769 -0.6755
 1043TIP3    H124544   6.245   5.669   4.338 -0.0836  1.7524  0.1486
 1043TIP3    H224545   6.229   5.656   4.488 -1.7164  1.2270 -0.0458
 1044TIP3   OH224546   3.474   2.200  14.060 -0.0735  0.2026  0.2265
 1044TIP3    H124547   3.525   2.171  14.136  0.4269 -1.1016 -0.5752
 1044TIP3    H224548   3.396   2.145  14.060  0.5271 -0.7095 -0.8816
 1045TIP3   OH224549   0.989   0.047   1.192  0.0241 -0.3029  0.2235
 1045TIP3    H124550   1.058   0.007   1.245  0.1858  1.0991  1.1332
 1045TIP3    H224551   0.908   0.021   1.236 -0.0683 -1.8473 -0.7749
 1046TIP3   OH224552   4.793   0.871  11.830  0.1753 -1.0736  0.2842
 1046TIP3    H124553   4.738   0.949  11.832  0.0175 -1.0298 -2.3522
 1046TIP3    H224554   4.733   0.798  11.842 -0.0042 -0.8965  0.4649
 1047TIP3   OH224555   2.465   3.714  17.178  0.5460  0.3415  0.2875
 1047TIP3    H124556   2.407   3.641  17.159 -0.0719  1.1848 -1.2200
 1047TIP3    H224557   2.421   3.791  17.141  1.3079  1.4491  1.5827
 1048TIP3   OH224558   2.558   4.738   3.119  0.3132 -0.1110  0.3310
 1048TIP3    H124559   2.477   4.688   3.118  1.9828 -3.0246 -0.6883
 1048TIP3    H224560   2.537   4.818   3.169 -3.3523 -0.2873 -0.6719
 1049TIP3   OH224561   4.460   4.468  14.085 -0.3825  0.3138  0.0677
 1049TIP3    H124562   4.466   4.548  14.137  0.6082 -0.5693  1.3743
 1049TIP3    H224563   4.543   4.466  14.036 -0.4753  0.1686 -0.0819
 1050TIP3   OH224564   3.324   3.325  12.858 -0.0978  0.3550  0.1378
 1050TIP3    H124565   3.389   3.369  12.912 -0.1834  0.0354  0.5038
 1050TIP3    H224566   3.324   3.234  12.888 -1.7317  0.6516  1.1526
 1051TIP3   OH224567   4.604   2.873  12.241  0.2427  0.3946 -0.1081
 1051TIP3    H124568   4.550   2.892  12.317  0.7545 -0.8757  0.5969
 1051TIP3    H224569   4.634   2.783  12.254 -0.4564 -0.2104 -2.2953
 1052TIP3   OH224570   2.500   6.600  12.559  0.0838  0.8058  0.7327
 1052TIP3    H124571   2.589   6.628  12.581  0.9197 -1.1286  0.0007
 1052TIP3    H224572   2.448   6.619  12.637  1.6828 -0.3460  2.1443
 1053TIP3   OH224573   5.388   5.220   6.023 -0.4026  0.4258  0.5146
 1053TIP3    H124574   5.351   5.137   6.055  0.6785 -0.6814 -0.9757
 1053TIP3    H224575   5.318   5.258   5.970 -0.5714 -0.0394  0.3952
 1054TIP3   OH224576   3.390   2.937  15.820  0.4905 -0.6619  0.1957
 1054TIP3    H124577   3.458   2.963  15.759 -1.2976 -0.1652 -1.6747
 1054TIP3    H224578   3.373   2.845  15.800 -0.3643 -0.3948 -0.3503
 1055TIP3   OH224579   2.245   1.535   0.446 -0.4499 -0.1088 -0.2743
 1055TIP3    H124580   2.274   1.537   0.354 -0.0623  1.1907 -0.1499
 1055TIP3    H224581   2.279   1.453   0.480  1.5883  0.5309 -0.6365
 1056TIP3   OH224582   3.922   5.128   3.129  0.0138 -0.0159  0.4560
 1056TIP3    H124583   3.911   5.146   3.222 -1.6241  1.8978 -0.0233
 1056TIP3    H224584   3.837   5.150   3.090  1.0181  0.4362 -1.6376
 1057TIP3   OH224585   2.845   2.178  12.563  0.2818 -0.6853  0.3172
 1057TIP3    H124586   2.822   2.139  12.479  1.2339 -1.1870  0.2829
 1057TIP3    H224587   2.789   2.132  12.626 -0.5286 -0.2186 -0.0364
 1058TIP3   OH224588   3.472   2.057   0.331  0.4745  0.3108  0.2740
 1058TIP3    H124589   3.514   2.039   0.247  2.9403 -0.7936  1.6370
 1058TIP3    H224590   3.512   1.994   0.392 -2.7316 -0.3783  1.9010
 1059TIP3   OH224591   1.378   2.365   4.564  0.3215 -1.0473 -0.2226
 1059TIP3    H124592   1.466   2.394   4.586  0.1565 -0.3406 -0.4771
 1059TIP3    H224593   1.329   2.445   4.550  0.0731 -1.4452 -1.7926
 1060TIP3   OH224594   6.348   5.272  17.499 -0.0100  0.5302  0.5149
 1060TIP3    H124595   6.274   5.265  17.438  1.4927  0.5925 -1.4282
 1060TIP3    H224596   6.330   5.351  17.549 -0.7252  1.1889 -0.7135
 1061TIP3   OH224597   2.338   0.847  17.450 -0.0094  0.2895 -0.1385
 1061TIP3    H124598   2.357   0.866  17.542 -1.6803 -0.2499  0.3570
 1061TIP3    H224599   2.256   0.797  17.452  1.0394 -1.6475 -1.7741
 1062TIP3   OH224600   1.867   5.853  17.049 -0.5687  0.1164  0.1479
 1062TIP3    H124601   1.796   5.792  17.069 -0.3726 -0.1215  0.1101
 1062TIP3    H224602   1.863   5.866  16.955 -0.2830 -0.2382  0.0856
 1063TIP3   OH224603   3.667   1.344  12.329  0.1078 -0.6496 -0.5783
 1063TIP3    H124604   3.752   1.388  12.324 -1.7397  3.5330  0.9826
 1063TIP3    H224605   3.629   1.356  12.242 -0.7255  1.9274  0.0549
 1064TIP3   OH224606   3.057   2.576  13.828 -0.0809  0.8941  0.3346
 1064TIP3    H124607   3.119   2.604  13.761 -0.1684  0.1500 -0.0657
 1064TIP3    H224608   3.066   2.481  13.831 -1.2857  0.7608  0.1791
 1065TIP3   OH224609   3.387   0.500  12.971  0.3291  0.2728  0.2367
 1065TIP3    H124610   3.390   0.450  13.053 -0.2545  0.2990  0.2802
 1065TIP3    H224611   3.293   0.516  12.957  0.4356  0.3467 -0.3908
 1066TIP3   OH224612   0.559   1.608   4.660  0.0521 -0.1680  0.5296
 1066TIP3    H124613   0.540   1.691   4.615  0.0203  0.0384  0.9153
 1066TIP3    H224614   0.492   1.548   4.629  0.6305 -0.3193 -0.4739
 1067TIP3   OH224615   5.319   5.969   1.945 -0.2356 -0.1937 -0.1342
 1067TIP3    H124616   5.234   5.997   1.978 -0.8291  0.5338 -2.1627
 1067TIP3    H224617   5.305   5.878   1.918 -0.5921  0.1482 -1.1353
 1068TIP3   OH224618   2.128   4.725  12.744  0.1179  0.6727 -0.1902
 1068TIP3    H124619   2.087   4.799  12.700  1.5920  2.0972  0.7275
 1068TIP3    H224620   2.116   4.743  12.837  3.2228  1.4956  0.1573
 1069TIP3   OH224621   1.882   5.960   2.317  0.0037 -0.4418  0.0009
 1069TIP3    H124622   1.790   5.964   2.290  0.0938  0.9978 -0.1807
 1069TIP3    H224623   1.884   5.889   2.382 -0.3547 -3.4790 -3.0086
 1070TIP3   OH224624   5.875   1.923  16.543 -0.7372  0.2886 -0.3638
 1070TIP3    H124625   5.890   1.875  16.461  0.8923  0.4469 -0.1758
 1070TIP3    H224626   5.781   1.910  16.560 -0.7295 -1.3271 -1.2563
 1071TIP3   OH224627   1.778   1.682   4.606  0.1468  0.6602 -0.6563
 1071TIP3    H124628   1.730   1.751   4.559 -0.2885  0.1381 -0.9869
 1071TIP3    H224629   1.757   1.602   4.559 -0.2201  0.1361  0.3832
 1072TIP3   OH224630   3.004   3.145   3.771  0.9241 -0.1329 -0.1334
 1072TIP3    H124631   2.912   3.174   3.773  1.0629  0.3155  1.7350
 1072TIP3    H224632   3.022   3.119   3.861  3.0297  1.0459 -0.1670
 1073TIP3   OH224633   3.448   2.661   4.688 -0.4351  0.1272  0.1149
 1073TIP3    H124634   3.423   2.590   4.629  2.5652  0.0211 -1.2328
 1073TIP3    H224635   3.510   2.713   4.637  2.1495  0.2011  3.0321
 1074TIP3   OH224636   4.549   3.247  15.881 -0.3086  0.1814 -0.0579
 1074TIP3    H124637   4.456   3.256  15.858 -0.5574  1.9452  1.4722
 1074TIP3    H224638   4.551   3.175  15.943 -0.7246  0.4610  0.2843
 1075TIP3   OH224639   4.289   2.538   1.099  0.0963 -0.5406 -0.0658
 1075TIP3    H124640   4.320   2.487   1.024  1.5531  1.4563 -0.9170
 1075TIP3    H224641   4.197   2.556   1.080  0.6045  0.4672 -1.7573
 1076TIP3   OH224642   0.198   6.200   5.748 -0.9544  0.0731 -0.3212
 1076TIP3    H124643   0.194   6.253   5.669 -2.4156 -0.3815 -0.5850
 1076TIP3    H224644   0.108   6.171   5.762 -0.1768 -2.6050 -0.3802
 1077TIP3   OH224645   2.454   0.816   0.777 -1.0098 -0.5475  0.2422
 1077TIP3    H124646   2.521   0.848   0.716 -1.7565 -1.1692 -0.9580
 1077TIP3    H224647   2.491   0.734   0.811 -0.4934 -0.0849  0.8233
 1078TIP3   OH224648   3.210   5.214  13.089  0.8732 -0.0441  0.9957
 1078TIP3    H124649   3.290   5.204  13.141  1.3147  0.6936  0.4774
 1078TIP3    H224650   3.193   5.126  13.055  2.6096  0.1467 -0.5178
 1079TIP3   OH224651   2.426   4.122  15.765 -0.1023  0.4541 -0.0541
 1079TIP3    H124652   2.512   4.081  15.755 -0.1013  0.2356  0.8104
 1079TIP3    H224653   2.444   4.216  15.770 -0.2275  0.8558 -3.9020
 1080TIP3   OH224654   0.049   1.349  16.676 -0.5407  0.0664 -0.1701
 1080TIP3    H124655   0.121   1.306  16.631 -0.1271  0.2764  0.2919
 1080TIP3    H224656   0.090   1.412  16.735 -1.0800 -0.1032  0.4054
 1081TIP3   OH224657   0.261   6.052  11.824  0.5410 -0.1571  0.0561
 1081TIP3    H124658   0.318   6.061  11.901 -0.7517 -1.8949  1.2966
 1081TIP3    H224659   0.173   6.065  11.858 -0.0071 -0.2021 -1.2958
 1082TIP3   OH224660   5.347   4.962  15.345 -0.6361  0.6515 -0.1264
 1082TIP3    H124661   5.395   5.045  15.340 -0.6810  0.7541  0.9276
 1082TIP3    H224662   5.270   4.983  15.398 -0.9974  0.0919 -0.4242
 1083TIP3   OH224663   2.903   4.899   0.972  0.1690 -0.6078 -0.4516
 1083TIP3    H124664   2.828   4.957   0.984  1.2343  0.6483  0.4669
 1083TIP3    H224665   2.919   4.899   0.877  0.2507  0.7630 -0.4520
 1084TIP3   OH224666   2.999   6.026   1.778  0.1584  0.5286  0.3116
 1084TIP3    H124667   2.977   6.048   1.687  1.4723 -1.1345 -0.4768
 1084TIP3    H224668   3.094   6.037   1.783  0.2004 -0.1342  1.2492
 1085TIP3   OH224669   3.138   2.733   1.432 -0.1366 -0.2425 -0.3635
 1085TIP3    H124670   3.159   2.644   1.460 -0.9694 -0.6283 -0.9186
 1085TIP3    H224671   3.043   2.734   1.423 -0.0703  0.4553 -1.1850
 1086TIP3   OH224672   6.576   0.842  13.806 -0.2150 -0.3506 -0.5419
 1086TIP3    H124673   6.644   0.905  13.783 -0.6166  0.9167  1.4547
 1086TIP3    H224674   6.621   0.758  13.806  0.6675  0.0784 -1.9282
 1087TIP3   OH224675   6.095   5.209   6.181 -0.1159  0.2230 -0.2817
 1087TIP3    H124676   6.157   5.242   6.246  0.0946 -0.7300  0.0126
 1087TIP3    H224677   6.143   5.213   6.098 -0.0465  0.5204 -0.2289
 1088TIP3   OH224678   4.173   4.514   5.804 -0.0673 -0.4883  0.0030
 1088TIP3    H124679   4.080   4.516   5.782 -0.5060 -2.1834  1.4889
 1088TIP3    H224680   4.180   4.567   5.883  0.2597 -0.2173 -0.2078
 1089TIP3   OH224681   4.216   1.607   0.548 -0.6515  0.3299  0.4261
 1089TIP3    H124682   4.174   1.575   0.468  0.8621 -0.8836  0.0878
 1089TIP3    H224683   4.160   1.679   0.576 -2.2476 -0.4022 -0.7032
 1090TIP3   OH224684   3.071   3.311  13.879  0.0632 -0.7062  0.0613
 1090TIP3    H124685   3.148   3.344  13.924  0.0945 -1.8843  0.9138
 1090TIP3    H224686   3.104   3.243  13.820 -0.1257 -0.0073 -0.8713
 1091TIP3   OH224687   3.789   4.943   4.890  0.2160 -0.1680 -0.6344
 1091TIP3    H124688   3.761   5.032   4.873 -1.0065 -0.2735  0.6416
 1091TIP3    H224689   3.843   4.950   4.970 -1.9134 -0.8193  0.9604
 1092TIP3   OH224690   4.380   2.713   4.993  0.3080 -0.3779  1.2366
 1092TIP3    H124691   4.452   2.662   4.956  0.1568 -0.4412  1.0324
 1092TIP3    H224692   4.424   2.774   5.053  0.5591 -0.2476  0.9275
 1093TIP3   OH224693   3.725   0.697  16.172 -0.2943 -0.5081 -0.0859
 1093TIP3    H124694   3.669   0.625  16.143 -0.6652 -0.2426 -0.0345
 1093TIP3    H224695   3.795   0.700  16.107 -0.4661 -0.6927 -0.2818
 1094TIP3   OH224696   4.687   2.956   6.467  0.6149 -0.0490  0.1323
 1094TIP3    H124697   4.745   2.883   6.449 -0.1171 -0.9900  1.4782
 1094TIP3    H224698   4.602   2.917   6.483 -0.3548  1.2751 -1.3961
 1095TIP3   OH224699   1.740   2.761   3.554  0.3099 -0.0013  0.0776
 1095TIP3    H124700   1.681   2.693   3.587  0.3147 -0.8032 -1.4670
 1095TIP3    H224701   1.728   2.835   3.614 -1.2211 -0.6313  0.5921
 1096TIP3   OH224702   3.867   0.708   4.833 -0.2398 -0.0199 -0.3607
 1096TIP3    H124703   3.797   0.683   4.773 -1.6175  1.8302  0.3897
 1096TIP3    H224704   3.918   0.773   4.786 -0.7743  0.7553  0.1051
 1097TIP3   OH224705   2.056   1.646   3.505  0.8646  0.4402  0.2354
 1097TIP3    H124706   2.039   1.566   3.555 -0.8335  1.3944  1.2993
 1097TIP3    H224707   2.083   1.615   3.418 -1.3777 -1.3244  0.0771
 1098TIP3   OH224708   0.529   5.394   3.415 -0.0375  0.3831 -0.8271
 1098TIP3    H124709   0.547   5.328   3.347 -0.0126 -1.1806  0.6299
 1098TIP3    H224710   0.615   5.421   3.446 -0.0284 -0.7358  0.2236
 1099TIP3   OH224711   1.793   3.503  12.519 -0.6278  0.0449 -0.1643
 1099TIP3    H124712   1.722   3.524  12.580 -0.0972 -1.6620  1.1408
 1099TIP3    H224713   1.867   3.555  12.550 -1.5068  2.7715 -2.2584
 1100TIP3   OH224714   0.853   2.855   0.380 -0.0413  0.3040 -0.4150
 1100TIP3    H124715   0.798   2.795   0.430  0.1663  0.4104 -0.0590
 1100TIP3    H224716   0.792   2.896   0.318 -0.2189 -0.1292 -0.5321
 1101TIP3   OH224717   0.795   1.439  16.129  0.1617 -0.3168  0.1558
 1101TIP3    H124718   0.846   1.434  16.210 -1.7095  0.6590  1.4731
 1101TIP3    H224719   0.705   1.453  16.158 -0.2920  2.3904 -2.0942
 1102TIP3   OH224720   4.673   6.589  15.498 -0.6115  0.2037 -0.1693
 1102TIP3    H124721   4.732   6.655  15.534  0.1057 -1.1232  1.2050
 1102TIP3    H224722   4.594   6.597  15.551 -0.8108  0.4570 -0.5034
 1103TIP3   OH224723   3.455   0.908   0.697 -0.5858  0.1884 -0.4442
 1103TIP3    H124724   3.405   0.895   0.777 -1.0284  2.2375 -0.3429
 1103TIP3    H224725   3.485   0.999   0.701  1.3154 -0.3316 -1.5467
 1104TIP3   OH224726   4.012   1.308   2.594  0.2599 -0.2766  0.8456
 1104TIP3    H124727   4.025   1.273   2.506 -2.4540 -2.9037  1.3228
 1104TIP3    H224728   3.957   1.386   2.582  0.2121 -0.4141  0.1723
 1105TIP3   OH224729   2.298   6.179  11.774  0.8532 -0.6536  0.2842
 1105TIP3    H124730   2.352   6.243  11.730  0.4373 -0.6301 -0.2020
 1105TIP3    H224731   2.216   6.177  11.724  0.1559 -0.2324  1.3614
 1106TIP3   OH224732   4.549   2.521   4.878 -0.3327  0.0672  0.1095
 1106TIP3    H124733   4.598   2.596   4.846 -0.3379  0.0571  0.0796
 1106TIP3    H224734   4.557   2.454   4.810 -2.0472  0.7612 -0.8389
 1107TIP3   OH224735   0.966   5.376  12.059 -0.0874  0.0742  0.4451
 1107TIP3    H124736   1.036   5.349  12.000 -0.7894 -0.6445 -0.0929
 1107TIP3    H224737   0.918   5.443  12.010  0.6764  1.1467  1.1273
 1108TIP3   OH224738   4.320   2.156  12.037  0.1431  0.1801  0.1872
 1108TIP3    H124739   4.258   2.145  12.109  1.1937  0.2727  1.1226
 1108TIP3    H224740   4.389   2.091  12.054 -0.6672 -1.3670 -1.9418
 1109TIP3   OH224741   3.474   1.408   5.665  0.8425 -0.3813 -0.5166
 1109TIP3    H124742   3.485   1.446   5.752  2.3770  0.1571 -0.9002
 1109TIP3    H224743   3.390   1.363   5.668  0.2258  0.7781  0.8127
 1110TIP3   OH224744   3.862   4.268  16.284  0.2422  0.0776 -0.1507
 1110TIP3    H124745   3.840   4.327  16.356 -0.7384  0.5351 -0.7993
 1110TIP3    H224746   3.778   4.230  16.257  0.6721 -0.5461 -0.6581
 1111TIP3   OH224747   1.451   0.271   2.382 -0.5661 -0.0835 -0.0193
 1111TIP3    H124748   1.363   0.289   2.416  0.5309  0.5048  2.8405
 1111TIP3    H224749   1.499   0.353   2.396  0.5356 -0.4777 -1.2699
 1112TIP3   OH224750   5.364   3.102   3.420  0.0108 -0.1805  0.4446
 1112TIP3    H124751   5.394   3.166   3.356 -1.3034 -0.8995 -0.9565
 1112TIP3    H224752   5.293   3.146   3.467 -0.1549 -0.2344  0.2439
 1113TIP3   OH224753   0.839   4.603  16.698  0.0237 -0.1351  0.1664
 1113TIP3    H124754   0.864   4.578  16.609 -1.9137 -2.8545  0.2825
 1113TIP3    H224755   0.816   4.521  16.741 -0.9443  1.3060  2.5871
 1114TIP3   OH224756   3.212   3.407  12.049  0.6752  0.0901  0.1745
 1114TIP3    H124757   3.255   3.324  12.070 -2.2039 -1.2224  1.5120
 1114TIP3    H224758   3.130   3.404  12.098  0.7053  4.0828  0.7640
 1115TIP3   OH224759   5.754   5.599  11.659  0.2074 -0.5268 -0.6629
 1115TIP3    H124760   5.673   5.649  11.667  1.7517  2.3502 -1.5827
 1115TIP3    H224761   5.762   5.580  11.565 -0.4160 -2.7927 -0.3280
 1116TIP3   OH224762   2.526   1.391   2.768  0.1268 -0.1669  0.6610
 1116TIP3    H124763   2.561   1.478   2.745  2.8816 -1.2450  0.3278
 1116TIP3    H224764   2.470   1.368   2.694  0.3028  0.8404  0.1933
 1117TIP3   OH224765   3.446   4.701  11.901 -0.3302 -0.1679  0.2582
 1117TIP3    H124766   3.485   4.623  11.862 -0.7828  0.7880 -2.3709
 1117TIP3    H224767   3.462   4.692  11.995  1.7594 -2.2087 -0.1897
 1118TIP3   OH224768   4.785   4.907   3.064 -0.6726  0.5409  0.6173
 1118TIP3    H124769   4.715   4.933   3.124 -1.0346  1.4709 -0.1648
 1118TIP3    H224770   4.739   4.873   2.987 -0.2322  0.0417  0.5682
 1119TIP3   OH224771   6.493   6.389   2.888  0.2929 -0.1076 -0.1979
 1119TIP3    H124772   6.464   6.330   2.819  1.9169 -1.5599  0.3023
 1119TIP3    H224773   6.432   6.374   2.960  0.1953 -0.5640 -0.3731
 1120TIP3   OH224774   4.756   2.347  14.671  0.6397  0.4769  0.0280
 1120TIP3    H124775   4.757   2.357  14.767 -1.1031 -1.3948  0.2857
 1120TIP3    H224776   4.673   2.304  14.652  1.7618 -0.8828 -2.1541
 1121TIP3   OH224777   3.458   5.386   3.097 -0.3569  0.1735 -0.0802
 1121TIP3    H124778   3.470   5.424   3.183  1.0916  2.2102 -1.0990
 1121TIP3    H224779   3.536   5.332   3.083 -0.2604  0.3816 -0.3624
 1122TIP3   OH224780   5.931   0.772   3.642 -0.2668  0.0109 -0.5336
 1122TIP3    H124781   5.845   0.777   3.600 -0.6163  1.9788  0.3045
 1122TIP3    H224782   5.991   0.812   3.578 -0.3727  0.6842 -0.2218
 1123TIP3   OH224783   2.977   0.421  13.712  0.5081 -0.2084  0.2100
 1123TIP3    H124784   2.994   0.500  13.661 -0.4496 -0.8302 -1.1605
 1123TIP3    H224785   2.985   0.350  13.648  0.1546 -1.1082  1.1429
 1124TIP3   OH224786   6.055   0.381   4.692  0.3365  0.1824  0.3907
 1124TIP3    H124787   6.012   0.434   4.625  0.3609 -1.1198 -0.7088
 1124TIP3    H224788   6.067   0.295   4.650  0.2959 -0.6973  2.0943
 1125TIP3   OH224789   5.845   5.013   1.605 -0.3724 -0.2519  0.0279
 1125TIP3    H124790   5.785   4.940   1.590 -0.0521 -0.8391  1.4809
 1125TIP3    H224791   5.928   4.971   1.625  0.2484  0.5493 -0.8129
 1126TIP3   OH224792   0.634   0.696  12.458  0.5068 -0.4893  0.2925
 1126TIP3    H124793   0.631   0.771  12.399 -1.5150  0.4667  1.5238
 1126TIP3    H224794   0.645   0.620  12.400 -0.5409  0.4906 -1.2411
 1127TIP3   OH224795   4.202   5.993  13.395 -0.0780  0.2573 -0.3955
 1127TIP3    H124796   4.152   5.918  13.428  0.1136  0.4884  0.4337
 1127TIP3    H224797   4.282   5.994  13.449 -0.5787  1.7097  0.3652
 1128TIP3   OH224798   0.843   2.852   0.860 -0.3135 -0.4131  0.3458
 1128TIP3    H124799   0.844   2.873   0.953 -0.0439 -1.4134  0.5783
 1128TIP3    H224800   0.800   2.767   0.855 -2.0649  0.4709 -0.6365
 1129TIP3   OH224801   4.394   3.002   1.979  0.7037 -0.3553 -0.2552
 1129TIP3    H124802   4.362   3.060   2.048  0.0966 -3.0514  1.9394
 1129TIP3    H224803   4.326   3.002   1.913  0.1836  0.5164  0.2675
 1130TIP3   OH224804   1.758   3.865   1.327  0.4337 -0.3356  0.4837
 1130TIP3    H124805   1.665   3.882   1.314  0.2239 -1.8805 -0.2708
 1130TIP3    H224806   1.797   3.951   1.338 -0.8006  0.4940 -1.1969
 1131TIP3   OH224807   0.784   5.639   1.070 -0.0706 -0.0619  0.4921
 1131TIP3    H124808   0.835   5.706   1.116  3.1291  0.3065 -3.0878
 1131TIP3    H224809   0.699   5.681   1.055 -0.6828  0.4160  4.1861
 1132TIP3   OH224810   2.285   5.943  15.510  0.3795  0.0173  0.7688
 1132TIP3    H124811   2.275   5.899  15.426  1.4574  1.4507 -0.1407
 1132TIP3    H224812   2.227   6.019  15.505 -0.0072 -0.2131  1.5727
 1133TIP3   OH224813   4.719   2.759   5.355  0.0561 -0.6213 -0.2032
 1133TIP3    H124814   4.806   2.727   5.330 -0.2152 -1.2982 -0.2853
 1133TIP3    H224815   4.682   2.689   5.409  0.1485  0.2932  1.1088
 1134TIP3   OH224816   2.697   4.260   1.779 -0.5185  0.2377  0.6823
 1134TIP3    H124817   2.783   4.222   1.760 -0.1537  1.6684 -0.7791
 1134TIP3    H224818   2.715   4.352   1.799 -1.5749  0.1824  2.0532
 1135TIP3   OH224819   2.997   3.794  11.939 -0.3304 -0.5497  0.8812
 1135TIP3    H124820   3.081   3.790  11.984  0.8686 -0.3704 -1.2054
 1135TIP3    H224821   2.972   3.887  11.944 -0.3124 -0.5630  1.2995
 1136TIP3   OH224822   0.508   3.785   5.009  0.3509  0.7558 -0.7379
 1136TIP3    H124823   0.454   3.863   4.998 -0.4863  0.2602 -0.3058
 1136TIP3    H224824   0.505   3.741   4.924 -1.9815 -0.5084 -0.1013
 1137TIP3   OH224825   0.825   2.098  14.068 -0.5491  0.4493  0.2033
 1137TIP3    H124826   0.881   2.044  14.012  1.4425  2.3171  0.2613
 1137TIP3    H224827   0.800   2.172  14.014  2.2115  2.8110  1.8594
 1138TIP3   OH224828   1.790   4.002  15.409 -0.0742 -0.3884 -0.4760
 1138TIP3    H124829   1.799   3.947  15.487 -2.5636  0.2643  0.3761
 1138TIP3    H224830   1.712   3.968  15.365 -0.2300  0.9022 -1.2394
 1139TIP3   OH224831   2.170   0.016   3.748  0.5503  0.4683  0.4880
 1139TIP3    H124832   2.089  -0.019   3.712  2.2353 -0.4751 -2.8292
 1139TIP3    H224833   2.176   0.104   3.713  1.5961  0.0133 -0.5460
 1140TIP3   OH224834   3.298   4.200  17.416  0.0498  0.2500 -0.0012
 1140TIP3    H124835   3.270   4.134  17.352 -2.9506  1.7032 -0.3639
 1140TIP3    H224836   3.308   4.151  17.498  0.6199 -1.0576 -0.8089
 1141TIP3   OH224837   1.424   1.100   0.243  0.5929 -0.4150 -0.2531
 1141TIP3    H124838   1.333   1.076   0.230  0.8411 -0.7549 -1.4348
 1141TIP3    H224839   1.464   1.092   0.157  1.8077 -0.5540  0.3007
 1142TIP3   OH224840   1.627   0.448  17.031  0.5512  0.7290  0.2090
 1142TIP3    H124841   1.555   0.511  17.038 -0.4302  0.1031 -2.7509
 1142TIP3    H224842   1.592   0.368  17.069  0.7841  1.1726  1.4092
 1143TIP3   OH224843   3.105   2.233  16.092  0.3648  0.1750  0.0789
 1143TIP3    H124844   3.029   2.242  16.035 -0.4978  1.9179  1.3969
 1143TIP3    H224845   3.070   2.201  16.175  1.2178  0.0376  0.3979
 1144TIP3   OH224846   3.814   5.930  17.096 -0.7872 -0.0772 -0.2731
 1144TIP3    H124847   3.780   5.847  17.128  1.2275 -0.4218  1.1040
 1144TIP3    H224848   3.738   5.989  17.098 -1.5260 -1.0012  1.9306
 1145TIP3   OH224849   6.128   4.153   4.929 -0.0623 -0.2365 -1.0113
 1145TIP3    H124850   6.215   4.171   4.896 -0.6071  0.0510 -2.3393
 1145TIP3    H224851   6.108   4.065   4.898  1.1363 -1.8676  2.3584
 1146TIP3   OH224852   6.410   5.462   0.614 -0.1497  0.0991  0.0443
 1146TIP3    H124853   6.505   5.460   0.604 -0.2250  1.9868 -1.5915
 1146TIP3    H224854   6.395   5.524   0.686 -0.1479 -1.6950  1.6853
 1147TIP3   OH224855   2.284   4.503   2.523  0.2432  0.6055 -0.0714
 1147TIP3    H124856   2.371   4.543   2.526  0.4769  0.1407 -0.5587
 1147TIP3    H224857   2.268   4.487   2.430 -0.0001 -0.1042  0.0900
 1148TIP3   OH224858   3.135   4.768  15.025 -0.4034 -0.2647  0.4571
 1148TIP3    H124859   3.193   4.696  14.999  2.7609  2.6628 -1.3656
 1148TIP3    H224860   3.071   4.773  14.955  0.4156 -0.2927 -0.3136
 1149TIP3   OH224861   3.039   6.473   3.701 -0.1907  0.0559  0.7589
 1149TIP3    H124862   2.984   6.395   3.705 -0.3737  0.1394  0.0741
 1149TIP3    H224863   3.127   6.441   3.722 -0.2308 -0.3768  0.2981
 1150TIP3   OH224864   1.746   1.461  17.124  0.7708  0.4010  0.1175
 1150TIP3    H124865   1.714   1.474  17.214  0.8982 -0.9687  0.3824
 1150TIP3    H224866   1.758   1.549  17.090  0.1046  0.9443  1.2328
 1151TIP3   OH224867   2.322   5.607  15.343  0.2569  0.2988  0.1530
 1151TIP3    H124868   2.315   5.689  15.295 -0.9958  0.3877  0.4506
 1151TIP3    H224869   2.350   5.543  15.277  0.3268  0.7801 -0.2918
 1152TIP3   OH224870   3.774   1.960  13.653 -0.2010 -0.1077 -0.7396
 1152TIP3    H124871   3.708   1.909  13.700 -0.0469 -0.5525 -1.0014
 1152TIP3    H224872   3.759   2.050  13.682 -1.8205  0.0044 -1.8251
 1153TIP3   OH224873   0.070   2.053  13.099  0.0011  0.1186  0.2968
 1153TIP3    H124874  -0.015   2.053  13.056  1.3916 -1.6030 -2.7495
 1153TIP3    H224875   0.070   1.975  13.154 -0.4693  0.2854  0.5358
 1154TIP3   OH224876   3.093   4.039  13.452  0.0843  0.4741 -0.5258
 1154TIP3    H124877   3.129   3.987  13.380 -2.1176  0.4454 -1.6768
 1154TIP3    H224878   3.145   4.013  13.529 -1.0736 -3.7370 -0.9260
 1155TIP3   OH224879   0.489   0.439   1.938  0.1235 -0.5132 -0.2705
 1155TIP3    H124880   0.440   0.375   1.887  1.2169 -1.5170 -0.1126
 1155TIP3    H224881   0.431   0.462   2.010 -1.6934  1.4045 -2.2354
 1156TIP3   OH224882   4.012   5.421   3.397 -0.2744  0.5720  0.5971
 1156TIP3    H124883   4.029   5.512   3.421  0.9183  0.9519 -1.5022
 1156TIP3    H224884   4.056   5.369   3.464 -0.3242  1.5341  1.3845
 1157TIP3   OH224885   0.551   3.970  12.585 -0.0502  0.0583  0.0031
 1157TIP3    H124886   0.594   4.030  12.524  0.3283  0.5088  0.7018
 1157TIP3    H224887   0.466   4.009  12.602  0.4132  0.7180  0.9003
 1158TIP3   OH224888   4.613   4.482   5.757  0.2160 -0.2998  0.2200
 1158TIP3    H124889   4.570   4.430   5.690  0.0367  0.3819 -0.2132
 1158TIP3    H224890   4.654   4.419   5.815 -0.9717 -0.9567  0.3724
 1159TIP3   OH224891   6.215   3.407   1.679 -0.3210  0.7494  0.0859
 1159TIP3    H124892   6.299   3.450   1.695  0.8121  0.2533 -3.5930
 1159TIP3    H224893   6.170   3.464   1.617 -1.7601 -0.0620  0.3504
 1160TIP3   OH224894   1.885   1.830  15.955  0.2390 -0.6222 -0.1435
 1160TIP3    H124895   1.940   1.812  15.879  0.5914  0.7905 -0.2551
 1160TIP3    H224896   1.902   1.758  16.015  3.7857  0.7209  0.6948
 1161TIP3   OH224897   0.464   0.128  13.062  0.5347  0.3804 -0.5120
 1161TIP3    H124898   0.381   0.171  13.041  0.0753 -0.7219 -1.0188
 1161TIP3    H224899   0.449   0.088  13.148  0.5373  0.1719 -0.6083
 1162TIP3   OH224900   6.486   0.015   5.282  0.4888 -0.1269  0.1357
 1162TIP3    H124901   6.548   0.043   5.215 -0.1597  0.5513 -0.1910
 1162TIP3    H224902   6.408  -0.012   5.234 -0.2984  1.1821  0.6335
 1163TIP3   OH224903   0.264   0.330  12.947 -0.3259  0.0116 -0.5032
 1163TIP3    H124904   0.198   0.264  12.925 -0.0155  0.3058 -2.6002
 1163TIP3    H224905   0.219   0.391  13.005 -1.1072 -1.1392  0.1537
 1164TIP3   OH224906   1.589   4.433  12.482  0.4719  0.6406  0.1053
 1164TIP3    H124907   1.638   4.511  12.456 -0.0093  1.2350  0.9396
 1164TIP3    H224908   1.510   4.467  12.525  0.8008 -0.2986  1.5066
 1165TIP3   OH224909   1.783   0.663  16.635 -0.1803 -1.0093 -0.3614
 1165TIP3    H124910   1.840   0.733  16.667  0.5019 -2.4435  1.7383
 1165TIP3    H224911   1.724   0.707  16.573  3.0201  0.5983 -2.5627
 1166TIP3   OH224912   2.787   2.176  15.484 -0.2646 -0.5302  0.5264
 1166TIP3    H124913   2.791   2.272  15.484  0.6909 -0.5423  1.7695
 1166TIP3    H224914   2.789   2.152  15.392 -3.8432  0.7247 -0.0317
 1167TIP3   OH224915   3.410   5.937   5.716 -0.2410 -0.3963 -0.1909
 1167TIP3    H124916   3.458   5.857   5.735  1.3293  0.6136  0.3861
 1167TIP3    H224917   3.334   5.934   5.773  0.3974 -0.9634  0.6527
 1168TIP3   OH224918   1.644   2.818   2.230  0.1488  0.5437 -0.5557
 1168TIP3    H124919   1.689   2.848   2.151  1.0014  0.9997  0.0807
 1168TIP3    H224920   1.669   2.726   2.238 -0.7513  0.2217 -1.3539
 1169TIP3   OH224921   3.860   0.721  11.121 -0.0226 -0.2197  0.9902
 1169TIP3    H124922   3.809   0.801  11.108  0.2063 -0.1429  0.5554
 1169TIP3    H224923   3.866   0.681  11.034 -1.9756 -1.8575  1.5299
 1170TIP3   OH224924   5.846   5.351  11.766 -0.1753 -0.5372 -0.5415
 1170TIP3    H124925   5.786   5.275  11.768 -0.0239 -0.6994 -1.5847
 1170TIP3    H224926   5.792   5.422  11.733 -0.1604 -0.3176 -0.1067
 1171TIP3   OH224927   6.205   0.417   1.865  0.3527  0.0254 -0.0560
 1171TIP3    H124928   6.111   0.435   1.865  0.4177  0.3601  0.1011
 1171TIP3    H224929   6.247   0.502   1.878  0.6973 -0.0416 -0.6791
 1172TIP3   OH224930   1.392   5.671  11.173  0.0193 -0.4194 -0.2244
 1172TIP3    H124931   1.377   5.607  11.103 -0.1081 -1.1079  0.4197
 1172TIP3    H224932   1.332   5.743  11.153 -0.3008 -0.7850 -0.6069
 1173TIP3   OH224933   6.113   0.132  16.447  0.0031 -0.9325 -0.1081
 1173TIP3    H124934   6.125   0.214  16.494  1.7638 -1.2206  0.0176
 1173TIP3    H224935   6.026   0.102  16.473 -1.3832  1.6226 -1.3671
 1174TIP3   OH224936   1.495   4.330  16.434 -0.1424  0.5773  0.1373
 1174TIP3    H124937   1.400   4.334  16.449 -0.1250 -0.2040  0.5369
 1174TIP3    H224938   1.532   4.321  16.522  0.1871 -0.7511 -0.1090
 1175TIP3   OH224939   4.753   6.711   4.546 -0.6111 -0.1558 -0.0680
 1175TIP3    H124940   4.679   6.671   4.592 -0.4500 -1.4512 -0.8673
 1175TIP3    H224941   4.780   6.784   4.601 -1.4883 -0.6344  1.0223
 1176TIP3   OH224942   3.110   3.531  11.532  0.1507 -0.3867  0.4787
 1176TIP3    H124943   3.049   3.466  11.568  1.3746  0.3643  4.3390
 1176TIP3    H224944   3.055   3.606  11.511 -0.6884 -0.9717  0.5181
 1177TIP3   OH224945   0.898   5.143  12.965 -0.3045 -0.3959 -0.1190
 1177TIP3    H124946   0.934   5.209  13.024  1.0304 -1.8027  0.7361
 1177TIP3    H224947   0.807   5.134  12.993  0.5622 -1.8539  2.6735
 1178TIP3   OH224948   6.654   3.283  17.550 -0.0265 -0.9497  0.3660
 1178TIP3    H124949   6.644   3.342  17.625  1.0591 -2.0415  1.3924
 1178TIP3    H224950   6.683   3.341  17.479 -3.0120  0.4711  0.1355
 1179TIP3   OH224951   2.015   4.978  17.102 -0.0638  0.8946 -1.0319
 1179TIP3    H124952   2.092   5.034  17.102  0.4048  0.2657 -1.8977
 1179TIP3    H224953   1.952   5.023  17.046 -0.8383  2.0447  0.6655
 1180TIP3   OH224954   3.795   1.247   1.514  0.2212 -0.5937  0.2854
 1180TIP3    H124955   3.738   1.187   1.563 -1.1519  0.9779  0.7112
 1180TIP3    H224956   3.750   1.331   1.519  1.2091  0.1113 -1.7634
 1181TIP3   OH224957   3.550   5.482  16.911  0.0216 -0.1068  0.4863
 1181TIP3    H124958   3.588   5.447  16.992 -0.9557 -1.4913  0.3835
 1181TIP3    H224959   3.513   5.566  16.937 -1.4060 -1.0838  1.8218
 1182TIP3   OH224960   0.195   0.067  14.689 -0.2992 -0.3595  0.2927
 1182TIP3    H124961   0.178   0.158  14.662  0.5951 -0.4181 -0.5062
 1182TIP3    H224962   0.219   0.022  14.608  0.6981 -0.9686  0.9117
 1183TIP3   OH224963   5.336   0.829  10.891  0.6623  0.7016 -0.3220
 1183TIP3    H124964   5.356   0.885  10.816 -0.9384  1.4592 -0.2349
 1183TIP3    H224965   5.421   0.794  10.919  1.3401  0.7816 -2.1702
 1184TIP3   OH224966   1.774   5.091   5.396 -0.3799 -0.0093  0.4037
 1184TIP3    H124967   1.807   5.098   5.306  0.0299 -1.8836  0.3569
 1184TIP3    H224968   1.780   4.998   5.416 -2.3250  0.0822  1.6995
 1185TIP3   OH224969   5.672   2.508  17.028 -0.6435 -0.4421  0.1184
 1185TIP3    H124970   5.653   2.417  17.003 -0.3125 -0.8496  1.2605
 1185TIP3    H224971   5.677   2.555  16.946  4.5389 -2.4388 -1.1269
 1186TIP3   OH224972   3.398   4.965   5.934 -0.0370 -0.4921 -0.4355
 1186TIP3    H124973   3.327   5.019   5.900  0.1719  0.0856  0.0349
 1186TIP3    H224974   3.354   4.893   5.980 -0.3214 -1.0393 -1.5125
 1187TIP3   OH224975   3.506   5.140  13.220  0.1791  0.5802  0.6089
 1187TIP3    H124976   3.516   5.046  13.238 -0.5312  0.2616 -0.5670
 1187TIP3    H224977   3.543   5.151  13.132  0.2065  1.3896  0.7189
 1188TIP3   OH224978   5.356   0.466   3.198  0.0705 -0.0250  0.4103
 1188TIP3    H124979   5.322   0.380   3.171  1.4758 -1.4526  2.8298
 1188TIP3    H224980   5.284   0.507   3.245  0.4129 -1.4922  2.3542
 1189TIP3   OH224981   6.566   6.495  15.360 -0.1388  0.5201 -0.6810
 1189TIP3    H124982   6.605   6.425  15.308  0.0951  0.0685  0.0798
 1189TIP3    H224983   6.636   6.522  15.420 -0.0583  1.7715 -1.3066
 1190TIP3   OH224984   3.481   6.695   3.966  0.2059 -0.5746  0.3385
 1190TIP3    H124985   3.418   6.667   4.033 -0.1174 -1.1650 -0.2112
 1190TIP3    H224986   3.431   6.700   3.885  0.7220 -0.4139  0.0207
 1191TIP3   OH224987   5.937   3.360   2.834 -0.6246  0.4674  0.0836
 1191TIP3    H124988   5.855   3.337   2.877 -0.5932 -0.7105 -0.4559
 1191TIP3    H224989   6.004   3.344   2.901 -0.8615  2.1675  0.7842
 1192TIP3   OH224990   1.396   6.319   6.490  0.4659  0.0567 -0.2288
 1192TIP3    H124991   1.364   6.346   6.575  0.3216 -0.9572  0.0574
 1192TIP3    H224992   1.461   6.251   6.509  0.8384  0.2107 -0.9008
 1193TIP3   OH224993   4.691   2.837  14.708 -0.1625  0.1363  0.0480
 1193TIP3    H124994   4.614   2.783  14.691  0.0621 -1.0189  2.3190
 1193TIP3    H224995   4.761   2.774  14.725  0.5645  1.1440  0.9001
 1194TIP3   OH224996   6.122   5.755  15.276  0.5123 -0.5301  0.0249
 1194TIP3    H124997   6.086   5.842  15.259 -0.0350 -0.7426  0.0520
 1194TIP3    H224998   6.156   5.761  15.365  0.4357 -0.3515  0.0442
 1195TIP3   OH224999   3.323   3.546   0.921 -0.1987 -0.1718  0.0288
 1195TIP3    H125000   3.256   3.612   0.906 -0.2915 -0.2607  0.0517
 1195TIP3    H225001   3.284   3.486   0.984 -0.4223 -0.6939 -0.5986
 1196TIP3   OH225002   4.759   1.031  15.651 -0.1033  0.7073 -0.1344
 1196TIP3    H125003   4.773   1.010  15.743 -1.8925  0.3062  0.0725
 1196TIP3    H225004   4.731   0.948  15.612  0.1614  0.9913 -0.9505
 1197TIP3   OH225005   4.923   4.989   1.523 -0.5152  0.3874  0.7924
 1197TIP3    H125006   5.007   5.035   1.515  0.6764 -1.8089 -0.3402
 1197TIP3    H225007   4.916   4.968   1.616  0.9675 -0.6619  0.7030
 1198TIP3   OH225008   3.571   0.455   6.118  0.1604  0.0661 -0.6920
 1198TIP3    H125009   3.543   0.524   6.178 -1.6772 -0.0689 -1.3372
 1198TIP3    H225010   3.647   0.492   6.073  0.3753  0.9112  0.3286
 1199TIP3   OH225011   2.627   2.396  17.024  1.2650 -0.3248  0.2707
 1199TIP3    H125012   2.614   2.311  16.982  0.5326  0.6024 -1.4672
 1199TIP3    H225013   2.597   2.383  17.114 -2.1313 -1.0754 -0.8258
 1200TIP3   OH225014   4.624   4.120   4.022  0.3928  0.0665  0.0972
 1200TIP3    H125015   4.651   4.115   4.114 -1.4239 -0.7409  0.6164
 1200TIP3    H225016   4.681   4.056   3.978 -0.2463 -1.2396  1.0788
 1201TIP3   OH225017   4.205   1.498  17.068 -0.7895  0.5754 -0.3254
 1201TIP3    H125018   4.171   1.409  17.055 -0.1289  0.3157 -0.3273
 1201TIP3    H225019   4.166   1.527  17.150  0.6238 -0.5333  0.7989
 1202TIP3   OH225020   2.904   0.709   4.738 -0.2143 -0.4825  0.6432
 1202TIP3    H125021   2.984   0.676   4.778  0.7471  2.3490  1.2892
 1202TIP3    H225022   2.934   0.771   4.672 -1.7092  2.5891  2.5832
 1203TIP3   OH225023   6.370   1.443  14.381 -0.2917  0.4843 -0.2581
 1203TIP3    H125024   6.441   1.381  14.393  0.7668  1.4700 -1.1823
 1203TIP3    H225025   6.394   1.518  14.436 -0.6052  0.8237 -0.5774
 1204TIP3   OH225026   3.405   4.880   6.403  0.0633 -0.5711 -0.0904
 1204TIP3    H125027   3.452   4.835   6.334  1.2931  0.7013 -0.1389
 1204TIP3    H225028   3.331   4.923   6.359  0.8167  0.2018 -0.6281
 1205TIP3   OH225029   2.907   6.229   3.781  0.0439  0.0504 -0.3956
 1205TIP3    H125030   2.860   6.274   3.851 -1.6665  0.1930 -1.5614
 1205TIP3    H225031   2.874   6.139   3.784 -0.7844  0.2903 -1.5933
 1206TIP3   OH225032   0.103   0.215   0.930  0.2057 -0.3235 -0.3503
 1206TIP3    H125033   0.041   0.277   0.968  0.6911  0.2534 -0.4797
 1206TIP3    H225034   0.068   0.129   0.952 -0.9900 -0.0193 -0.9841
 1207TIP3   OH225035   4.336   5.602  15.996  0.6617 -0.2056 -0.1278
 1207TIP3    H125036   4.324   5.529  15.936 -0.6729 -1.5209  1.6194
 1207TIP3    H225037   4.258   5.600  16.052  1.6812  1.1349  1.4443
 1208TIP3   OH225038   4.747   4.565  12.251  0.4381 -0.1527 -0.1492
 1208TIP3    H125039   4.734   4.628  12.181  0.4612 -1.3377 -1.2541
 1208TIP3    H225040   4.705   4.605  12.327 -0.1075  0.8941 -0.9703
 1209TIP3   OH225041   2.944   3.516   5.108 -0.1789 -0.4888 -0.1327
 1209TIP3    H125042   2.892   3.556   5.038 -1.7047 -2.2040 -0.0774
 1209TIP3    H225043   3.034   3.522   5.078 -0.3042  2.7434 -0.1806
 1210TIP3   OH225044   0.391   2.846  13.150  0.4283 -0.0348  0.1159
 1210TIP3    H125045   0.458   2.906  13.119  0.1246  0.4914  0.4542
 1210TIP3    H225046   0.429   2.803  13.227  1.2464 -1.4664 -1.0397
 1211TIP3   OH225047   0.795   6.131   2.333  0.0028 -0.1799  0.2412
 1211TIP3    H125048   0.856   6.062   2.307 -0.5144 -0.4692 -0.2347
 1211TIP3    H225049   0.848   6.193   2.383  0.2411 -1.5382  1.7516
 1212TIP3   OH225050   5.545   5.827   2.597  0.0041  0.2193 -0.0967
 1212TIP3    H125051   5.591   5.904   2.565 -0.8883  1.7443  2.0124
 1212TIP3    H225052   5.613   5.770   2.632  0.5516  0.8262 -0.1624
 1213TIP3   OH225053   1.949   3.450  11.356  0.5188  0.6271 -0.2034
 1213TIP3    H125054   1.982   3.365  11.326 -0.1684 -0.3681  1.6803
 1213TIP3    H225055   1.912   3.490  11.278 -0.1065 -1.2967 -0.9586
 1214TIP3   OH225056   3.051   1.661  12.131 -0.1926 -0.0718 -0.0907
 1214TIP3    H125057   3.033   1.594  12.065 -1.6244  0.8216 -0.6627
 1214TIP3    H225058   3.119   1.622  12.186 -0.3937 -1.6597 -0.8841
 1215TIP3   OH225059   3.515   1.819  17.508  0.3041 -0.0759  0.2649
 1215TIP3    H125060   3.483   1.730  17.494  0.4310  0.0963 -1.3257
 1215TIP3    H225061   3.456   1.873  17.455  0.9817  0.6450  0.2343
 1216TIP3   OH225062   2.297   6.471  14.141 -0.3123 -0.0994  0.1389
 1216TIP3    H125063   2.282   6.537  14.209 -0.9396  2.0176 -1.9184
 1216TIP3    H225064   2.351   6.405  14.184  0.9310  2.0609  2.1655
 1217TIP3   OH225065   2.417   6.585  16.126 -0.2253  0.1276 -0.0679
 1217TIP3    H125066   2.461   6.580  16.041  0.6782 -0.7862  0.4191
 1217TIP3    H225067   2.396   6.494  16.147 -0.6997  0.3752  0.5495
 1218TIP3   OH225068   5.838   2.192   5.862  0.5600  0.5319  0.1368
 1218TIP3    H125069   5.921   2.221   5.824  0.9962  0.4537  1.0063
 1218TIP3    H225070   5.834   2.234   5.947  0.6595 -1.0122  0.9457
 1219TIP3   OH225071   4.355   4.049  12.851 -0.8539 -0.0674 -0.2662
 1219TIP3    H125072   4.332   4.086  12.766 -1.1764 -0.1003 -0.1939
 1219TIP3    H225073   4.343   4.121  12.913  0.0795  0.1606 -0.3447
 1220TIP3   OH225074   4.888   2.678  12.141 -0.5789 -0.3278  0.3383
 1220TIP3    H125075   4.826   2.649  12.209 -1.4535  1.2770  0.2641
 1220TIP3    H225076   4.960   2.717  12.190 -1.1308  0.6745  0.3808
 1221TIP3   OH225077   6.356   6.363  11.461  0.1960 -0.2939  0.0756
 1221TIP3    H125078   6.393   6.441  11.501  1.1380 -0.3218 -0.7131
 1221TIP3    H225079   6.411   6.346  11.384 -1.2460 -0.5347 -0.9470
 1222TIP3   OH225080   6.132   1.663  13.023 -0.5969 -0.0727  0.3472
 1222TIP3    H125081   6.197   1.699  12.962 -0.4361 -1.7021 -0.5020
 1222TIP3    H225082   6.184   1.627  13.094 -0.5170 -1.5979 -0.4526
 1223TIP3   OH225083   6.149   3.217  12.261  0.2986  0.2442  0.0085
 1223TIP3    H125084   6.208   3.222  12.185  1.4673 -1.5250  0.7395
 1223TIP3    H225085   6.076   3.163  12.231  1.2688 -1.3513  0.3939
 1224TIP3   OH225086   6.664   3.586   4.852 -0.2886 -0.1668 -0.0875
 1224TIP3    H125087   6.675   3.554   4.942 -1.0308 -0.3846 -0.0661
 1224TIP3    H225088   6.570   3.592   4.840 -0.2180 -0.7816 -1.0769
 1225TIP3   OH225089   0.925   2.233  11.443 -0.6740  0.3569  0.0860
 1225TIP3    H125090   0.909   2.159  11.501  0.0697 -0.2228 -0.4338
 1225TIP3    H225091   0.979   2.198  11.373  1.3232  1.7815  0.8126
 1226TIP3   OH225092   5.742   6.496  13.721  0.8271 -0.1926  0.0694
 1226TIP3    H125093   5.795   6.454  13.653 -1.0240 -2.3227 -0.1332
 1226TIP3    H225094   5.738   6.432  13.792 -3.6107 -1.4233 -0.9799
 1227TIP3   OH225095   5.842   2.195   6.321 -0.3459 -0.7647  0.2192
 1227TIP3    H125096   5.877   2.107   6.336 -1.8333 -1.7087 -1.4671
 1227TIP3    H225097   5.764   2.199   6.378  0.1383 -0.2207  0.8650
 1228TIP3   OH225098   2.290   1.046  17.150 -0.6108  0.3558  0.8830
 1228TIP3    H125099   2.276   1.073  17.241 -0.7996 -0.1436  1.0053
 1228TIP3    H225100   2.367   0.989  17.153  0.9062  2.2541  0.3645
 1229TIP3   OH225101   1.431   3.967  14.362 -0.1347 -0.1329  0.5352
 1229TIP3    H125102   1.474   4.040  14.407 -1.7593  0.7467  0.7391
 1229TIP3    H225103   1.482   3.955  14.282  0.8240  0.4771  1.0298
 1230TIP3   OH225104   4.366   3.063  12.035 -0.1824 -0.3789 -0.2974
 1230TIP3    H125105   4.449   3.045  12.079 -0.1250  0.2167 -0.1551
 1230TIP3    H225106   4.344   2.981  11.991  0.6469 -0.4404 -0.6151
 1231TIP3   OH225107   4.994   0.672   0.260 -0.4250 -0.6157 -0.0947
 1231TIP3    H125108   4.976   0.749   0.207 -1.2850  1.5993  3.0679
 1231TIP3    H225109   4.960   0.599   0.209 -2.6174  1.4733 -1.8934
 1232TIP3   OH225110   4.905   5.190   7.219  0.2412 -0.1053 -0.0034
 1232TIP3    H125111   4.936   5.269   7.173 -1.0750 -0.4504 -1.6179
 1232TIP3    H225112   4.922   5.119   7.158  0.2932 -0.8974  0.9234
 1233TIP3   OH225113   2.433   2.068   0.384 -0.3707 -0.0134 -0.1214
 1233TIP3    H125114   2.511   2.042   0.433  0.4829  1.8738 -0.3672
 1233TIP3    H225115   2.403   2.147   0.428 -0.7541  0.5991 -1.4319
 1234TIP3   OH225116   1.866   5.849  14.665  0.3303  0.0928 -0.1441
 1234TIP3    H125117   1.828   5.893  14.741  0.5947  0.4049 -0.1884
 1234TIP3    H225118   1.835   5.758  14.671  0.4015  0.1011  0.3697
 1235TIP3   OH225119   3.422   2.846   6.057 -0.2385  0.5749  0.2849
 1235TIP3    H125120   3.499   2.838   6.002 -1.1872  0.3765 -1.0608
 1235TIP3    H225121   3.456   2.844   6.146  1.2261 -0.3289 -0.2618
 1236TIP3   OH225122   2.805   6.580   4.731  0.1539  0.2166  0.1660
 1236TIP3    H125123   2.806   6.641   4.658  1.1557  0.3634  0.2860
 1236TIP3    H225124   2.729   6.607   4.784  1.4341  2.4054  1.0542
 1237TIP3   OH225125   1.119   5.611   6.633 -0.3574  0.0831 -0.3721
 1237TIP3    H125126   1.076   5.682   6.681  1.4148  0.1018  1.2884
 1237TIP3    H225127   1.205   5.646   6.611  0.1182 -1.1634 -0.5401
 1238TIP3   OH225128   0.855   5.252  16.746 -0.2823 -0.6937  0.1553
 1238TIP3    H125129   0.845   5.166  16.704 -1.4490 -0.2360 -0.5731
 1238TIP3    H225130   0.797   5.248  16.822 -1.3945 -0.1335 -0.6232
 1239TIP3   OH225131   5.908   1.057   1.167  0.1203 -0.0268  0.0107
 1239TIP3    H125132   5.818   1.074   1.194 -0.1765  0.4601 -1.2066
 1239TIP3    H225133   5.929   1.128   1.106  1.2212 -0.3096  0.0319
 1240TIP3   OH225134   1.260   2.036  11.432 -0.2177  0.5014  0.2993
 1240TIP3    H125135   1.199   2.055  11.360  0.2844  0.8333 -0.0404
 1240TIP3    H225136   1.212   2.061  11.511 -1.6046 -1.8123  0.2875
 1241TIP3   OH225137   6.448   5.449   5.243  0.3378  0.2301 -0.4131
 1241TIP3    H125138   6.531   5.467   5.199  0.2541  0.7757 -0.3581
 1241TIP3    H225139   6.408   5.535   5.256 -0.5329 -0.0697 -1.0100
 1242TIP3   OH225140   6.421   4.956   3.962 -0.5835  0.3357  0.2984
 1242TIP3    H125141   6.461   4.878   3.924 -0.0208  0.8031 -0.0943
 1242TIP3    H225142   6.485   5.026   3.946 -0.6387  0.6852  1.5146
 1243TIP3   OH225143   5.773   2.650   1.715  0.1537 -0.9159  0.1340
 1243TIP3    H125144   5.741   2.731   1.676 -0.8502 -1.7530 -0.8367
 1243TIP3    H225145   5.714   2.634   1.789  0.8405 -0.3669  0.8176
 1244TIP3   OH225146   1.241   4.448   1.246 -0.0982  0.4447 -0.2999
 1244TIP3    H125147   1.259   4.484   1.159 -1.3767  0.4291 -0.5947
 1244TIP3    H225148   1.229   4.525   1.302  1.1790  0.4603 -0.0045
 1245TIP3   OH225149   2.364   3.183  16.575  1.1396 -0.2499 -0.0246
 1245TIP3    H125150   2.272   3.191  16.600  1.1801  0.7813 -0.1527
 1245TIP3    H225151   2.392   3.273  16.561  2.5860 -0.4089  1.5163
 1246TIP3   OH225152   5.292   2.571   3.793 -0.3574  0.3953  0.3235
 1246TIP3    H125153   5.277   2.647   3.849  1.2395  2.3956 -1.8110
 1246TIP3    H225154   5.212   2.519   3.803 -1.6266  2.4487  1.6470
 1247TIP3   OH225155   0.944   4.174   5.594 -0.3635 -0.2660 -0.0533
 1247TIP3    H125156   0.970   4.244   5.654 -1.2779 -0.4887  0.6172
 1247TIP3    H225157   1.001   4.186   5.518  0.3713  0.4145  0.5832
 1248TIP3   OH225158   0.217   4.543   0.645  0.1973 -0.8424 -0.1492
 1248TIP3    H125159   0.276   4.472   0.621  1.0555  0.1093 -0.9510
 1248TIP3    H225160   0.174   4.513   0.725 -0.2534 -2.6972 -1.0473
 1249TIP3   OH225161   5.303   3.007  11.270 -0.2360 -0.2622  0.7440
 1249TIP3    H125162   5.346   2.929  11.234 -0.3726 -0.1813  0.4006
 1249TIP3    H225163   5.302   3.070  11.197 -0.1949  0.0315  0.9966
 1250TIP3   OH225164   1.069   0.446   4.115  0.5705  0.2658  0.0319
 1250TIP3    H125165   1.049   0.539   4.120 -2.8813 -0.3696  0.4829
 1250TIP3    H225166   1.091   0.422   4.205 -1.0694  0.2282  0.4530
 1251TIP3   OH225167   0.288   0.294  14.375 -0.3901  0.3262 -0.0366
 1251TIP3    H125168   0.195   0.299  14.395 -0.5863 -0.1574 -0.8167
 1251TIP3    H225169   0.316   0.385  14.368 -0.9501  0.4649 -0.4776
 1252TIP3   OH225170   0.677   2.609   0.196  0.4978  0.2135  0.1942
 1252TIP3    H125171   0.633   2.694   0.188 -0.5432 -0.2487  0.7771
 1252TIP3    H225172   0.688   2.580   0.106 -1.3218 -0.0932  0.0221
 1253TIP3   OH225173   0.306   6.246  12.502 -0.4898 -0.5544 -0.1297
 1253TIP3    H125174   0.288   6.154  12.481 -0.4538 -1.0095  1.6428
 1253TIP3    H225175   0.401   6.253  12.501 -0.4034 -1.0342  1.4837
 1254TIP3   OH225176   1.591   4.751   0.159 -0.6250 -0.1669  1.1569
 1254TIP3    H125177   1.624   4.737   0.071 -1.8824 -0.1039  0.6450
 1254TIP3    H225178   1.505   4.708   0.160 -1.0156  0.5810  2.0592
 1255TIP3   OH225179   0.945   2.102  16.038  0.1783  0.2199 -0.2323
 1255TIP3    H125180   0.934   2.049  15.959 -0.2811 -1.2961  0.7991
 1255TIP3    H225181   0.898   2.054  16.106 -3.6926  3.8181  0.0817
 1256TIP3   OH225182   1.764   4.180   0.805 -0.4689  0.2095  0.1687
 1256TIP3    H125183   1.668   4.183   0.805 -0.5043  3.3068  0.7194
 1256TIP3    H225184   1.786   4.087   0.810 -3.4099 -0.6380 -0.5593
 1257TIP3   OH225185   6.199   2.675   0.017 -0.2867 -0.3289  0.2996
 1257TIP3    H125186   6.283   2.715   0.037 -0.1754 -0.0096 -0.7457
 1257TIP3    H225187   6.145   2.747  -0.015 -0.1642 -0.9365 -1.3701
 1258TIP3   OH225188   4.762   0.490   3.081 -0.0001  0.6100  0.4427
 1258TIP3    H125189   4.769   0.396   3.096 -0.8389  0.3713 -0.5112
 1258TIP3    H225190   4.819   0.507   3.006 -1.2661  0.5050 -0.5839
 1259TIP3   OH225191   1.464   0.447  14.566  0.2466 -0.3451  0.1490
 1259TIP3    H125192   1.481   0.533  14.604 -0.5229  0.5759 -1.5013
 1259TIP3    H225193   1.514   0.446  14.485  0.1023 -1.3968  0.0606
 1260TIP3   OH225194   4.062   6.061  15.112 -0.1566 -0.3738 -0.3197
 1260TIP3    H125195   4.152   6.093  15.112 -0.3003  0.0643 -0.9793
 1260TIP3    H225196   4.032   6.074  15.202  0.2141  0.1360 -0.2649
 1261TIP3   OH225197   5.626   2.368   1.017  0.4343  0.1378  0.1363
 1261TIP3    H125198   5.587   2.359   0.930 -0.2528  1.1779  0.3169
 1261TIP3    H225199   5.663   2.456   1.018  1.2754 -0.2115  0.5797
 1262TIP3   OH225200   4.639   3.400   0.749 -0.2262  0.3382 -0.6962
 1262TIP3    H125201   4.727   3.429   0.771 -0.2415  0.0712 -0.2624
 1262TIP3    H225202   4.581   3.470   0.780 -0.2398  0.0124  0.0348
 1263TIP3   OH225203   5.340   4.279  16.168 -0.7033 -0.0892  0.5561
 1263TIP3    H125204   5.356   4.299  16.260 -1.5986  2.3633  0.2504
 1263TIP3    H225205   5.364   4.359  16.121 -2.3924 -0.4830 -1.1012
 1264TIP3   OH225206   1.579   3.194  12.268  0.4855 -0.2640 -0.5569
 1264TIP3    H125207   1.501   3.248  12.272  1.1845  0.8880 -1.7536
 1264TIP3    H225208   1.617   3.199  12.356  0.0617  0.4570 -0.4145
 1265TIP3   OH225209   0.519   1.207  11.910 -0.4150 -0.2247 -0.3736
 1265TIP3    H125210   0.474   1.199  11.994  2.1550 -0.1988  1.0904
 1265TIP3    H225211   0.586   1.273  11.924  0.8956 -1.0987 -2.0592
 1266TIP3   OH225212   0.207   2.301   6.051 -0.5186 -0.5514 -0.0289
 1266TIP3    H125213   0.291   2.317   6.008  0.2956 -0.6179  1.4731
 1266TIP3    H225214   0.158   2.383   6.041  0.7322  0.3969  1.2494
 1267TIP3   OH225215   5.908   4.855  16.152  0.4111  0.2040  0.3856
 1267TIP3    H125216   5.943   4.889  16.069  1.2217 -0.4317  0.4592
 1267TIP3    H225217   5.821   4.895  16.159  0.3706  0.3459 -0.7257
 1268TIP3   OH225218   0.216   1.300  16.307  0.1539  0.3975  0.0897
 1268TIP3    H125219   0.287   1.295  16.372 -0.4486  1.8245  0.9030
 1268TIP3    H225220   0.259   1.332  16.228  0.8118 -0.8830 -0.0884
 1269TIP3   OH225221   2.813   5.468  12.836 -0.0175 -0.1769 -0.2206
 1269TIP3    H125222   2.772   5.523  12.902 -1.7993 -1.5093 -0.1457
 1269TIP3    H225223   2.900   5.448  12.871 -0.3797  0.3368  1.0031
 1270TIP3   OH225224   0.922   6.023  16.236 -0.3464  0.0241  0.2666
 1270TIP3    H125225   0.992   6.083  16.261 -0.1178  0.2563 -0.9051
 1270TIP3    H225226   0.965   5.955  16.185 -1.2412  1.3616 -2.4582
 1271TIP3   OH225227   6.068   3.808   5.900 -0.2918  0.1933 -0.0849
 1271TIP3    H125228   6.149   3.797   5.950 -0.4457 -1.6634 -0.2020
 1271TIP3    H225229   5.998   3.795   5.964 -0.5083  0.4173 -0.2722
 1272TIP3   OH225230   0.778   0.065   2.605  0.1674 -0.1614  0.0220
 1272TIP3    H125231   0.818   0.130   2.662  1.8068 -0.7259 -0.4364
 1272TIP3    H225232   0.839   0.056   2.532 -1.8238  0.4886 -1.8248
 1273TIP3   OH225233   3.113   5.595  13.754 -0.3248 -0.2416  0.3634
 1273TIP3    H125234   3.185   5.555  13.706  2.1267  2.3235  1.6459
 1273TIP3    H225235   3.052   5.523  13.771  1.0270 -2.1681 -2.2869
 1274TIP3   OH225236   6.160   2.124   5.079 -0.1178  0.4666 -0.1252
 1274TIP3    H125237   6.156   2.202   5.134 -2.2171  0.5936 -0.3828
 1274TIP3    H225238   6.192   2.155   4.995 -0.3511  0.9325 -0.0444
 1275TIP3   OH225239   5.630   1.084   3.652 -0.5739 -0.2025  0.2919
 1275TIP3    H125240   5.692   1.080   3.580  0.2639 -0.2379  1.0053
 1275TIP3    H225241   5.579   1.003   3.645  1.0454 -1.3238  1.1066
 1276TIP3   OH225242   4.917   3.218   0.858  0.2388 -0.0883  0.2156
 1276TIP3    H125243   4.950   3.299   0.821 -0.8160 -0.7815 -2.4519
 1276TIP3    H225244   4.870   3.175   0.786  0.6351 -3.0009  1.5188
 1277TIP3   OH225245   4.533   6.706   6.972  0.4680  0.0523  0.5885
 1277TIP3    H125246   4.569   6.782   7.017  0.3508  0.4370  0.0420
 1277TIP3    H225247   4.604   6.641   6.972  0.4494  0.0200  1.3699
 1278TIP3   OH225248   2.873   0.658   1.729 -1.0653 -0.5749 -0.4553
 1278TIP3    H125249   2.846   0.576   1.687 -0.4048 -0.9038 -0.2519
 1278TIP3    H225250   2.816   0.724   1.691 -0.2342 -0.7966 -2.1899
 1279TIP3   OH225251   5.057   3.781  15.556  0.2157 -0.1021 -0.0157
 1279TIP3    H125252   5.070   3.852  15.619 -0.7475 -0.4896  0.6377
 1279TIP3    H225253   5.145   3.754  15.532  0.6172 -0.3513  1.6285
 1280TIP3   OH225254   3.536   5.267   3.792  0.2746  0.2250  0.7353
 1280TIP3    H125255   3.454   5.294   3.832  0.3525  1.2064  0.2627
 1280TIP3    H225256   3.599   5.268   3.864  0.0993  0.4986  0.8843
 1281TIP3   OH225257   3.614   3.240  12.362 -0.8953  0.5436  0.0367
 1281TIP3    H125258   3.619   3.334  12.345  0.0134  0.4362 -0.3384
 1281TIP3    H225259   3.704   3.209  12.354 -0.6771  0.1087  2.8960
 1282TIP3   OH225260   0.041   1.438  11.261  0.5510  0.1147  0.3361
 1282TIP3    H125261   0.038   1.486  11.178 -0.2782 -0.8572 -0.2149
 1282TIP3    H225262  -0.013   1.489  11.321  0.1799  0.1959 -0.0653
 1283TIP3   OH225263   2.296   4.203   4.120  0.0637  0.2368  0.2590
 1283TIP3    H125264   2.302   4.285   4.071 -1.1738 -0.0171 -0.3569
 1283TIP3    H225265   2.267   4.230   4.208  0.2336  0.5046  0.2341
 1284TIP3   OH225266   4.924   2.585   5.649  0.1294  0.0520  0.0444
 1284TIP3    H125267   4.865   2.519   5.612  0.4732  0.8666 -2.1037
 1284TIP3    H225268   4.866   2.644   5.698 -0.0858 -2.2064  2.7676
 1285TIP3   OH225269   2.878   3.269   0.352 -0.0201 -0.0117 -0.0165
 1285TIP3    H125270   2.879   3.202   0.284  0.4949  0.1771 -0.2034
 1285TIP3    H225271   2.836   3.344   0.310 -2.2158 -0.7430  0.7327
 1286TIP3   OH225272   4.583   3.890  14.708 -0.2106  0.1679 -0.5166
 1286TIP3    H125273   4.510   3.895  14.646  0.2759 -1.7271 -1.3393
 1286TIP3    H225274   4.658   3.925  14.660  0.2412 -1.6166 -1.1977
 1287TIP3   OH225275   5.295   0.540  11.063 -0.0992  0.3288  0.4604
 1287TIP3    H125276   5.339   0.497  11.136 -2.3174 -1.1724  1.0370
 1287TIP3    H225277   5.323   0.492  10.986 -1.0662 -0.9861  0.8875
 1288TIP3   OH225278   3.658   2.646   3.494  0.5683  0.0426  0.6616
 1288TIP3    H125279   3.574   2.691   3.482  1.6468  1.8170 -0.6440
 1288TIP3    H225280   3.636   2.569   3.547 -1.8518  0.5129  0.4629
 1289TIP3   OH225281   3.858   6.492   3.571  0.3449 -0.3412 -0.4712
 1289TIP3    H125282   3.930   6.548   3.541 -0.1556  0.7716  0.3156
 1289TIP3    H225283   3.810   6.546   3.634  0.3827 -1.9892  1.0631
 1290TIP3   OH225284   2.281   5.449   5.150  0.1181  0.0605  0.0624
 1290TIP3    H125285   2.361   5.453   5.202  0.5479 -0.3663 -0.5546
 1290TIP3    H225286   2.210   5.445   5.214  0.6759 -1.1664  0.6284
 1291TIP3   OH225287   0.135   2.839  17.437  0.0928  0.6369 -0.0470
 1291TIP3    H125288   0.077   2.908  17.403  0.6330  0.9960 -0.2579
 1291TIP3    H225289   0.131   2.770  17.372 -0.7918  0.2669  0.3754
 1292TIP3   OH225290   4.409   5.459   3.929 -0.0324  0.3794  0.2452
 1292TIP3    H125291   4.322   5.424   3.950 -0.0690 -0.7759 -1.5898
 1292TIP3    H225292   4.470   5.394   3.965  0.0510  0.6483  0.5979
 1293TIP3   OH225293   5.206   4.687   1.044  0.3877 -0.2157  0.3758
 1293TIP3    H125294   5.262   4.686   0.967  0.6514 -0.5158  0.5673
 1293TIP3    H225295   5.156   4.605   1.037  0.8770 -0.5672  0.8541
 1294TIP3   OH225296   4.881   2.197   2.704  0.5549 -0.2836  0.1865
 1294TIP3    H125297   4.803   2.157   2.665  2.0240 -2.9081 -0.3729
 1294TIP3    H225298   4.883   2.162   2.793  1.4590 -0.8824 -0.0551
 1295TIP3   OH225299   2.088   1.216   0.318  0.2763  0.2303  0.1173
 1295TIP3    H125300   2.154   1.234   0.384 -0.1188 -0.1326  0.6187
 1295TIP3    H225301   2.127   1.148   0.262  0.1291 -0.3688  0.7270
 1296TIP3   OH225302   0.773   5.085   4.323 -0.5611  0.1644  0.2186
 1296TIP3    H125303   0.724   5.075   4.241 -0.8226  1.0895  0.2535
 1296TIP3    H225304   0.801   5.176   4.323  0.0067 -0.0066  0.8487
 1297TIP3   OH225305   0.338   2.694   3.210  0.3101 -0.4209  0.4528
 1297TIP3    H125306   0.268   2.635   3.238 -1.7071  0.8625 -1.5480
 1297TIP3    H225307   0.372   2.730   3.292 -1.4694 -0.9977  1.5210
 1298TIP3   OH225308   5.550   5.027   4.157  0.1411  0.2802  0.1590
 1298TIP3    H125309   5.560   5.062   4.068  0.3099 -1.9490 -0.7815
 1298TIP3    H225310   5.634   4.985   4.175 -0.6151 -1.1795  0.4533
 1299TIP3   OH225311   1.029   0.451   4.986 -0.0749 -0.0795  0.1887
 1299TIP3    H125312   0.949   0.477   5.031 -0.6576 -1.5352  0.0637
 1299TIP3    H225313   1.002   0.381   4.927  1.3677 -1.0368  0.5881
 1300TIP3   OH225314   5.784   1.143   1.585  0.3406 -0.2897  1.1918
 1300TIP3    H125315   5.694   1.120   1.607 -0.1542  0.2283 -0.1875
 1300TIP3    H225316   5.796   1.110   1.496  2.2532 -2.3496  2.1080
 1301TIP3   OH225317   2.746   2.992  15.934 -0.6452 -0.1818  0.0789
 1301TIP3    H125318   2.755   2.941  15.854  0.1210  1.9276 -1.2702
 1301TIP3    H225319   2.799   2.946  15.999  1.9593  0.0716 -1.7194
 1302TIP3   OH225320   4.382   2.180   0.064 -0.0995  0.3762  0.0937
 1302TIP3    H125321   4.341   2.258   0.028 -0.0537  0.9642  1.2828
 1302TIP3    H225322   4.328   2.157   0.140 -0.0354 -0.6782 -0.1564
 1303TIP3   OH225323   2.035   5.363  15.200  0.4962 -0.1590 -0.4018
 1303TIP3    H125324   2.121   5.331  15.228 -0.2345 -0.4872  1.6819
 1303TIP3    H225325   1.974   5.295  15.228 -0.3423 -0.9621 -3.7438
 1304TIP3   OH225326   3.409   3.999   3.032 -0.4063  0.4532 -0.3717
 1304TIP3    H125327   3.464   3.930   2.994  0.6496  0.4952  0.9777
 1304TIP3    H225328   3.377   3.961   3.114 -1.8479  0.6978 -0.8022
 1305TIP3   OH225329   5.784   5.269   6.101  0.5456  0.5173  0.1094
 1305TIP3    H125330   5.752   5.186   6.137  1.2916  0.4890  0.7238
 1305TIP3    H225331   5.705   5.313   6.070  0.1583 -0.4851 -0.3627
 1306TIP3   OH225332   0.407   5.982  12.491 -0.1851 -0.2570  0.4755
 1306TIP3    H125333   0.490   5.980  12.540 -0.2837 -3.1381  0.7018
 1306TIP3    H225334   0.351   5.919  12.537 -1.4184 -0.6307 -1.4375
 1307TIP3   OH225335   3.469   5.248  16.040 -0.1515  0.0185  0.0699
 1307TIP3    H125336   3.432   5.291  16.117 -1.7082 -3.2209  1.2991
 1307TIP3    H225337   3.394   5.209  15.996  1.0912 -0.9914 -1.2228
 1308TIP3   OH225338   4.383   0.930   4.061 -0.2895 -0.1819  0.4811
 1308TIP3    H125339   4.295   0.968   4.063 -0.4176 -0.4786  0.5777
 1308TIP3    H225340   4.403   0.921   3.967  0.1805  1.1081  0.4398
 1309TIP3   OH225341   0.114   1.884   1.438 -0.0701 -0.4746  0.4851
 1309TIP3    H125342   0.070   1.952   1.387  0.3474 -0.2071  0.4718
 1309TIP3    H225343   0.071   1.885   1.523  0.4506  0.3694  0.7617
 1310TIP3   OH225344   2.311   6.453  12.861  0.5731 -0.0882 -0.7326
 1310TIP3    H125345   2.334   6.523  12.922 -1.2293 -0.4777  0.4870
 1310TIP3    H225346   2.300   6.497  12.777 -2.5394  1.5930  0.3805
 1311TIP3   OH225347   4.260   0.190   3.404 -0.0463 -0.3323  0.3037
 1311TIP3    H125348   4.181   0.177   3.456 -0.7911  0.5968 -0.5627
 1311TIP3    H225349   4.324   0.226   3.466 -0.5491 -0.3547  0.8401
 1312TIP3   OH225350   5.154   6.500  17.487  0.1870 -0.1871  0.3756
 1312TIP3    H125351   5.099   6.576  17.506 -0.9432 -1.2692  1.6403
 1312TIP3    H225352   5.103   6.447  17.426  2.1471  1.3235 -2.8523
 1313TIP3   OH225353   3.367   2.413   4.028 -0.0641  0.0873  0.5154
 1313TIP3    H125354   3.412   2.330   4.042 -1.2894 -0.6497  0.3244
 1313TIP3    H225355   3.434   2.480   4.037  1.3101 -1.0080 -1.0128
 1314TIP3   OH225356   4.309   5.480  12.100  0.1568 -0.1995 -0.1917
 1314TIP3    H125357   4.394   5.438  12.086  0.6277  0.2934  1.0972
 1314TIP3    H225358   4.251   5.435  12.038  1.2538 -0.8039 -0.8325
 1315TIP3   OH225359   1.441   0.431  12.671 -0.4541 -0.2840 -0.2281
 1315TIP3    H125360   1.400   0.357  12.715  0.0916  0.3880  1.5282
 1315TIP3    H225361   1.522   0.446  12.720  0.1655  0.5582 -1.4587
 1316TIP3   OH225362   4.312   6.543  15.189 -0.3712  0.3220 -0.2172
 1316TIP3    H125363   4.245   6.484  15.153  0.3932  0.0582 -1.2512
 1316TIP3    H225364   4.391   6.489  15.192  0.5743  1.5161 -2.0478
 1317TIP3   OH225365   6.307   4.111  12.354 -0.2156 -0.7905  0.2797
 1317TIP3    H125366   6.318   4.087  12.446 -1.2171 -1.5037  0.2268
 1317TIP3    H225367   6.220   4.151  12.350  0.4394  0.6873 -0.0915
 1318TIP3   OH225368   6.590   3.636  12.874 -0.6040 -0.2015 -0.8346
 1318TIP3    H125369   6.551   3.576  12.810  0.9837  0.0761 -2.1294
 1318TIP3    H225370   6.683   3.611  12.876 -0.7851 -1.1818  2.4832
 1319TIP3   OH225371   5.979   1.114   3.499 -0.1937  0.1177  0.1505
 1319TIP3    H125372   5.994   1.024   3.469 -2.5808 -0.4971  0.6394
 1319TIP3    H225373   6.034   1.122   3.577 -0.5944 -1.2154  0.5942
 1320TIP3   OH225374   3.327   3.900   5.738  0.6265 -0.0997 -0.4209
 1320TIP3    H125375   3.250   3.850   5.709 -0.1122  0.8265 -0.1146
 1320TIP3    H225376   3.372   3.922   5.657  0.1572 -0.0110 -0.6627
 1321TIP3   OH225377   3.528   5.580   3.710  0.7554  0.2124 -0.0152
 1321TIP3    H125378   3.453   5.548   3.659 -0.3132  2.0586  0.2955
 1321TIP3    H225379   3.583   5.503   3.723 -0.7871 -1.0779 -0.7785
 1322TIP3   OH225380   5.507   1.935  11.427  0.0588  0.2662 -0.5812
 1322TIP3    H125381   5.516   1.947  11.332  0.2624  1.9601 -0.3823
 1322TIP3    H225382   5.413   1.924  11.441 -0.0859  1.0237 -0.8958
 1323TIP3   OH225383   2.695   5.026  11.017 -0.0377  0.4197  0.2404
 1323TIP3    H125384   2.647   5.014  11.099 -2.0392  3.9651 -0.1706
 1323TIP3    H225385   2.674   5.116  10.990  2.4287  0.2307 -2.9723
 1324TIP3   OH225386   5.650   1.411   3.835  0.5952  0.2767  0.2419
 1324TIP3    H125387   5.588   1.484   3.830  0.6684  0.2791 -1.1707
 1324TIP3    H225388   5.595   1.333   3.831  0.4576  0.2037  2.5542
 1325TIP3   OH225389   1.216   6.284   1.393  0.1406  0.3689  0.4534
 1325TIP3    H125390   1.123   6.308   1.398 -0.1436 -0.6427  0.2242
 1325TIP3    H225391   1.216   6.188   1.392  1.1257  0.3610 -0.5408
 1326TIP3   OH225392   0.515   0.826  12.889 -0.2084 -0.0291  0.1407
 1326TIP3    H125393   0.592   0.778  12.858 -0.6550 -1.2931  0.9103
 1326TIP3    H225394   0.449   0.811  12.821 -0.4022 -0.6918  0.4606
 1327TIP3   OH225395   3.970   0.980  16.787  0.1277  0.5379  0.0155
 1327TIP3    H125396   4.028   1.056  16.781  1.9261 -0.8048 -1.0850
 1327TIP3    H225397   4.020   0.917  16.840 -1.1631 -0.0090  0.6102
 1328TIP3   OH225398   4.236   6.432   0.558 -0.1489 -0.6391  0.0675
 1328TIP3    H125399   4.229   6.385   0.641 -2.6412  0.0772  0.3434
 1328TIP3    H225400   4.296   6.505   0.577 -1.6805  0.2921  1.7070
 1329TIP3   OH225401   5.659   3.098   5.810  0.5024 -0.0413 -0.3668
 1329TIP3    H125402   5.721   3.171   5.799  0.7921 -0.3901 -1.1998
 1329TIP3    H225403   5.663   3.052   5.726 -1.0891  0.0753 -0.5200
 1330TIP3   OH225404   6.062   2.009   2.578 -0.1798  0.0587  0.8154
 1330TIP3    H125405   5.987   1.952   2.558  0.1695 -0.4348  0.8956
 1330TIP3    H225406   6.024   2.096   2.588 -1.1056 -0.5718  3.3549
 1331TIP3   OH225407   6.535   3.801  11.153  0.2331  0.1183 -0.6930
 1331TIP3    H125408   6.448   3.780  11.188  0.3698  0.8816  0.1497
 1331TIP3    H225409   6.574   3.716  11.133 -0.3420 -0.2800 -0.1498
 1332TIP3   OH225410   3.404   3.799   4.841  0.2680  0.2309  0.1670
 1332TIP3    H125411   3.409   3.874   4.901  2.6473  1.1369 -1.0483
 1332TIP3    H225412   3.418   3.723   4.897 -0.0794  0.8458  1.1186
 1333TIP3   OH225413   5.738   5.467  15.071 -0.2765  0.0310  0.0603
 1333TIP3    H125414   5.712   5.426  14.989  0.3585 -0.2863  0.0124
 1333TIP3    H225415   5.800   5.535  15.045 -1.1635  0.9041  0.1566
 1334TIP3   OH225416   5.711   5.275   1.726 -0.2225 -0.6697 -0.3069
 1334TIP3    H125417   5.679   5.189   1.755  1.0889 -0.1092  3.3153
 1334TIP3    H225418   5.736   5.320   1.806 -1.8265  3.6203 -1.8985
 1335TIP3   OH225419   5.939   6.531   3.078  0.8912  0.0197  0.5529
 1335TIP3    H125420   5.971   6.618   3.099  2.5913  0.3194 -2.7353
 1335TIP3    H225421   5.873   6.544   3.010 -1.5641 -1.1043  2.5532
 1336TIP3   OH225422   2.635   5.528   4.806 -0.1938  0.9547 -0.1719
 1336TIP3    H125423   2.551   5.520   4.761  0.3718 -1.1375 -0.9734
 1336TIP3    H225424   2.612   5.531   4.899 -1.1601 -0.5965 -0.3235
 1337TIP3   OH225425   6.370   2.095   3.957  0.1190  0.2668 -0.7921
 1337TIP3    H125426   6.388   2.013   4.004  0.1010  0.6379 -0.1316
 1337TIP3    H225427   6.429   2.159   3.997  0.7094  0.3980 -1.8556
 1338TIP3   OH225428   3.663   3.021   2.434  0.6026  0.3589 -0.1457
 1338TIP3    H125429   3.745   3.059   2.467  1.1464 -1.3733  0.6410
 1338TIP3    H225430   3.668   2.929   2.460 -2.7783  0.6788  2.2649
 1339TIP3   OH225431   5.682   3.615   1.849  0.3443 -0.0656 -0.1922
 1339TIP3    H125432   5.688   3.524   1.880  0.1629  0.8051  2.7405
 1339TIP3    H225433   5.773   3.640   1.832  0.4489 -0.6316 -0.4823
 1340TIP3   OH225434   0.715   6.700  17.477 -0.1631 -0.1383 -0.2810
 1340TIP3    H125435   0.724   6.790  17.506 -2.5620  0.0345  0.1186
 1340TIP3    H225436   0.747   6.647  17.550  2.0851  0.3123 -0.8468
 1341TIP3   OH225437   2.311   6.182  12.848  0.0005  0.0650  0.4082
 1341TIP3    H125438   2.231   6.172  12.899 -0.7229  0.5864 -0.5996
 1341TIP3    H225439   2.322   6.276  12.837 -0.0737 -0.0437 -0.7151
 1342TIP3   OH225440   3.182   4.397   2.753 -0.1214  0.2747 -0.2567
 1342TIP3    H125441   3.230   4.316   2.774  1.3758  1.4332  1.1077
 1342TIP3    H225442   3.095   4.384   2.791 -0.0456 -0.8434 -0.4276
 1343TIP3   OH225443   2.839   1.207   5.577  0.1344  0.1755  0.1470
 1343TIP3    H125444   2.793   1.266   5.637  0.7696 -0.3083  1.1292
 1343TIP3    H225445   2.924   1.248   5.564  0.9815 -0.9954  1.6672
 1344TIP3   OH225446   3.575   1.037  15.052 -0.3783  0.4838 -0.0531
 1344TIP3    H125447   3.541   1.074  14.970  1.4913  2.1032 -0.1854
 1344TIP3    H225448   3.574   1.110  15.113  1.7778  0.3392  0.2230
 1345TIP3   OH225449   3.862   3.825  11.742 -0.4279 -0.1333  0.3642
 1345TIP3    H125450   3.846   3.913  11.708 -0.9807 -0.5044 -0.3459
 1345TIP3    H225451   3.779   3.779  11.730 -0.2198 -0.6782  0.9720
 1346TIP3   OH225452   2.568   6.572  11.865 -0.5405  0.2152  0.0370
 1346TIP3    H125453   2.522   6.576  11.782  0.1130 -0.4504 -0.3683
 1346TIP3    H225454   2.508   6.611  11.928 -1.6230 -0.5506 -0.4899
 1347TIP3   OH225455   2.296   4.086   6.046 -0.1832  0.0471  0.7958
 1347TIP3    H125456   2.322   4.020   6.111  0.3863  0.7596  1.3063
 1347TIP3    H225457   2.200   4.084   6.048 -0.1758 -0.8305  0.7343
 1348TIP3   OH225458   3.445   0.977   3.769  0.0349 -0.7841 -0.1748
 1348TIP3    H125459   3.420   1.010   3.683  0.4794 -1.9673 -0.7825
 1348TIP3    H225460   3.482   1.053   3.814  0.1993 -0.2421 -1.1902
 1349TIP3   OH225461   4.450   0.886  13.257 -0.0329  0.6872 -0.0113
 1349TIP3    H125462   4.480   0.953  13.195  0.4146  0.2907 -0.2281
 1349TIP3    H225463   4.530   0.843  13.286 -0.3371  0.0783 -0.0650
 1350TIP3   OH225464   1.098   3.553   5.192 -0.4366  0.0590 -0.0278
 1350TIP3    H125465   1.091   3.462   5.220 -0.3668  0.1063  0.1432
 1350TIP3    H225466   1.091   3.604   5.273  0.4681  0.1662 -0.0134
 1351TIP3   OH225467   6.385   1.887  16.628  0.2213  0.4600 -0.4291
 1351TIP3    H125468   6.346   1.810  16.587 -0.4181  1.5626 -1.9906
 1351TIP3    H225469   6.355   1.884  16.718  0.2667 -1.1335 -0.4323
 1352TIP3   OH225470   2.454   0.673   3.599 -0.3370 -0.1615  0.0394
 1352TIP3    H125471   2.424   0.747   3.651 -2.3360 -0.8153 -0.1152
 1352TIP3    H225472   2.374   0.628   3.571  0.6828 -0.5120 -2.6187
 1353TIP3   OH225473   0.760   0.219  15.452 -0.2323 -0.3462 -0.0956
 1353TIP3    H125474   0.738   0.299  15.499 -2.1681 -0.1354 -1.2757
 1353TIP3    H225475   0.850   0.234  15.421  1.3400 -0.6683  3.7160
 1354TIP3   OH225476   1.087   3.645  11.828 -0.0721 -0.2341  0.7306
 1354TIP3    H125477   1.119   3.731  11.855 -0.1639 -0.3909  1.3617
 1354TIP3    H225478   1.058   3.657  11.737 -0.3834  0.4782  0.9171
 1355TIP3   OH225479   3.824   6.169   2.847 -0.1268 -0.7241  0.5179
 1355TIP3    H125480   3.836   6.243   2.906  0.1593 -0.3450 -0.0026
 1355TIP3    H225481   3.776   6.206   2.772  0.7087 -0.8755 -0.1012
 1356TIP3   OH225482   5.454   2.701   1.511 -0.4888 -0.2278  0.4786
 1356TIP3    H125483   5.407   2.650   1.577 -2.6209  0.7976 -0.1554
 1356TIP3    H225484   5.502   2.767   1.561 -1.5955  0.1542  1.0687
 1357TIP3   OH225485   2.544   3.627   0.753 -0.4260 -0.4492  0.4050
 1357TIP3    H125486   2.538   3.624   0.848 -1.5739  0.9671  0.4206
 1357TIP3    H225487   2.597   3.705   0.735  0.0036 -0.8548 -0.1239
 1358TIP3   OH225488   0.187   2.112  14.694  0.4936  0.2576  0.3179
 1358TIP3    H125489   0.227   2.063  14.622 -0.5877  0.2224 -0.2760
 1358TIP3    H225490   0.161   2.046  14.757  0.4456  0.1943  0.2325
 1359TIP3   OH225491   2.971   4.318  15.417 -0.6089 -0.1415  0.1556
 1359TIP3    H125492   3.050   4.269  15.439 -1.1965 -0.5976  1.3710
 1359TIP3    H225493   2.940   4.279  15.336 -0.7907 -1.4938  0.8402
 1360TIP3   OH225494   1.263   2.477  13.299 -0.1696 -0.4153  0.1805
 1360TIP3    H125495   1.296   2.446  13.383  1.0222 -1.5578 -0.6604
 1360TIP3    H225496   1.280   2.405  13.238  0.6688  1.0329 -1.4084
 1361TIP3   OH225497   0.867   6.525   3.243  0.1491  1.2964  0.4455
 1361TIP3    H125498   0.839   6.473   3.167  2.5126  0.5162  0.0201
 1361TIP3    H225499   0.962   6.520   3.241  0.3091  0.6910  3.8781
 1362TIP3   OH225500   0.455   2.007  16.144 -0.4444 -0.0586  0.3098
 1362TIP3    H125501   0.445   2.006  16.240  0.1669 -2.1983  0.4016
 1362TIP3    H225502   0.488   1.920  16.123  0.3342  0.6893 -1.7776
 1363TIP3   OH225503   3.520   1.768  12.310  0.7815  0.0489  0.0775
 1363TIP3    H125504   3.482   1.855  12.306  0.2141 -0.2503 -1.6096
 1363TIP3    H225505   3.540   1.755  12.403  0.3324  1.7227  0.4383
 1364TIP3   OH225506   0.325   5.760  13.891  0.5852  0.3237 -0.4410
 1364TIP3    H125507   0.410   5.803  13.879  0.6334  0.5809  0.6976
 1364TIP3    H225508   0.286   5.805  13.966 -0.6907  0.3911 -1.1353
 1365TIP3   OH225509   1.665   2.923   0.178  0.6386  0.0753  0.4621
 1365TIP3    H125510   1.603   2.981   0.221  1.0929  1.5182 -0.7230
 1365TIP3    H225511   1.700   2.869   0.248  0.0906  1.1429  1.6081
 1366TIP3   OH225512   0.473   0.022  13.378 -0.0841 -0.3484  0.0324
 1366TIP3    H125513   0.564   0.044  13.399  0.3177 -0.2747 -1.6330
 1366TIP3    H225514   0.438  -0.015  13.459  0.7402  1.6676  1.3708
 1367TIP3   OH225515   6.373   2.568   2.504 -0.3941  0.3528  0.3053
 1367TIP3    H125516   6.290   2.605   2.472  0.7403  1.8594 -1.0377
 1367TIP3    H225517   6.403   2.630   2.570  0.4239  0.6775 -0.3524
 1368TIP3   OH225518   2.814   3.827  10.946  0.3852 -0.4631  0.7705
 1368TIP3    H125519   2.880   3.793  10.886  0.3265  0.1180  0.3741
 1368TIP3    H225520   2.764   3.749  10.972 -0.2185 -0.6102 -0.7078
 1369TIP3   OH225521   0.665   5.821  17.304 -0.0198 -0.0996  0.4235
 1369TIP3    H125522   0.632   5.859  17.222 -0.4727  0.4001  0.8226
 1369TIP3    H225523   0.751   5.786  17.282 -0.1461  0.0117 -0.2720
 1370TIP3   OH225524   2.887   5.017   0.677 -0.7519  0.1802 -0.3303
 1370TIP3    H125525   2.913   4.948   0.616 -0.9476 -1.4369  1.2944
 1370TIP3    H225526   2.792   5.022   0.668 -1.0171 -1.3752  1.0484
 1371TIP3   OH225527   4.508   3.483  15.397  0.0709 -0.1620  0.4663
 1371TIP3    H125528   4.545   3.403  15.433  0.8435 -0.3609 -0.7297
 1371TIP3    H225529   4.581   3.529  15.356 -0.6952  0.1862 -0.5893
 1372TIP3   OH225530   5.525   3.736   4.693 -0.1383 -0.2596 -0.3093
 1372TIP3    H125531   5.538   3.831   4.695 -0.6260 -0.2030  1.1438
 1372TIP3    H225532   5.603   3.703   4.647  0.2295  0.8080 -0.4965
 1373TIP3   OH225533   2.321   2.710   6.025  0.3293  0.9447 -0.1752
 1373TIP3    H125534   2.297   2.801   6.044  2.6509  0.9513  3.8216
 1373TIP3    H225535   2.408   2.716   5.985  1.6442  0.5373  2.4543
 1374TIP3   OH225536   1.118   2.329   4.680 -0.1947  0.4781 -0.0050
 1374TIP3    H125537   1.211   2.352   4.672  0.3002 -1.9201 -2.7735
 1374TIP3    H225538   1.071   2.407   4.650  1.1349  0.6101 -1.9641
 1375TIP3   OH225539   5.010   1.509  15.865  0.1551 -0.3402  0.0363
 1375TIP3    H125540   5.068   1.584  15.846  0.7338 -0.6050  0.7324
 1375TIP3    H225541   4.954   1.540  15.936 -0.9322  0.0914 -0.9661
 1376TIP3   OH225542   4.502   5.696   2.329 -0.0373  0.0877 -0.0033
 1376TIP3    H125543   4.520   5.676   2.421  0.2846 -0.6829 -0.2282
 1376TIP3    H225544   4.587   5.719   2.292 -0.3266  1.4226  0.1301
 1377TIP3   OH225545   3.938   1.998  14.159  0.7413 -0.0795 -0.7533
 1377TIP3    H125546   4.026   1.960  14.164  0.8258 -0.3112 -3.0985
 1377TIP3    H225547   3.945   2.067  14.092 -0.4758  1.0981  0.2670
 1378TIP3   OH225548   6.072   4.139  16.625  0.1311 -0.3672 -0.2054
 1378TIP3    H125549   6.005   4.177  16.569 -2.5974 -1.2636  2.2123
 1378TIP3    H225550   6.111   4.069  16.573 -0.2965  0.6149 -1.9160
 1379TIP3   OH225551   6.229   5.053   3.319 -0.6426 -0.3371 -0.4670
 1379TIP3    H125552   6.263   5.088   3.401  1.1746 -0.3271 -1.1629
 1379TIP3    H225553   6.237   4.958   3.329 -1.8691 -0.4126 -0.0724
 1380TIP3   OH225554   1.031   3.401  13.437 -0.2279 -0.2655 -0.1550
 1380TIP3    H125555   1.033   3.482  13.385  0.2496  0.2262  0.6103
 1380TIP3    H225556   0.938   3.376  13.438 -0.3523  0.1530 -0.5838
 1381TIP3   OH225557   1.560   3.588  12.792 -0.7848 -0.1653 -0.5914
 1381TIP3    H125558   1.469   3.619  12.786 -0.7169  0.5012  1.2920
 1381TIP3    H225559   1.560   3.504  12.746 -2.4077 -0.2888 -0.4217
 1382TIP3   OH225560   0.020   1.473  14.897  0.3876  0.0237  0.5215
 1382TIP3    H125561  -0.015   1.399  14.947 -0.9628 -0.2784 -0.8145
 1382TIP3    H225562  -0.039   1.546  14.918  0.7207  0.2887  0.5415
 1383TIP3   OH225563   0.932   3.641   4.639 -0.2841  0.1838  0.0773
 1383TIP3    H125564   0.877   3.654   4.717 -1.0941 -0.4524 -0.3644
 1383TIP3    H225565   0.870   3.639   4.566  0.1328 -1.9669 -0.3006
 1384TIP3   OH225566   0.903   0.049   1.605 -0.1825 -0.7322 -0.1506
 1384TIP3    H125567   0.979   0.012   1.559  0.0021 -1.3919  0.6609
 1384TIP3    H225568   0.904   0.142   1.582  1.3009 -0.5794  0.4079
 1385TIP3   OH225569   6.226   6.199  17.272  0.2881 -0.2391 -0.5458
 1385TIP3    H125570   6.235   6.175  17.180  2.9514 -0.2504 -0.3435
 1385TIP3    H225571   6.171   6.129  17.310  1.8435 -2.0512 -1.4759
 1386TIP3   OH225572   5.736   2.258  11.753  0.3114  0.3283 -0.1677
 1386TIP3    H125573   5.689   2.179  11.727 -1.5414  2.2711 -3.3138
 1386TIP3    H225574   5.678   2.300  11.817 -0.7505  1.1143 -1.6029
 1387TIP3   OH225575   3.375   5.861  11.909 -0.2920 -0.0850 -0.0128
 1387TIP3    H125576   3.295   5.873  11.859 -0.9054  0.1994  1.0261
 1387TIP3    H225577   3.385   5.942  11.959  0.0534 -0.5599  0.6973
 1388TIP3   OH225578   3.518   1.310   3.321  0.6635  0.1198 -0.7970
 1388TIP3    H125579   3.449   1.374   3.338  1.0716  0.5857 -0.8582
 1388TIP3    H225580   3.576   1.354   3.258  0.5571 -0.5941 -1.4020
 1389TIP3   OH225581   5.369   0.662  13.130 -0.2850 -0.3509 -0.0123
 1389TIP3    H125582   5.323   0.601  13.072 -1.4280  1.5442 -1.1978
 1389TIP3    H225583   5.392   0.736  13.074 -2.1608  1.9694  2.0452
 1390TIP3   OH225584   2.624   2.870  14.148  0.1465  0.0618 -0.0544
 1390TIP3    H125585   2.653   2.961  14.156 -0.1143  0.0743  0.9197
 1390TIP3    H225586   2.702   2.823  14.117  1.4330  0.0245  2.8817
 1391TIP3   OH225587   0.735   3.880   2.839  0.2819 -0.3405 -0.2908
 1391TIP3    H125588   0.787   3.929   2.903 -0.8545 -0.3003  0.6250
 1391TIP3    H225589   0.658   3.934   2.823  0.4101 -0.4846 -1.4968
 1392TIP3   OH225590   6.399   6.664   1.397 -0.1936  0.5224  0.1569
 1392TIP3    H125591   6.443   6.705   1.323 -0.8466 -0.0421 -0.5546
 1392TIP3    H225592   6.468   6.656   1.464  0.4578  0.8237 -0.4609
 1393TIP3   OH225593   0.747   1.084  12.080 -0.1605 -0.4275  0.0664
 1393TIP3    H125594   0.742   1.157  12.142  1.4487  0.3668 -0.6652
 1393TIP3    H225595   0.669   1.031  12.098 -0.2658  0.3176  2.0626
 1394TIP3   OH225596   3.469   2.980   5.582 -0.3201 -0.6566  0.0620
 1394TIP3    H125597   3.379   2.972   5.551 -0.0506 -1.4377 -0.5573
 1394TIP3    H225598   3.509   2.895   5.561  0.2204 -0.7815  1.4392
 1395TIP3   OH225599   1.665   1.009  11.517  0.3650  0.0039  0.0245
 1395TIP3    H125600   1.718   0.971  11.587 -0.1910 -1.8972 -0.5234
 1395TIP3    H225601   1.610   1.074  11.561  0.2557 -0.9201  1.2975
 1396TIP3   OH225602   1.820   4.219   4.660  0.0840  0.4684  0.2199
 1396TIP3    H125603   1.896   4.162   4.668  0.0468  0.2572 -0.9127
 1396TIP3    H225604   1.748   4.168   4.697  0.1516 -0.0201 -0.3124
 1397TIP3   OH225605   5.806   1.422  11.584 -0.0286  0.1507  0.0478
 1397TIP3    H125606   5.755   1.413  11.664 -0.0231  1.6479  0.2445
 1397TIP3    H225607   5.752   1.475  11.527  0.8264  0.8066 -0.1703
 1398TIP3   OH225608   2.542   5.210   6.600  0.6061 -0.4805  0.1829
 1398TIP3    H125609   2.499   5.294   6.618 -1.2798 -1.3811  0.0764
 1398TIP3    H225610   2.514   5.153   6.671 -0.7891 -1.9269 -1.4655
 1399TIP3   OH225611   2.404   4.217  14.840 -0.5349  0.0965  0.8185
 1399TIP3    H125612   2.338   4.253  14.900 -1.3348  0.9117 -0.4863
 1399TIP3    H225613   2.355   4.197  14.760  0.7247  0.3022 -0.0339
 1400TIP3   OH225614   6.237   1.087   3.281 -0.1942  0.4285  0.2386
 1400TIP3    H125615   6.254   1.173   3.243 -1.5693  0.5320 -0.2235
 1400TIP3    H225616   6.319   1.039   3.270  0.2706  1.3408 -0.4400
 1401TIP3   OH225617   3.763   4.233   2.660 -0.1594  0.3692 -0.2347
 1401TIP3    H125618   3.769   4.139   2.678 -0.8368  0.4099  0.2560
 1401TIP3    H225619   3.797   4.275   2.739  1.0706  0.5405 -0.8402
 1402TIP3   OH225620   0.735   0.673  16.169 -0.1639  1.1483 -0.3290
 1402TIP3    H125621   0.716   0.689  16.261  1.1263 -3.2201  0.9395
 1402TIP3    H225622   0.830   0.666  16.165 -0.3087 -0.8778 -1.4818
 1403TIP3   OH225623   3.420   2.299   3.605  0.0454  0.5186  0.3917
 1403TIP3    H125624   3.395   2.392   3.605 -3.1105 -0.2137  0.5790
 1403TIP3    H225625   3.337   2.252   3.612  1.3862 -2.4020 -1.3904
 1404TIP3   OH225626   4.365   4.512  14.810 -0.3038  0.2971 -0.5019
 1404TIP3    H125627   4.414   4.435  14.782  1.0805  0.6659  0.7786
 1404TIP3    H225628   4.295   4.521  14.745  0.2917 -1.2557 -1.4081
 1405TIP3   OH225629   0.252   6.511  12.386 -0.8507  0.2866  0.4981
 1405TIP3    H125630   0.288   6.434  12.428  0.3533 -0.8869 -2.4166
 1405TIP3    H225631   0.253   6.491  12.293 -1.3939  3.4556 -0.3359
 1406TIP3   OH225632   1.451   3.820   3.357  0.2451 -0.1092  0.1486
 1406TIP3    H125633   1.484   3.788   3.441  0.5260 -2.3447 -0.7466
 1406TIP3    H225634   1.528   3.859   3.315  1.0712 -2.3466 -0.5563
 1407TIP3   OH225635   3.153   5.872  12.726  0.7354  0.0812 -0.6744
 1407TIP3    H125636   3.129   5.960  12.753 -2.0044 -0.0384 -2.4241
 1407TIP3    H225637   3.146   5.819  12.805 -0.0303  0.9887 -0.1318
 1408TIP3   OH225638   3.965   5.408  12.535  0.1258 -0.6707 -0.0110
 1408TIP3    H125639   3.981   5.404  12.441 -0.0686 -0.5491 -0.0495
 1408TIP3    H225640   4.052   5.411  12.574  0.2251  1.4021 -0.2750
 1409TIP3   OH225641   4.294   0.561  10.967 -0.0843 -0.5284  0.3926
 1409TIP3    H125642   4.248   0.502  10.908  0.3567  0.6344 -1.1739
 1409TIP3    H225643   4.327   0.504  11.037 -1.5419 -1.7763  0.1262
 1410TIP3   OH225644   2.663   2.784  14.972 -0.1486 -0.0550 -0.2137
 1410TIP3    H125645   2.648   2.787  14.877 -3.2153  1.9932  0.1958
 1410TIP3    H225646   2.719   2.860  14.989 -0.3189  0.0865 -0.2829
 1411TIP3   OH225647   4.298   6.509  16.518  0.6387 -0.5017  0.4682
 1411TIP3    H125648   4.221   6.546  16.474  0.0994 -0.7887  1.1462
 1411TIP3    H225649   4.352   6.476  16.447 -1.0367 -2.5537  0.0265
 1412TIP3   OH225650   1.994   5.238  16.337  0.0133  0.8614  0.0650
 1412TIP3    H125651   2.074   5.187  16.350 -0.1989  0.8013  1.2722
 1412TIP3    H225652   2.024   5.326  16.316  0.4053  0.8925  0.7261
 1413TIP3   OH225653   2.578   3.631   5.166  0.2214  0.5985  0.1432
 1413TIP3    H125654   2.533   3.635   5.251 -0.7392  1.6797 -0.3732
 1413TIP3    H225655   2.546   3.551   5.126  1.1327 -0.2245  1.0303
 1414TIP3   OH225656   0.653   0.494   5.778 -0.4774  0.1836 -0.2957
 1414TIP3    H125657   0.692   0.575   5.745 -0.4803 -0.0909 -0.9957
 1414TIP3    H225658   0.586   0.523   5.840 -1.3980  0.7851 -1.5251
 1415TIP3   OH225659   5.112   2.705  15.287 -0.1992  0.4588 -0.9846
 1415TIP3    H125660   5.174   2.702  15.360 -2.0785  2.0541  0.8248
 1415TIP3    H225661   5.043   2.644  15.312 -0.6375  0.6681 -1.6778
 1416TIP3   OH225662   2.102   3.222   4.468  0.5824 -0.0481  0.3664
 1416TIP3    H125663   2.165   3.233   4.539  0.6888  1.1137  0.1199
 1416TIP3    H225664   2.052   3.144   4.492  1.1885 -0.1819  1.2678
 1417TIP3   OH225665   5.248   2.105  12.564 -0.3068  0.2438 -0.2478
 1417TIP3    H125666   5.284   2.104  12.653  1.0622  2.1861 -0.7131
 1417TIP3    H225667   5.296   2.036  12.518 -1.3251 -1.0697  0.5828
 1418TIP3   OH225668   4.410   4.548  11.493  0.5573  0.2764 -0.1840
 1418TIP3    H125669   4.339   4.563  11.430  0.4735  0.1370 -0.1230
 1418TIP3    H225670   4.442   4.636  11.514 -0.4285  0.4471  0.7409
 1419TIP3   OH225671   6.432   1.708   5.074 -0.8213  0.3265  0.5370
 1419TIP3    H125672   6.475   1.752   5.001 -2.4508  2.0931  0.5542
 1419TIP3    H225673   6.365   1.653   5.033  0.0960 -0.8859  0.6071
 1420TIP3   OH225674   4.750   1.438   6.319  0.0968  0.7284  0.3968
 1420TIP3    H125675   4.768   1.512   6.377  1.7001  0.3871  0.3857
 1420TIP3    H225676   4.807   1.368   6.351 -1.8504 -0.7509  0.8197
 1421TIP3   OH225677   1.382   4.298  11.064  0.5103  0.2154  0.5691
 1421TIP3    H125678   1.309   4.344  11.105  0.5614  0.3466  0.5154
 1421TIP3    H225679   1.390   4.339  10.978 -1.1208 -1.6379 -0.5537
 1422TIP3   OH225680   2.151   2.936   3.665 -0.3720 -0.4048  0.0991
 1422TIP3    H125681   2.151   3.024   3.701 -0.1157  0.0006 -0.8617
 1422TIP3    H225682   2.206   2.886   3.725  2.0325  0.7985 -0.9649
 1423TIP3   OH225683   1.661   3.687  14.142 -0.0301 -0.3924 -0.6185
 1423TIP3    H125684   1.712   3.677  14.061 -0.8469 -0.7736 -1.0963
 1423TIP3    H225685   1.587   3.742  14.117 -1.0242 -1.6143 -0.4839
 1424TIP3   OH225686   5.274   2.899  11.526 -0.3622 -0.1144 -0.1209
 1424TIP3    H125687   5.309   2.943  11.448  0.9915 -0.1397  0.4513
 1424TIP3    H225688   5.213   2.834  11.491  1.6206 -1.4423 -1.3092
 1425TIP3   OH225689   5.916   5.916   4.316 -0.0124 -0.4014 -0.3543
 1425TIP3    H125690   5.935   5.842   4.259  0.1565 -0.8792  0.3130
 1425TIP3    H225691   5.985   5.979   4.297  1.1434 -1.3154  0.6391
 1426TIP3   OH225692   0.686   1.846  15.273 -0.2434 -0.0531  0.0678
 1426TIP3    H125693   0.657   1.934  15.248 -0.1817 -0.4216 -1.3959
 1426TIP3    H225694   0.775   1.859  15.306  0.2964  0.2698 -1.4632
 1427TIP3   OH225695   5.452   3.743  12.603  0.2774 -0.3353  0.0130
 1427TIP3    H125696   5.434   3.726  12.511  0.6219 -0.2761 -0.0675
 1427TIP3    H225697   5.386   3.692  12.651  0.0869 -0.3516 -0.2635
 1428TIP3   OH225698   1.518   3.731  13.052  0.3420 -0.2043 -0.2149
 1428TIP3    H125699   1.447   3.672  13.079 -0.0431  1.0903  1.7575
 1428TIP3    H225700   1.560   3.685  12.979 -1.4193 -1.8080 -0.3114
 1429TIP3   OH225701   0.519   4.853   0.020 -0.6621  0.0699 -0.2026
 1429TIP3    H125702   0.526   4.758   0.012  0.1601  0.0125  1.0515
 1429TIP3    H225703   0.559   4.887  -0.060  0.4283 -0.6122  0.0408
 1430TIP3   OH225704   5.186   0.824  14.864  0.5119  0.1083  0.0116
 1430TIP3    H125705   5.091   0.820  14.863  0.4965 -0.1441  1.3945
 1430TIP3    H225706   5.214   0.743  14.821  0.1198  0.5524 -1.1148
 1431TIP3   OH225707   6.298   2.431  12.166 -0.1129 -0.5952  0.4333
 1431TIP3    H125708   6.240   2.433  12.090 -0.3865 -0.9945  0.6336
 1431TIP3    H225709   6.271   2.506  12.219 -0.4753 -0.8061  0.5481
 1432TIP3   OH225710   0.374   1.645  13.615  0.4858  0.2410  0.1353
 1432TIP3    H125711   0.363   1.654  13.710  1.9907  1.2466  0.2545
 1432TIP3    H225712   0.287   1.662  13.579 -0.1930 -0.5165  1.3485
 1433TIP3   OH225713   1.356   2.252   5.432  0.7417  1.0178 -0.0113
 1433TIP3    H125714   1.430   2.285   5.380  1.5624 -0.2355  0.3092
 1433TIP3    H225715   1.338   2.166   5.395  0.9263  0.3718  1.3613
 1434TIP3   OH225716   2.146   4.204   6.659 -0.1882  0.3024  0.2546
 1434TIP3    H125717   2.239   4.185   6.665 -0.1139  0.5287 -0.1827
 1434TIP3    H225718   2.116   4.158   6.580 -0.8464 -1.3414  1.3920
 1435TIP3   OH225719   5.528   1.952  15.928 -0.5456  0.4935  0.2010
 1435TIP3    H125720   5.562   1.882  15.872  1.3310  1.0766  0.5361
 1435TIP3    H225721   5.453   1.986  15.881  0.0136 -0.1115 -1.1817
 1436TIP3   OH225722   4.586   4.873   5.264  0.3266 -0.2696  0.5817
 1436TIP3    H125723   4.513   4.935   5.263  1.3421  1.0086  1.3911
 1436TIP3    H225724   4.545   4.787   5.274 -1.0943  0.3283  0.1827
 1437TIP3   OH225725   4.183   2.332  16.637 -0.0415 -0.2184 -0.0445
 1437TIP3    H125726   4.229   2.339  16.720 -0.5941  1.8863  0.1273
 1437TIP3    H225727   4.127   2.409  16.633 -0.4941 -0.5783 -2.1028
 1438TIP3   OH225728   1.805   2.842  11.891  0.4965 -0.2770 -0.4302
 1438TIP3    H125729   1.849   2.919  11.926  0.6243 -0.9132  0.8620
 1438TIP3    H225730   1.716   2.870  11.872  0.7991  0.4155 -0.8597
 1439TIP3   OH225731   2.602   5.758  11.138 -0.1385  0.1598 -0.3712
 1439TIP3    H125732   2.681   5.726  11.095 -0.5998 -2.0029  0.2587
 1439TIP3    H225733   2.554   5.805  11.069  0.6756 -0.3773 -1.3242
 1440TIP3   OH225734   2.746   3.036  12.648 -0.3024  0.4827  0.3611
 1440TIP3    H125735   2.737   2.942  12.633  0.4284  0.3467  0.7805
 1440TIP3    H225736   2.671   3.058  12.704 -1.4114  0.4685 -1.0448
 1441TIP3   OH225737   1.680   2.839  16.429  0.0770  0.5294 -0.6437
 1441TIP3    H125738   1.681   2.867  16.520  0.0987  0.7425 -0.7108
 1441TIP3    H225739   1.664   2.744  16.433  2.7747  0.0217 -0.2997
 1442TIP3   OH225740   3.483   1.947   6.230  0.4857 -0.1753 -0.6060
 1442TIP3    H125741   3.457   1.891   6.158 -2.8067 -0.3736  0.5570
 1442TIP3    H225742   3.434   1.913   6.305  0.1123  2.8453  0.6456
 1443TIP3   OH225743   2.826   5.481   0.824  0.4362 -0.8021  0.7914
 1443TIP3    H125744   2.858   5.395   0.850 -0.6301 -0.9292  1.7462
 1443TIP3    H225745   2.896   5.517   0.769  1.4480 -1.7472  1.4199
 1444TIP3   OH225746   3.584   6.492  15.893 -0.5717  0.8906 -0.4069
 1444TIP3    H125747   3.614   6.429  15.827  0.4709  0.1901  0.6989
 1444TIP3    H225748   3.625   6.575  15.866  1.6780  0.1612  0.5003
 1445TIP3   OH225749   3.420   4.065  15.173 -0.0310 -0.0048 -0.2122
 1445TIP3    H125750   3.426   4.071  15.078  2.5804  1.1947 -0.0665
 1445TIP3    H225751   3.418   3.972  15.192  1.1203 -0.3018 -1.4249
 1446TIP3   OH225752   4.900   4.653  16.871  0.1586  0.5006 -0.4425
 1446TIP3    H125753   4.901   4.641  16.776  0.6319  1.3674 -0.5569
 1446TIP3    H225754   4.812   4.626  16.897  0.1895 -0.2272 -1.0544
 1447TIP3   OH225755   2.704   3.354  17.077  0.0835  0.4864 -0.0853
 1447TIP3    H125756   2.788   3.394  17.058 -0.4873  1.9871  0.3802
 1447TIP3    H225757   2.657   3.355  16.993  0.2837  0.2813 -0.1991
 1448TIP3   OH225758   5.908   2.489  14.577 -0.1662  0.0140  0.2882
 1448TIP3    H125759   5.861   2.573  14.574  0.4425  0.5665  3.1865
 1448TIP3    H225760   5.954   2.484  14.493  1.9594  3.9332  1.0195
 1449TIP3   OH225761   3.636   0.539  13.288 -0.9138 -0.1850  0.1696
 1449TIP3    H125762   3.709   0.499  13.336  0.4176 -1.7072 -2.8733
 1449TIP3    H225763   3.664   0.630  13.274 -0.3869 -0.2987  0.4445
 1450TIP3   OH225764   3.034   5.479   5.008 -0.0189 -0.6723  0.0438
 1450TIP3    H125765   3.083   5.426   4.945 -0.4673 -0.3217 -0.6131
 1450TIP3    H225766   2.982   5.539   4.954  1.0832  1.0095  0.7394
 1451TIP3   OH225767   2.605   2.236  13.727  0.0102 -0.1036 -0.4340
 1451TIP3    H125768   2.552   2.312  13.705  1.5818  0.5674 -2.1730
 1451TIP3    H225769   2.666   2.268  13.794 -1.4291 -0.7805  1.2980
 1452TIP3   OH225770   2.574   3.901   4.188 -0.4382  0.0124 -0.2158
 1452TIP3    H125771   2.483   3.914   4.160 -0.7149 -1.3611  0.0147
 1452TIP3    H225772   2.580   3.949   4.270 -0.9393  0.1363 -0.2463
 1453TIP3   OH225773   2.521   5.048  12.601  0.0890 -0.1468 -0.1837
 1453TIP3    H125774   2.428   5.054  12.580  0.0156  0.8042  0.3615
 1453TIP3    H225775   2.539   4.954  12.603 -0.7795 -0.3311 -0.6222
 1454TIP3   OH225776   3.586   3.239  17.539 -0.0517 -0.2069  0.0846
 1454TIP3    H125777   3.580   3.248  17.444 -0.1772  0.6344  0.1603
 1454TIP3    H225778   3.613   3.148  17.554 -3.8051 -1.5880 -0.6090
 1455TIP3   OH225779   6.615   2.018  16.617  0.4226 -0.3324  0.0994
 1455TIP3    H125780   6.528   1.979  16.610  0.1731  0.3158 -0.6127
 1455TIP3    H225781   6.608   2.100  16.567  1.6761 -0.6893 -0.6930
 1456TIP3   OH225782   4.337   5.154  17.554 -0.0087  0.2220 -0.1059
 1456TIP3    H125783   4.406   5.108  17.506 -0.2322  1.1842 -1.3954
 1456TIP3    H225784   4.377   5.237  17.579 -0.2578  0.1994  0.3689
 1457TIP3   OH225785   2.555   2.577   2.001  0.7939 -0.6492  0.3980
 1457TIP3    H125786   2.558   2.487   2.032 -0.1526 -1.1631 -0.9023
 1457TIP3    H225787   2.645   2.598   1.977  0.7875 -1.8104 -0.7279
 1458TIP3   OH225788   1.701   2.202  12.219  0.1313 -0.3883  0.0409
 1458TIP3    H125789   1.793   2.224  12.203  0.1844 -0.3714  0.3509
 1458TIP3    H225790   1.652   2.274  12.180  0.2172 -0.7576 -0.7637
 1459TIP3   OH225791   2.930   0.580   5.467  0.1966 -0.0013 -0.0870
 1459TIP3    H125792   2.988   0.654   5.483  0.6631 -0.4771  0.4466
 1459TIP3    H225793   2.937   0.525   5.545 -1.5520  0.2958  0.3326
 1460TIP3   OH225794   0.819   1.304   6.855 -0.6161 -0.4988 -0.2890
 1460TIP3    H125795   0.892   1.346   6.902  1.0784 -2.4122 -1.0735
 1460TIP3    H225796   0.794   1.231   6.911 -2.8887  0.8675  0.5967
 1461TIP3   OH225797   4.302   6.364  16.778 -0.0256 -0.0586 -0.1659
 1461TIP3    H125798   4.232   6.301  16.759 -1.3847  1.2184  0.4025
 1461TIP3    H225799   4.356   6.364  16.700 -0.7518 -0.9677 -0.6877
 1462TIP3   OH225800   2.683   4.297  14.305 -0.2154 -0.0023 -0.1871
 1462TIP3    H125801   2.750   4.260  14.363 -2.1412  0.3821  2.4302
 1462TIP3    H225802   2.628   4.222  14.282 -1.2907  0.3741  1.1144
 1463TIP3   OH225803   2.265   0.684   2.278  0.2210 -0.2332  0.6123
 1463TIP3    H125804   2.298   0.623   2.212 -0.1568  0.8615 -0.6110
 1463TIP3    H225805   2.300   0.650   2.361  0.1546 -2.0131 -0.0432
 1464TIP3   OH225806   3.477   6.146   0.105 -0.0409 -0.2287  0.4765
 1464TIP3    H125807   3.408   6.119   0.166  0.0290 -0.2173  0.5610
 1464TIP3    H225808   3.444   6.227   0.066  0.4366  0.4253  1.3858
 1465TIP3   OH225809   5.803   0.859   1.398 -0.0579 -0.2371 -0.3422
 1465TIP3    H125810   5.878   0.842   1.341  0.1594  2.5536 -1.0265
 1465TIP3    H225811   5.740   0.904   1.341 -0.1048  2.0453  1.3871
 1466TIP3   OH225812   6.712   6.180   4.039 -0.6870  0.3764 -0.2022
 1466TIP3    H125813   6.781   6.212   3.982 -1.2864 -1.0724 -1.8321
 1466TIP3    H225814   6.633   6.184   3.985 -1.3006 -0.9264  0.5416
 1467TIP3   OH225815   4.504   6.149  16.923  0.3289  0.6731 -0.3738
 1467TIP3    H125816   4.521   6.178  16.834  1.7102 -1.9716 -1.0703
 1467TIP3    H225817   4.409   6.152  16.931  0.2536  2.2890 -1.3986
 1468TIP3   OH225818   2.492   5.938   5.045  0.1635 -0.6754 -0.1036
 1468TIP3    H125819   2.447   6.019   5.068 -0.7425 -1.4048  0.7924
 1468TIP3    H225820   2.431   5.869   5.072  0.9057 -1.6535 -0.8675
 1469TIP3   OH225821   6.167   2.007  12.705 -0.1177  0.4410 -0.2682
 1469TIP3    H125822   6.216   2.004  12.787  0.3616 -1.2223 -0.5854
 1469TIP3    H225823   6.214   2.072  12.652 -0.4725  1.5851  0.7677
 1470TIP3   OH225824   2.599   0.266   1.569 -0.1311  0.4385  0.4158
 1470TIP3    H125825   2.603   0.174   1.597 -0.8393  0.3683  0.3166
 1470TIP3    H225826   2.529   0.304   1.622 -1.7784  0.2075 -1.4555
 1471TIP3   OH225827   6.495   5.937   0.657  0.3999  0.5246 -0.2168
 1471TIP3    H125828   6.577   5.887   0.652  0.7715  1.0959  0.0089
 1471TIP3    H225829   6.494   5.971   0.747 -0.2937  0.1783 -0.0899
 1472TIP3   OH225830   4.068   3.587  11.666 -0.5752 -0.4742 -0.2904
 1472TIP3    H125831   4.077   3.614  11.575  1.4208 -0.1713 -0.0267
 1472TIP3    H225832   3.973   3.582  11.680 -1.0015  2.4112 -1.4991
 1473TIP3   OH225833   0.701   4.647   4.609 -0.1847  0.2946 -0.4916
 1473TIP3    H125834   0.630   4.590   4.578 -2.0883  0.4945  2.9365
 1473TIP3    H225835   0.660   4.734   4.616  1.0059  0.8612 -0.3196
 1474TIP3   OH225836   2.955   0.826   3.105 -0.7698  0.1828  0.2939
 1474TIP3    H125837   3.014   0.763   3.065 -1.7507 -0.6004  0.0622
 1474TIP3    H225838   3.005   0.862   3.179  0.0867 -0.2619 -0.0575
 1475TIP3   OH225839   3.736   1.211   1.793  0.4607 -0.3942  0.1498
 1475TIP3    H125840   3.825   1.177   1.803  0.6905  0.1975  0.1097
 1475TIP3    H225841   3.691   1.144   1.740  1.0649 -0.3735 -0.4008
 1476TIP3   OH225842   0.383   6.288   2.516  0.3705 -0.0694 -0.2755
 1476TIP3    H125843   0.442   6.270   2.443 -0.6010 -2.2068 -0.6061
 1476TIP3    H225844   0.427   6.356   2.567  1.8799  0.2208 -1.8977
 1477TIP3   OH225845   3.264   3.975  12.059 -0.2071 -0.3859 -0.2779
 1477TIP3    H125846   3.346   4.008  12.096 -1.1456  0.8390  0.8222
 1477TIP3    H225847   3.271   3.994  11.965  0.3037  0.7758 -0.0303
 1478TIP3   OH225848   5.786   3.771  16.133  0.4304 -0.0137  0.3109
 1478TIP3    H125849   5.749   3.837  16.075  0.3779 -3.6375 -4.3366
 1478TIP3    H225850   5.878   3.764  16.107  0.2683 -2.1739  0.1430
 1479TIP3   OH225851   5.693   2.271  14.634  0.7936  0.7734  0.0182
 1479TIP3    H125852   5.776   2.301  14.598  2.0334 -1.6753  0.5679
 1479TIP3    H225853   5.709   2.263  14.728 -0.0377  0.2287  0.1266
 1480TIP3   OH225854   1.522   0.646  11.776  0.2739  0.7052  0.7822
 1480TIP3    H125855   1.609   0.662  11.740  0.3611 -2.4192 -0.7593
 1480TIP3    H225856   1.539   0.594  11.855 -0.1851  0.7765  0.9295
 1481TIP3   OH225857   4.361   6.360  13.686 -0.3013  0.0400  0.4118
 1481TIP3    H125858   4.391   6.448  13.706  2.2921 -0.8306  0.7267
 1481TIP3    H225859   4.325   6.328  13.769 -0.8783  0.6325  0.3985
 1482TIP3   OH225860   1.083   2.493   5.876 -0.1957  0.2324 -0.2082
 1482TIP3    H125861   1.173   2.475   5.849 -0.1819 -0.5477  0.3270
 1482TIP3    H225862   1.050   2.408   5.906 -1.4247  0.2859 -1.2888
 1483TIP3   OH225863   5.908   2.753   5.932 -0.3622  0.2766 -0.5062
 1483TIP3    H125864   5.959   2.697   5.991  0.5077  1.1983 -0.3688
 1483TIP3    H225865   5.830   2.701   5.912  0.7058 -1.2602 -0.8824
 1484TIP3   OH225866   2.011   3.353  12.324  0.3216 -0.4317  0.0415
 1484TIP3    H125867   1.993   3.291  12.396  1.4940 -0.4996  0.2959
 1484TIP3    H225868   2.002   3.439  12.364 -2.1224 -0.3545 -0.5038
 1485TIP3   OH225869   3.839   1.643  12.605 -0.0149 -0.0841  0.7111
 1485TIP3    H125870   3.778   1.599  12.663  0.7983 -3.2240 -0.6137
 1485TIP3    H225871   3.821   1.608  12.518  0.8601  2.1358 -0.4766
 1486TIP3   OH225872   3.688   1.573   2.810 -0.3460  0.5187  0.3608
 1486TIP3    H125873   3.712   1.658   2.775 -1.2544  1.3311  1.6129
 1486TIP3    H225874   3.770   1.535   2.842  0.4155 -0.0321 -2.0652
 1487TIP3   OH225875   2.467   2.737   2.430 -0.5712  0.0367 -0.5673
 1487TIP3    H125876   2.517   2.815   2.409  1.7288 -1.4532 -1.0379
 1487TIP3    H225877   2.391   2.741   2.372  0.6980  0.7957 -2.2831
 1488TIP3   OH225878   1.583   5.305   6.049 -0.0239  0.3045  0.5027
 1488TIP3    H125879   1.624   5.225   6.016 -0.9456  0.2091 -0.4890
 1488TIP3    H225880   1.538   5.278   6.129 -1.6147 -0.5873 -0.6164
 1489TIP3   OH225881   4.919   5.044   2.619  0.0070 -0.5077 -0.3148
 1489TIP3    H125882   4.890   4.954   2.605 -0.5295 -0.3508 -0.2678
 1489TIP3    H225883   4.899   5.088   2.536  1.5028 -0.7334 -0.8128
 1490TIP3   OH225884   3.360   0.015  15.287  0.0865 -0.2054 -0.2888
 1490TIP3    H125885   3.362  -0.014  15.378 -1.3371 -0.4995 -0.3356
 1490TIP3    H225886   3.371   0.110  15.292 -1.1494 -0.0690  0.2925
 1491TIP3   OH225887   6.247   3.954  17.465  0.3592 -0.1630 -0.9283
 1491TIP3    H125888   6.188   4.024  17.437  0.5799 -0.1067 -1.2524
 1491TIP3    H225889   6.214   3.875  17.421 -1.4208 -0.7978  1.3591
 1492TIP3   OH225890   4.974   1.265  13.660 -0.1277  0.1283  0.1560
 1492TIP3    H125891   4.967   1.274  13.755 -1.9138 -3.1547  0.5162
 1492TIP3    H225892   5.056   1.219  13.646 -0.7609 -1.1254  0.3772
 1493TIP3   OH225893   0.294   1.248  15.487  0.1990 -0.1376 -0.3973
 1493TIP3    H125894   0.301   1.323  15.546  0.7043  0.1977 -0.8741
 1493TIP3    H225895   0.279   1.286  15.401  0.9238 -0.5600 -0.7233
 1494TIP3   OH225896   6.360   4.062   5.950 -0.6639 -0.1738 -0.6123
 1494TIP3    H125897   6.455   4.057   5.937 -0.5013 -0.1553  0.4996
 1494TIP3    H225898   6.340   3.988   6.007 -1.4158 -0.5213 -1.3099
 1495TIP3   OH225899   4.331   6.239  11.116  0.5186  0.2883 -0.3360
 1495TIP3    H125900   4.416   6.283  11.124  0.2220  1.1503 -1.6773
 1495TIP3    H225901   4.350   6.158  11.068  0.9092 -0.6494  1.3106
 1496TIP3   OH225902   1.529   0.613   0.618 -0.0055  0.0009  0.1721
 1496TIP3    H125903   1.522   0.654   0.531 -0.6056  0.2429  0.3256
 1496TIP3    H225904   1.608   0.559   0.613  1.0955  1.5515  0.1326
 1497TIP3   OH225905   1.598   2.899   5.908  0.3636 -0.1133 -0.1037
 1497TIP3    H125906   1.535   2.902   5.836  0.3295  0.3207 -0.0594
 1497TIP3    H225907   1.577   2.818   5.955  0.5971 -0.5651 -0.7691
 1498TIP3   OH225908   1.626   3.806  15.326  0.4759 -0.0630  0.4772
 1498TIP3    H125909   1.549   3.807  15.383  0.6217  0.2686  0.6685
 1498TIP3    H225910   1.647   3.713  15.316 -0.6398 -0.2417 -0.5065
 1499TIP3   OH225911   6.232   5.180   2.607 -0.0465 -0.3989  0.2269
 1499TIP3    H125912   6.171   5.127   2.660  0.1578 -0.1146  0.7548
 1499TIP3    H225913   6.177   5.220   2.541 -0.4925  0.0830  0.8735
 1500TIP3   OH225914   6.413   0.712   3.249  0.8943 -0.8137 -0.2357
 1500TIP3    H125915   6.317   0.714   3.245  0.9182  2.0074 -2.2975
 1500TIP3    H225916   6.436   0.783   3.308  1.7353 -1.2739  0.0088
 1501TIP3   OH225917   4.487   0.157  13.760  0.2220  0.3294  0.1322
 1501TIP3    H125918   4.504   0.072  13.719 -0.1332  0.3356 -0.0363
 1501TIP3    H225919   4.554   0.215  13.724  1.2702 -0.1751  1.2212
 1502TIP3   OH225920   5.837   4.123   2.493 -0.5017 -0.4659 -0.4526
 1502TIP3    H125921   5.759   4.070   2.478 -0.6726  0.0287 -1.3939
 1502TIP3    H225922   5.910   4.068   2.465 -0.5239 -0.8256  0.1737
 1503TIP3   OH225923   3.258   5.549  16.419  0.1439 -0.1516  0.2592
 1503TIP3    H125924   3.178   5.599  16.402 -0.2312 -0.6636  0.4792
 1503TIP3    H225925   3.303   5.546  16.334 -1.7587 -2.7732 -0.8050
 1504TIP3   OH225926   4.516   4.396   6.126 -0.0333 -0.0889  0.4220
 1504TIP3    H125927   4.429   4.393   6.088  0.8114  1.1645 -1.8205
 1504TIP3    H225928   4.501   4.415   6.219 -2.1317  0.3961  0.0379
 1505TIP3   OH225929   1.224   3.755   4.332 -0.7617 -0.5236 -0.9500
 1505TIP3    H125930   1.244   3.664   4.352 -0.4069 -0.1226  0.6629
 1505TIP3    H225931   1.188   3.790   4.413  1.4742  1.4404 -0.7029
 1506TIP3   OH225932   3.139   1.719   0.550  0.0569 -0.2894 -0.1226
 1506TIP3    H125933   3.190   1.799   0.540 -0.6204  0.1849  0.1774
 1506TIP3    H225934   3.204   1.649   0.553  0.6748  0.2858 -0.0044
 1507TIP3   OH225935   3.500   1.519  13.893 -0.3866  0.3275  0.4829
 1507TIP3    H125936   3.525   1.547  13.982 -0.2410  2.5733 -0.1910
 1507TIP3    H225937   3.582   1.518  13.844 -0.6666  0.7049 -0.0057
 1508TIP3   OH225938   4.169   0.595   1.830 -0.2764 -0.6309  0.7937
 1508TIP3    H125939   4.216   0.647   1.765 -0.8114 -1.8114 -0.6288
 1508TIP3    H225940   4.234   0.534   1.865 -0.3238 -1.0690  0.1426
 1509TIP3   OH225941   3.486   4.939  15.363  0.4400  0.1087 -0.0167
 1509TIP3    H125942   3.566   4.984  15.334  1.1542  0.5199  2.3218
 1509TIP3    H225943   3.415   4.998  15.339  1.1123  1.0848  0.3237
 1510TIP3   OH225944   0.926   3.125  11.916  0.3210 -0.6690  0.2375
 1510TIP3    H125945   0.967   3.097  11.998  1.3544 -2.8325 -0.9233
 1510TIP3    H225946   0.979   3.083  11.848  0.8716  2.7667 -1.6917
 1511TIP3   OH225947   5.746   1.871   4.255  0.5836  0.4057 -0.0407
 1511TIP3    H125948   5.730   1.914   4.171  1.5667  0.8158 -0.0301
 1511TIP3    H225949   5.725   1.937   4.321  0.1595  0.2021  0.0317
 1512TIP3   OH225950   5.195   6.057  15.435  0.0075 -0.2790  0.1752
 1512TIP3    H125951   5.270   6.010  15.399  1.5464  0.9237  1.6664
 1512TIP3    H225952   5.166   6.115  15.365  2.3077  1.3022  0.4518
 1513TIP3   OH225953   6.369   0.631   1.902  0.2569 -0.5978  0.7446
 1513TIP3    H125954   6.416   0.639   1.985  3.2483  0.7831 -0.9109
 1513TIP3    H225955   6.306   0.703   1.903  0.0760 -0.7589  1.9027
 1514TIP3   OH225956   4.946   3.503   0.725 -0.1881  0.0222  0.4728
 1514TIP3    H125957   5.038   3.522   0.708 -0.3431  0.5551  0.2124
 1514TIP3    H225958   4.900   3.584   0.704 -0.3869  0.8315  3.5340
 1515TIP3   OH225959   1.067   0.610  11.154 -0.3799  0.3663 -0.1733
 1515TIP3    H125960   1.151   0.588  11.113  0.4024 -0.9070  1.9483
 1515TIP3    H225961   1.023   0.526  11.165 -0.6828  0.6900  1.2464
 1516TIP3   OH225962   3.666   6.640   6.814 -0.1933  0.4479  0.0921
 1516TIP3    H125963   3.635   6.726   6.843 -1.8819 -0.4101  0.9766
 1516TIP3    H225964   3.617   6.622   6.734 -0.3936  0.0003  0.3109
 1517TIP3   OH225965   3.541   2.732  16.205  0.3331  0.2546  0.6489
 1517TIP3    H125966   3.453   2.731  16.166  0.4073  0.0470  0.4851
 1517TIP3    H225967   3.584   2.654  16.170  1.0376  1.0535 -0.3009
 1518TIP3   OH225968   3.712   6.064  13.449  0.3286  0.0634  0.0614
 1518TIP3    H125969   3.688   6.082  13.358  0.8051  0.1831 -0.0432
 1518TIP3    H225970   3.718   5.969  13.454  1.5294  0.0933 -0.3641
 1519TIP3   OH225971   1.344   2.839  14.868 -0.1972  0.2344 -1.1728
 1519TIP3    H125972   1.377   2.871  14.783 -1.1559  2.0231 -0.9285
 1519TIP3    H225973   1.421   2.801  14.911  0.9956  1.9758 -1.6604
 1520TIP3   OH225974   1.562   2.883  11.799 -0.1113  0.3357 -0.1987
 1520TIP3    H125975   1.500   2.910  11.867 -0.2656 -4.2232  1.9260
 1520TIP3    H225976   1.506   2.851  11.728 -0.1398 -0.2104  0.0618
 1521TIP3   OH225977   5.642   0.713   2.077 -0.2422  0.3730 -0.8314
 1521TIP3    H125978   5.590   0.780   2.123 -0.3621 -0.4057  0.2039
 1521TIP3    H225979   5.631   0.634   2.130  1.2850 -0.0357 -1.0742
 1522TIP3   OH225980   4.583   1.912   5.067 -0.2803  0.1181  0.3704
 1522TIP3    H125981   4.515   1.955   5.015  0.6579 -1.3510 -2.2591
 1522TIP3    H225982   4.538   1.840   5.111 -0.6029 -0.3786 -0.7400
 1523TIP3   OH225983   3.703   5.331  13.008 -0.5729  0.3421 -0.2292
 1523TIP3    H125984   3.766   5.312  12.939 -0.8060  0.6497 -0.5314
 1523TIP3    H225985   3.754   5.331  13.089 -0.3897 -0.5581 -0.3320
 1524TIP3   OH225986   0.693   1.431  11.948  0.2491  0.3425  0.3894
 1524TIP3    H125987   0.783   1.417  11.976  1.1078  2.7103 -0.8684
 1524TIP3    H225988   0.694   1.417  11.853 -0.1266  2.4538  0.0079
 1525TIP3   OH225989   4.942   1.994   6.829  0.2449  0.5474  0.8754
 1525TIP3    H125990   5.016   1.933   6.833 -0.5960 -0.5834 -0.0994
 1525TIP3    H225991   4.959   2.047   6.751  0.3914  0.7775  1.0640
 1526TIP3   OH225992   1.278   6.456  11.352  0.3380 -0.1558  0.0647
 1526TIP3    H125993   1.258   6.396  11.424  0.5061 -0.1765  0.0954
 1526TIP3    H225994   1.194   6.474  11.310  0.4643 -1.4979 -0.8104
 1527TIP3   OH225995   4.095   5.630   1.738 -0.0484  0.1756  0.4309
 1527TIP3    H125996   4.003   5.636   1.714  0.2982  1.6567 -0.6397
 1527TIP3    H225997   4.133   5.570   1.673  0.1872  1.4417 -0.6470
 1528TIP3   OH225998   0.198   3.680  13.243 -0.5283 -0.7762  0.0079
 1528TIP3    H125999   0.278   3.673  13.191 -0.0201  1.0585  0.4531
 1528TIP3    H226000   0.134   3.720  13.184 -0.7943 -1.2410 -0.0223
 1529TIP3   OH226001   0.120   2.689   4.134 -0.4506 -0.3678 -0.1688
 1529TIP3    H126002   0.103   2.634   4.057  1.5584 -1.7411  0.3098
 1529TIP3    H226003   0.163   2.767   4.098 -0.5428 -0.4758 -0.5238
 1530TIP3   OH226004   2.568   2.976   3.054  0.0826  0.7017 -0.0734
 1530TIP3    H126005   2.474   2.959   3.048 -0.0760  0.9608  1.2743
 1530TIP3    H226006   2.602   2.955   2.967 -1.0441 -0.5007 -0.2609
 1531TIP3   OH226007   2.973   4.194   5.269  0.1492  0.5414  0.2260
 1531TIP3    H126008   2.910   4.136   5.311  1.0847  0.1253  1.0727
 1531TIP3    H226009   2.947   4.282   5.297 -1.0511  0.5483 -0.7783
 1532TIP3   OH226010   5.178   6.471   5.450  0.7017  0.1086  0.0903
 1532TIP3    H126011   5.167   6.542   5.388 -0.1469 -1.0179 -1.1029
 1532TIP3    H226012   5.240   6.505   5.515 -0.6220  2.3738  0.2704
 1533TIP3   OH226013   2.777   1.264  11.736 -0.3012 -0.3152 -0.3801
 1533TIP3    H126014   2.828   1.313  11.671  1.7901 -1.2563  0.4559
 1533TIP3    H226015   2.695   1.313  11.744  0.7757  1.7574 -1.2185
 1534TIP3   OH226016   1.302   4.261  12.941  0.3127  0.0477  0.0579
 1534TIP3    H126017   1.240   4.269  12.869 -0.3913  1.1839  0.7651
 1534TIP3    H226018   1.287   4.173  12.976 -3.2902  1.3097  2.2764
 1535TIP3   OH226019   5.045   2.539  13.720 -0.4086 -0.3977 -0.1240
 1535TIP3    H126020   4.964   2.505  13.757  0.0265 -0.9225  0.3777
 1535TIP3    H226021   5.035   2.530  13.626 -0.9861 -0.3348 -0.0667
 1536TIP3   OH226022   6.704   6.027   2.967 -0.8924 -0.2453 -0.0537
 1536TIP3    H126023   6.631   5.995   3.020 -2.1122  0.5889 -1.1349
 1536TIP3    H226024   6.662   6.058   2.886  0.6898  0.1382 -0.7654
 1537TIP3   OH226025   0.674   2.971  15.400  0.1714  0.4431 -0.5896
 1537TIP3    H126026   0.741   2.922  15.352 -0.1029  0.3815 -0.9141
 1537TIP3    H226027   0.609   2.905  15.423  1.3521  0.0324  1.8183
 1538TIP3   OH226028   2.392   6.108   1.700 -0.1825  0.1992 -0.6041
 1538TIP3    H126029   2.433   6.068   1.776 -3.2201 -0.7082  0.7206
 1538TIP3    H226030   2.374   6.035   1.641  0.0785  0.5801 -1.1652
 1539TIP3   OH226031   2.773   4.266   4.440 -0.4877  0.5058 -0.4440
 1539TIP3    H126032   2.774   4.201   4.511 -1.5236  0.9788  0.0089
 1539TIP3    H226033   2.822   4.223   4.369  1.5642  0.4568  0.9105
 1540TIP3   OH226034   3.067   3.244   0.868 -0.1291 -0.3262  0.2410
 1540TIP3    H126035   3.010   3.315   0.838 -1.9972 -1.4991  0.8951
 1540TIP3    H226036   3.107   3.278   0.948  1.0721  0.9493 -0.8447
 1541TIP3   OH226037   2.441   1.500   1.812  0.8659  0.0082  0.3689
 1541TIP3    H126038   2.494   1.421   1.813  0.4985 -0.2371  1.3030
 1541TIP3    H226039   2.469   1.549   1.889 -0.2373 -0.1262  0.8816
 1542TIP3   OH226040   1.124   4.399  12.429 -0.5631  1.0653 -0.5682
 1542TIP3    H126041   1.137   4.491  12.404 -1.8716  1.9710  1.7493
 1542TIP3    H226042   1.031   4.383  12.414 -1.1301  1.2684  2.1953
 1543TIP3   OH226043   0.159   4.197   0.124  0.2905 -0.0663 -0.1669
 1543TIP3    H126044   0.248   4.167   0.109  0.4784  0.9400 -1.2252
 1543TIP3    H226045   0.129   4.226   0.037 -1.5721 -1.7076 -0.1441
 1544TIP3   OH226046   2.471   6.696   0.594  0.1604  0.2771 -0.1759
 1544TIP3    H126047   2.415   6.736   0.528  0.6201  0.2271 -0.6040
 1544TIP3    H226048   2.474   6.604   0.569  0.4666  0.2883 -0.1788
 1545TIP3   OH226049   1.396   0.300   4.474 -0.3371  0.3475 -0.3963
 1545TIP3    H126050   1.407   0.211   4.507 -1.3771  0.3455 -0.0259
 1545TIP3    H226051   1.482   0.341   4.486 -0.5150  0.1877  1.8542
 1546TIP3   OH226052   1.381   3.261  14.801  0.1126 -0.9842  0.1959
 1546TIP3    H126053   1.357   3.216  14.882 -2.6747 -0.9351 -0.5249
 1546TIP3    H226054   1.397   3.190  14.738 -0.7687 -0.9976 -0.0134
 1547TIP3   OH226055   5.808   2.004   5.662  0.4112  0.5018  0.3894
 1547TIP3    H126056   5.770   2.019   5.575  0.2223  0.7952  0.5205
 1547TIP3    H226057   5.798   2.087   5.707 -3.2917 -0.6698  2.1452
 1548TIP3   OH226058   3.571   3.484   2.538 -0.1019 -0.4873 -0.5673
 1548TIP3    H126059   3.534   3.396   2.537 -0.8726 -0.1749 -1.2621
 1548TIP3    H226060   3.591   3.503   2.446  0.9299 -0.2818 -0.3187
 1549TIP3   OH226061   2.386   5.280  15.533  0.4385  0.0480 -0.2302
 1549TIP3    H126062   2.442   5.317  15.600 -0.1144 -1.2336  0.9846
 1549TIP3    H226063   2.395   5.340  15.458 -1.1914  3.2325  1.9020
 1550TIP3   OH226064   5.775   5.285  12.657  0.3417  0.4871  0.0078
 1550TIP3    H126065   5.725   5.366  12.650  0.6022  0.5430 -1.4451
 1550TIP3    H226066   5.714   5.216  12.630  0.1056  0.1576  1.2805
 1551TIP3   OH226067   5.469   2.102  14.939  0.2030 -0.1543 -0.9099
 1551TIP3    H126068   5.453   2.015  14.978  1.3139 -0.2640 -0.6689
 1551TIP3    H226069   5.564   2.111  14.938  0.1064  1.0122 -1.0726
 1552TIP3   OH226070   4.051   0.057  14.695 -0.1633  0.6925 -0.6529
 1552TIP3    H126071   4.144   0.075  14.685  0.5844 -0.3861  2.7426
 1552TIP3    H226072   4.047  -0.008  14.766 -3.5597  2.3823  0.9691
 1553TIP3   OH226073   4.188   4.988   1.764 -0.0899  0.1193  0.6436
 1553TIP3    H126074   4.177   5.077   1.797 -0.9270 -0.2749  1.4710
 1553TIP3    H226075   4.267   4.955   1.807  0.4551  0.5970  0.0191
 1554TIP3   OH226076   3.339   0.710   6.641  0.4832 -0.2920 -0.0228
 1554TIP3    H126077   3.396   0.775   6.601 -0.7584  0.3418 -0.8181
 1554TIP3    H226078   3.256   0.756   6.657 -0.5840 -1.7531 -1.0357
 1555TIP3   OH226079   2.479   4.692  16.527 -0.3355  0.2857 -0.0441
 1555TIP3    H126080   2.532   4.760  16.486  0.0425  1.1493  1.7659
 1555TIP3    H226081   2.533   4.614  16.524  0.4335  0.7816  0.3840
 1556TIP3   OH226082   0.314   6.641   0.672  0.5343  0.2804 -0.3048
 1556TIP3    H126083   0.288   6.561   0.627  1.4590 -0.4202  0.3543
 1556TIP3    H226084   0.255   6.708   0.639  0.0375 -0.5821 -1.2091
 1557TIP3   OH226085   2.575   3.681  11.774 -0.0802 -0.5673 -0.2706
 1557TIP3    H126086   2.639   3.664  11.843  0.4109  0.0480 -0.5566
 1557TIP3    H226087   2.490   3.674  11.817  0.2282  0.8888  0.6749
 1558TIP3   OH226088   4.331   2.692   5.676 -0.3374 -0.5515  0.3813
 1558TIP3    H126089   4.309   2.783   5.660 -0.1497 -0.3568  1.1882
 1558TIP3    H226090   4.343   2.686   5.771  2.0743 -0.8681  0.1295
 1559TIP3   OH226091   6.018   3.711  12.440  0.2045 -0.3897 -0.0005
 1559TIP3    H126092   6.063   3.653  12.380  0.4498  0.5533 -0.7490
 1559TIP3    H226093   5.932   3.671  12.453  0.4089 -0.9650 -0.4088
 1560TIP3   OH226094   4.631   4.961  12.457 -0.4892  0.1383  0.0561
 1560TIP3    H126095   4.707   4.927  12.505 -1.0063 -0.8136  0.2268
 1560TIP3    H226096   4.621   4.901  12.383 -1.1155  0.2158  0.0745
 1561TIP3   OH226097   4.258   4.491   0.064 -0.5052 -0.5097 -0.0322
 1561TIP3    H126098   4.318   4.475  -0.008 -1.4837 -0.4581 -0.8949
 1561TIP3    H226099   4.208   4.568   0.036  0.0093  0.3575  1.3175
 1562TIP3   OH226100   6.378   2.681   3.102  0.0945 -0.0585 -0.6614
 1562TIP3    H126101   6.320   2.719   3.168  0.6422 -0.4243  0.0317
 1562TIP3    H226102   6.372   2.587   3.116  2.2576 -0.0548  0.6520
 1563TIP3   OH226103   5.157   1.162   4.082  0.6234  0.1489 -0.4653
 1563TIP3    H126104   5.151   1.230   4.148  0.1552  0.8483 -1.2134
 1563TIP3    H226105   5.088   1.099   4.107  0.0047  0.7399 -0.6515
 1564TIP3   OH226106   5.481   1.832   2.779 -0.3234 -0.3785 -0.3635
 1564TIP3    H126107   5.477   1.904   2.716  0.5310 -1.6986 -1.9858
 1564TIP3    H226108   5.406   1.848   2.837 -0.0175  1.9350 -0.4967
 1565TIP3   OH226109   1.079   0.814   5.240  0.4771  0.3560 -0.5188
 1565TIP3    H126110   1.108   0.867   5.314  1.2467  0.6935 -1.0544
 1565TIP3    H226111   0.984   0.825   5.238  0.2892 -0.6391  1.1722
 1566TIP3   OH226112   0.206   1.834   4.330  0.6662  0.0886 -0.4233
 1566TIP3    H126113   0.254   1.825   4.412 -0.1980  0.9729  0.2027
 1566TIP3    H226114   0.250   1.906   4.284  0.6260  0.1644 -0.3443
 1567TIP3   OH226115   5.104   3.536  14.479 -0.0555 -0.2746  0.3995
 1567TIP3    H126116   5.159   3.614  14.492 -1.3222  0.5836  0.8832
 1567TIP3    H226117   5.019   3.561  14.516 -0.4631 -1.9424  0.6470
 1568TIP3   OH226118   5.286   2.709  11.905 -0.0009 -0.4623  0.2922
 1568TIP3    H126119   5.271   2.616  11.924 -0.2033 -0.1742  1.6036
 1568TIP3    H226120   5.200   2.749  11.914 -0.1827 -0.3235 -1.5734
 1569TIP3   OH226121   3.414   0.196  17.281  0.1853  0.7948 -0.5198
 1569TIP3    H126122   3.477   0.243  17.336  0.0911 -0.6868  0.9252
 1569TIP3    H226123   3.453   0.110  17.266 -1.6063 -0.3170  0.7469
 1570TIP3   OH226124   5.077   6.286  13.960 -0.2840 -0.0993  0.1980
 1570TIP3    H126125   5.151   6.345  13.950 -0.3557  0.1205  0.8964
 1570TIP3    H226126   5.001   6.343  13.962 -0.3592 -0.2104  0.8112
 1571TIP3   OH226127   6.244   6.054   2.074 -0.0366 -0.3756 -0.2874
 1571TIP3    H126128   6.218   6.127   2.018  0.2497 -0.9125 -1.1395
 1571TIP3    H226129   6.264   6.094   2.159 -0.4923  0.4453 -0.5611
 1572TIP3   OH226130   3.059   5.873   6.606 -0.0795  0.0119  0.5701
 1572TIP3    H126131   3.038   5.791   6.561 -0.0013 -0.0331  0.6157
 1572TIP3    H226132   3.017   5.940   6.553  1.1799  0.0945 -0.3865
 1573TIP3   OH226133   2.465   5.181   2.769  0.1029 -0.3230  0.1024
 1573TIP3    H126134   2.391   5.227   2.809 -0.7815 -0.9396 -0.7864
 1573TIP3    H226135   2.429   5.096   2.744  1.5767 -1.3226  1.2444
 1574TIP3   OH226136   3.507   4.372  13.517  0.2435 -0.3245 -0.1223
 1574TIP3    H126137   3.464   4.312  13.456  2.1804 -3.5791  1.4362
 1574TIP3    H226138   3.450   4.374  13.594  0.7929 -1.3368  0.3383
 1575TIP3   OH226139   5.294   4.742   1.784  0.0993 -0.0940 -0.0477
 1575TIP3    H126140   5.352   4.715   1.855 -1.4766  0.2207  1.4085
 1575TIP3    H226141   5.284   4.837   1.797 -0.1130 -0.0162 -0.7600
 1576TIP3   OH226142   4.674   3.126  14.135  0.4205 -0.1170  0.2546
 1576TIP3    H126143   4.674   3.120  14.230  0.7134 -1.3387  0.1929
 1576TIP3    H226144   4.583   3.110  14.109  0.0587  1.5580  0.3725
 1577TIP3   OH226145   5.957   1.618   3.673  0.3820 -0.1384  0.1545
 1577TIP3    H126146   5.950   1.528   3.704 -1.1593 -0.2028 -0.2878
 1577TIP3    H226147   5.897   1.668   3.728 -1.1419  0.0376 -1.5450
 1578TIP3   OH226148   0.518   5.033  15.917  0.1978 -0.0859  0.2663
 1578TIP3    H126149   0.531   5.010  16.009  2.0515  0.2679  0.1323
 1578TIP3    H226150   0.430   5.071  15.914 -1.5554 -3.6539  1.1300
 1579TIP3   OH226151   1.882   5.705  13.593 -0.1177  0.2236  0.0911
 1579TIP3    H126152   1.934   5.781  13.567  0.7131 -0.5161 -0.5147
 1579TIP3    H226153   1.905   5.690  13.685  0.5719  0.0686 -0.0938
 1580TIP3   OH226154   5.928   6.441  16.346  0.5541  0.4709 -0.9473
 1580TIP3    H126155   5.986   6.491  16.289  0.9263 -0.5091 -1.4499
 1580TIP3    H226156   5.914   6.358  16.300  0.3771 -0.1083  0.1098
 1581TIP3   OH226157   3.363   2.102  16.690  0.3911  0.5455  0.2292
 1581TIP3    H126158   3.391   2.012  16.675  1.0646  0.3667  2.1577
 1581TIP3    H226159   3.445   2.150  16.703 -0.0147  1.0129  1.1556
 1582TIP3   OH226160   4.120   5.323  17.249  0.1434 -0.1588  0.4808
 1582TIP3    H126161   4.193   5.375  17.283 -1.1709 -0.1093  3.5392
 1582TIP3    H226162   4.106   5.356  17.160  1.3726  2.5054  1.1930
 1583TIP3   OH226163   0.066   0.377   5.336  0.1126  0.0549 -0.0167
 1583TIP3    H126164  -0.003   0.428   5.293 -0.7275 -1.0999 -0.0805
 1583TIP3    H226165   0.121   0.346   5.264  1.2280  1.6569  0.0873
 1584TIP3   OH226166   3.644   6.353   1.063  0.4992 -0.0427 -0.3649
 1584TIP3    H126167   3.578   6.349   1.132  0.3000 -1.3112 -0.5874
 1584TIP3    H226168   3.690   6.435   1.077  0.3082 -0.1675  1.1354
 1585TIP3   OH226169   2.715   5.739  10.763  0.1995  0.1618 -0.0959
 1585TIP3    H126170   2.750   5.779  10.843 -1.0635  1.1592 -0.0159
 1585TIP3    H226171   2.692   5.650  10.790 -0.4591  0.5696  0.7436
 1586TIP3   OH226172   2.045   2.699   5.139  0.1991 -0.1066  0.3220
 1586TIP3    H126173   2.001   2.774   5.178  0.9845  0.5639 -0.0575
 1586TIP3    H226174   1.977   2.631   5.134 -0.4313  0.4641  0.9638
 1587TIP3   OH226175   6.074   5.792  14.110 -0.4276 -0.1274  0.3400
 1587TIP3    H126176   6.163   5.817  14.133 -0.5152 -1.2574  2.1044
 1587TIP3    H226177   6.083   5.730  14.038  0.2460 -0.5653  0.7975
 1588TIP3   OH226178   4.225   3.397  11.349  0.5680  0.4630 -0.6076
 1588TIP3    H126179   4.199   3.468  11.291 -2.8783  0.8851  1.2203
 1588TIP3    H226180   4.179   3.414  11.431  0.1559 -3.4453  0.1859
 1589TIP3   OH226181   6.423   1.793  12.533  0.0719 -0.0188 -0.1334
 1589TIP3    H126182   6.394   1.875  12.493 -2.6733 -0.1865  1.2574
 1589TIP3    H226183   6.471   1.820  12.611  1.9092  0.2288 -1.2783
 1590TIP3   OH226184   5.543   3.727   3.973 -0.5066 -0.3302  0.1814
 1590TIP3    H126185   5.525   3.778   3.894  0.4822 -0.0981  0.0860
 1590TIP3    H226186   5.611   3.778   4.018 -0.1745 -1.0929  0.5527
 1591TIP3   OH226187   1.062   3.899  15.947  0.8091  0.3185 -0.6818
 1591TIP3    H126188   1.039   3.835  15.880 -0.6216 -1.5847  1.4859
 1591TIP3    H226189   1.158   3.897  15.950  0.8090 -1.5360 -0.8692
 1592TIP3   OH226190   4.890   3.070   1.767  0.7209  0.2084  0.0031
 1592TIP3    H126191   4.797   3.084   1.746  0.4334  2.4177  2.2442
 1592TIP3    H226192   4.912   2.987   1.726 -1.6157  0.6978 -2.5520
 1593TIP3   OH226193   0.816   4.105   5.027  0.7362 -0.4605 -0.4799
 1593TIP3    H126194   0.757   4.151   4.967  1.1788 -0.8615 -1.2291
 1593TIP3    H226195   0.794   4.141   5.114  0.2242  0.2617 -0.8965
 1594TIP3   OH226196   2.208   3.415   5.895  0.7798  0.0005  1.1132
 1594TIP3    H126197   2.142   3.355   5.861 -0.8323  0.7288  2.8328
 1594TIP3    H226198   2.212   3.486   5.831 -1.2122  0.6885  1.7131
 1595TIP3   OH226199   3.247   5.081   0.621  0.4745  0.1351  0.0500
 1595TIP3    H126200   3.199   5.057   0.542 -1.3050  0.5259  0.9717
 1595TIP3    H226201   3.252   5.000   0.672  0.1844  0.2457  0.2577
 1596TIP3   OH226202   4.562   1.758  16.644  0.3623  0.1325 -1.0610
 1596TIP3    H126203   4.600   1.676  16.676 -0.3283 -0.7152 -2.3099
 1596TIP3    H226204   4.633   1.822  16.652  1.0584 -0.6848 -0.4898
 1597TIP3   OH226205   4.274   5.751  12.056  0.6534 -0.4295 -0.4050
 1597TIP3    H126206   4.197   5.730  12.003  0.3328  0.0278 -0.1270
 1597TIP3    H226207   4.301   5.668  12.093  1.0394 -0.8062 -1.4923
 1598TIP3   OH226208   5.978   1.493   1.671 -0.2456 -0.1761 -0.5636
 1598TIP3    H126209   5.975   1.405   1.708  0.1138 -0.6994 -1.7445
 1598TIP3    H226210   6.037   1.542   1.729  0.1397 -0.9112 -0.3264
 1599TIP3   OH226211   0.488   1.346  15.007  0.6270  0.6472  0.3292
 1599TIP3    H126212   0.565   1.293  15.031  0.5787  0.7172  0.6404
 1599TIP3    H226213   0.515   1.436  15.024  1.0936  0.8195 -1.2357
 1600TIP3   OH226214   5.438   1.966   3.541  0.0061  0.3758  0.1452
 1600TIP3    H126215   5.475   2.044   3.501 -0.0697  0.6308  0.5683
 1600TIP3    H226216   5.446   1.898   3.473 -0.0519  0.7805 -0.2725
 1601TIP3   OH226217   0.223   5.914  14.560  0.2118  0.2125  0.7778
 1601TIP3    H126218   0.164   5.842  14.582  0.4611  0.5420  2.7170
 1601TIP3    H226219   0.310   5.874  14.558  0.0369 -0.1548 -1.4818
 1602TIP3   OH226220   6.363   0.607  12.482 -0.0553  0.1292 -0.3705
 1602TIP3    H126221   6.443   0.566  12.448  0.6686 -0.1447  1.5467
 1602TIP3    H226222   6.302   0.535  12.495 -0.2179  0.1964 -0.7267
 1603TIP3   OH226223   3.115   5.675   0.419  0.1293  0.1216  0.3334
 1603TIP3    H126224   3.179   5.644   0.355 -1.0731  0.3765 -1.0317
 1603TIP3    H226225   3.102   5.768   0.398 -0.4540  0.1551  0.7984
 1604TIP3   OH226226   1.004   3.147   1.433  0.8209 -0.3269  1.0507
 1604TIP3    H126227   1.074   3.186   1.380  0.5905 -0.4127  0.6784
 1604TIP3    H226228   1.050   3.095   1.499  1.1318 -1.8033 -0.2522
 1605TIP3   OH226229   1.406   6.358  13.205 -0.2197 -0.1028  0.2519
 1605TIP3    H126230   1.395   6.288  13.269  0.0017 -0.0850  0.3102
 1605TIP3    H226231   1.391   6.439  13.254 -0.0179 -0.0878  0.2898
 1606TIP3   OH226232   0.082   4.431   6.174  0.3964 -0.0795 -0.1916
 1606TIP3    H126233   0.007   4.490   6.167 -1.4958 -2.4493 -1.3766
 1606TIP3    H226234   0.103   4.430   6.267 -2.7694 -1.1938  0.6460
 1607TIP3   OH226235   2.834   4.381   1.225 -0.5106 -0.4465  0.1207
 1607TIP3    H126236   2.867   4.316   1.287 -1.5474 -0.8729  0.2412
 1607TIP3    H226237   2.739   4.378   1.235 -0.7474 -0.9889 -1.9693
 1608TIP3   OH226238   5.407   4.006  13.998  0.0093  0.2691 -0.3833
 1608TIP3    H126239   5.376   4.053  13.921  1.8204  1.7285 -0.2972
 1608TIP3    H226240   5.484   3.958  13.967 -0.0123 -0.1691  0.2242
 1609TIP3   OH226241   6.702   4.133   3.943 -0.0169  0.0476 -0.1598
 1609TIP3    H126242   6.728   4.114   3.853 -1.6372 -1.0435 -0.4290
 1609TIP3    H226243   6.785   4.138   3.991  0.7885 -1.5987 -1.2877
 1610TIP3   OH226244   4.823   4.152  13.882  0.3323  0.0870 -0.8185
 1610TIP3    H126245   4.881   4.186  13.814  2.3960 -0.3307  0.6137
 1610TIP3    H226246   4.840   4.058  13.883  3.5714  0.4435  2.8328
 1611TIP3   OH226247   2.566   3.889   0.621 -0.1507 -0.1966 -0.7018
 1611TIP3    H126248   2.579   3.907   0.714  0.8944 -0.3661 -0.8051
 1611TIP3    H226249   2.654   3.879   0.586 -0.5507 -0.6242 -1.6175
 1612TIP3   OH226250   1.358   0.186  14.369  0.2383 -0.1293 -0.0389
 1612TIP3    H126251   1.312   0.159  14.448  0.0368  1.5130  0.4483
 1612TIP3    H226252   1.443   0.141  14.374  1.1959  1.7364  2.3813
 1613TIP3   OH226253   1.369   0.433   0.080  0.0861 -0.7613  0.1330
 1613TIP3    H126254   1.364   0.516   0.034  1.8064  0.2439  1.6165
 1613TIP3    H226255   1.416   0.374   0.020 -0.2562 -0.3690 -0.5251
 1614TIP3   OH226256   3.336   5.066  14.013 -0.2012  0.0410 -0.2954
 1614TIP3    H126257   3.324   5.000  13.945  0.1772  0.8870 -1.2120
 1614TIP3    H226258   3.267   5.048  14.076  0.0642 -1.3884 -0.3873
 1615TIP3   OH226259   1.766   0.718  11.472  0.6207  0.0886 -0.4419
 1615TIP3    H126260   1.784   0.812  11.477  2.5928 -0.2750 -0.0660
 1615TIP3    H226261   1.769   0.688  11.562  0.8659 -0.4890 -0.6391
 1616TIP3   OH226262   4.441   4.315   3.136  0.4872  0.0964  0.5081
 1616TIP3    H126263   4.430   4.407   3.161  0.1303 -0.5225  2.8227
 1616TIP3    H226264   4.352   4.284   3.121  0.3764 -0.4488  2.1122
 1617TIP3   OH226265   5.378   5.896   1.336  0.5516  0.1022  0.2677
 1617TIP3    H126266   5.328   5.911   1.415 -1.3855  1.5639 -1.1259
 1617TIP3    H226267   5.412   5.983   1.312 -0.3863  0.0568 -1.3985
 1618TIP3   OH226268   5.512   5.554   5.794 -0.1687  0.0893 -0.1782
 1618TIP3    H126269   5.530   5.473   5.746  1.8298  0.4396 -0.1115
 1618TIP3    H226270   5.417   5.566   5.786 -0.5751 -2.3676  0.0273
 1619TIP3   OH226271   5.442   1.480   4.110 -0.3906 -0.6979  0.1752
 1619TIP3    H126272   5.481   1.553   4.061  2.4247 -0.0368  3.0592
 1619TIP3    H226273   5.410   1.520   4.191  0.7186 -2.5038  1.5958
 1620TIP3   OH226274   5.846   2.492   3.328  0.3327  0.5764  0.5204
 1620TIP3    H126275   5.867   2.486   3.421  0.4874  0.6040  0.4881
 1620TIP3    H226276   5.823   2.583   3.314  3.0977  1.2986 -0.0307
 1621TIP3   OH226277   4.938   3.557  13.584 -0.2603 -0.1676 -0.1708
 1621TIP3    H126278   4.974   3.644  13.598 -0.0854 -0.1649 -0.6330
 1621TIP3    H226279   4.999   3.498  13.629  0.4016 -0.1755 -1.0513
 1622TIP3   OH226280   5.331   4.413   1.435 -0.7719 -0.6242 -0.1275
 1622TIP3    H126281   5.366   4.370   1.514  2.1466 -0.1613 -1.0424
 1622TIP3    H226282   5.265   4.474   1.468 -1.0172 -1.8145  1.7296
 1623TIP3   OH226283   5.837   4.476   3.888 -0.5434 -0.7143  0.0577
 1623TIP3    H126284   5.893   4.439   3.955 -0.6783  0.8558  1.0784
 1623TIP3    H226285   5.774   4.530   3.935 -0.5963  0.5009 -1.3121
 1624TIP3   OH226286   5.345   0.983  11.477 -0.0721 -0.3368  0.4863
 1624TIP3    H126287   5.408   1.040  11.522  1.3029 -0.3276 -1.3258
 1624TIP3    H226288   5.385   0.966  11.392 -1.0510 -2.9839  0.4775
 1625TIP3   OH226289   0.573   0.788  16.445  0.2923 -0.1655 -0.3099
 1625TIP3    H126290   0.620   0.809  16.525  1.1707  1.3130 -1.1651
 1625TIP3    H226291   0.526   0.707  16.465  2.0377 -0.8980  1.0586
 1626TIP3   OH226292   6.345   1.304   4.904  0.0970 -0.4230  0.3404
 1626TIP3    H126293   6.425   1.255   4.888 -0.3735 -1.5049  1.1821
 1626TIP3    H226294   6.357   1.386   4.855  0.7317 -1.5248 -1.4596
 1627TIP3   OH226295   5.419   3.138  13.166  0.6991 -0.2014 -0.1575
 1627TIP3    H126296   5.458   3.092  13.092 -0.5356 -0.9153 -0.3930
 1627TIP3    H226297   5.426   3.076  13.239  1.2782  0.2298  0.1674
 1628TIP3   OH226298   3.143   1.895   6.022 -0.6128 -0.8429  0.1543
 1628TIP3    H126299   3.163   1.810   6.061  0.6162 -0.9186 -0.5700
 1628TIP3    H226300   3.227   1.924   5.984 -0.8896  0.8717  0.7380
 1629TIP3   OH226301   4.821   0.362  15.656  0.1042  0.4339 -0.3354
 1629TIP3    H126302   4.873   0.344  15.735 -1.4860 -0.7338  0.5100
 1629TIP3    H226303   4.733   0.382  15.690 -0.0836  2.2130 -1.7214
 1630TIP3   OH226304   0.882   0.234  11.486  0.1675 -0.3757  0.1269
 1630TIP3    H126305   0.835   0.218  11.405 -1.5645 -1.8696  1.3425
 1630TIP3    H226306   0.851   0.166  11.546  2.0871  0.0869  1.7592
 1631TIP3   OH226307   0.050   0.923   1.118 -0.1216  0.6907 -1.0049
 1631TIP3    H126308   0.058   0.954   1.027  2.0118 -1.1202 -1.5276
 1631TIP3    H226309   0.140   0.917   1.149 -0.6322 -1.1872  0.3171
 1632TIP3   OH226310   0.615   1.552  12.182  0.1662 -0.3275 -0.1328
 1632TIP3    H126311   0.614   1.555  12.087  0.5704  0.4296 -0.1209
 1632TIP3    H226312   0.697   1.509  12.205 -0.5289 -1.7038 -0.1331
 1633TIP3   OH226313   2.644   5.328   0.674 -0.2070  0.3954  0.5893
 1633TIP3    H126314   2.698   5.388   0.725  1.7052 -1.2625  0.6418
 1633TIP3    H226315   2.591   5.384   0.618 -1.0100  2.2249  2.9929
 1634TIP3   OH226316   1.161   3.523   6.668  0.2484 -0.3887 -0.5067
 1634TIP3    H126317   1.204   3.586   6.726  0.4626 -0.8011 -0.2129
 1634TIP3    H226318   1.094   3.574   6.622 -1.2358 -0.4318  1.4774
 1635TIP3   OH226319   4.161   4.678  14.501  0.1750  0.0379  0.6251
 1635TIP3    H126320   4.110   4.635  14.569 -0.6746 -1.4261 -0.8669
 1635TIP3    H226321   4.219   4.611  14.467 -0.1889  0.3905 -0.8088
 1636TIP3   OH226322   1.895   0.537  17.306 -0.7170  0.3822 -0.9986
 1636TIP3    H126323   1.903   0.552  17.212 -3.8607 -0.6451 -1.5537
 1636TIP3    H226324   1.802   0.517  17.319 -0.6820  1.7314  2.5143
 1637TIP3   OH226325   4.885   1.087  17.210 -0.2017  0.2812 -0.0535
 1637TIP3    H126326   4.930   1.118  17.131 -2.1753 -0.2151 -1.4603
 1637TIP3    H226327   4.890   0.992  17.205 -0.8789  0.2318  0.0763
 1638TIP3   OH226328   5.923   5.057   2.420  0.1259 -0.2754 -0.0948
 1638TIP3    H126329   5.830   5.042   2.407  0.6129 -2.1112 -2.1592
 1638TIP3    H226330   5.962   4.969   2.419  2.0824  0.5224 -1.5882
 1639TIP3   OH226331   1.811   4.714   3.920 -0.1402 -0.2008  0.3036
 1639TIP3    H126332   1.803   4.620   3.906 -0.5848 -0.0639 -0.3951
 1639TIP3    H226333   1.751   4.753   3.857 -1.9264  0.4736  2.3295
 1640TIP3   OH226334   3.753   6.428  16.733 -0.2095 -0.4999 -0.1724
 1640TIP3    H126335   3.731   6.396  16.820  0.2221 -1.2601 -0.3345
 1640TIP3    H226336   3.692   6.500  16.718 -1.2092 -1.2494  0.1937
 1641TIP3   OH226337   6.469   4.280   3.983  0.1479 -0.2343  0.4624
 1641TIP3    H126338   6.534   4.210   3.981  0.3757 -0.0253  0.3680
 1641TIP3    H226339   6.413   4.264   3.907  1.4565  0.8561 -0.7935
 1642TIP3   OH226340   0.005   5.523  13.674 -0.1071 -1.0812 -0.2684
 1642TIP3    H126341   0.060   5.561  13.743 -0.3220 -1.3069  0.0324
 1642TIP3    H226342  -0.069   5.484  13.721 -1.0946  0.1543 -0.7436
 1643TIP3   OH226343   4.791   3.158  12.584 -0.1264  0.5676 -0.2250
 1643TIP3    H126344   4.700   3.182  12.568 -0.7961 -0.0935  2.2160
 1643TIP3    H226345   4.841   3.234  12.554 -1.7417  2.4147  1.4629
 1644TIP3   OH226346   3.036   0.784   2.586 -0.2057  0.3246  0.0500
 1644TIP3    H126347   3.073   0.826   2.508  0.4961  1.7925  1.1298
 1644TIP3    H226348   2.991   0.706   2.552 -0.2936  1.1494 -1.8594
 1645TIP3   OH226349   1.507   0.211  17.196 -0.1927 -0.2178 -0.3928
 1645TIP3    H126350   1.475   0.136  17.146 -0.1287 -0.2292 -0.4177
 1645TIP3    H226351   1.602   0.199  17.198 -0.1106  0.2328 -1.0046
 1646TIP3   OH226352   0.674   5.792  15.981 -0.4977 -0.1340 -0.1929
 1646TIP3    H126353   0.609   5.769  16.047  1.6841 -0.4848  1.9943
 1646TIP3    H226354   0.685   5.886  15.989  1.2357 -0.4210  1.5240
 1647TIP3   OH226355   1.259   5.559   4.767  0.5164  0.6563 -0.2395
 1647TIP3    H126356   1.239   5.516   4.684 -2.8590  1.0335  0.2356
 1647TIP3    H226357   1.283   5.488   4.826 -1.4517 -0.2361 -0.4235
 1648TIP3   OH226358   4.956   5.180   4.770  0.0765  0.3095 -0.1477
 1648TIP3    H126359   4.930   5.272   4.767  0.7097  0.4809 -0.6102
 1648TIP3    H226360   5.009   5.172   4.849  0.9982  0.6136 -0.7267
 1649TIP3   OH226361   1.509   5.782  12.286  0.0983  0.0417  0.3649
 1649TIP3    H126362   1.452   5.707  12.266 -0.5191  0.2050  1.4506
 1649TIP3    H226363   1.465   5.856  12.244  0.2457 -0.0517  0.0386
 1650TIP3   OH226364   1.202   1.851  14.088 -0.0172 -0.3557 -0.8982
 1650TIP3    H126365   1.152   1.834  14.167 -1.5501  0.6597 -1.5950
 1650TIP3    H226366   1.137   1.852  14.018  0.9036  1.3705 -1.8042
 1651TIP3   OH226367   3.663   3.202  16.199 -0.0631 -0.2676 -0.2775
 1651TIP3    H126368   3.738   3.179  16.255  1.1872  0.2513 -1.6766
 1651TIP3    H226369   3.633   3.286  16.233  0.8997  0.2089 -0.5426
 1652TIP3   OH226370   0.247   0.222  13.900  0.3068  0.0989 -0.3501
 1652TIP3    H126371   0.303   0.247  13.827 -0.4567 -0.4294 -1.1393
 1652TIP3    H226372   0.263   0.128  13.912  1.1417  0.3735  0.8033
 1653TIP3   OH226373   2.606   6.269   5.334 -0.3276 -0.1680 -0.7812
 1653TIP3    H126374   2.613   6.293   5.241 -0.9523 -0.6688 -0.9682
 1653TIP3    H226375   2.597   6.352   5.380  0.2591  0.1006 -1.1407
 1654TIP3   OH226376   5.257   4.402   1.917 -0.1138 -0.4280  0.5476
 1654TIP3    H126377   5.197   4.403   1.991  0.7143 -0.6832  1.2384
 1654TIP3    H226378   5.215   4.458   1.851 -0.6394  0.1698  1.3750
 1655TIP3   OH226379   2.294   3.496   1.172  0.0091  0.5437  0.1124
 1655TIP3    H126380   2.198   3.495   1.174 -0.0342  0.5798 -1.0883
 1655TIP3    H226381   2.317   3.588   1.163  0.0396  0.3871 -2.0243
 1656TIP3   OH226382   6.371   0.760  10.902 -0.2664 -0.0928  0.7525
 1656TIP3    H126383   6.295   0.712  10.868 -1.4580  1.4438  1.1104
 1656TIP3    H226384   6.349   0.775  10.994  0.7862 -0.1748  1.0270
 1657TIP3   OH226385   4.248   5.637  17.150  0.4211 -0.1057 -0.2820
 1657TIP3    H126386   4.270   5.706  17.087 -0.3403 -0.9575 -1.5175
 1657TIP3    H226387   4.173   5.672  17.198  0.8561  0.4517  0.0031
 1658TIP3   OH226388   5.589   2.361  16.799  0.9387 -0.7925  0.7716
 1658TIP3    H126389   5.603   2.294  16.732 -0.0514  0.2859 -0.5826
 1658TIP3    H226390   5.504   2.339  16.837  0.3810 -0.0856 -0.0122
 1659TIP3   OH226391   2.780   4.949  17.323 -0.2316  0.0721 -0.2814
 1659TIP3    H126392   2.813   4.866  17.358 -0.9041  1.2767  3.6455
 1659TIP3    H226393   2.685   4.937  17.321 -0.4772  1.1718  1.8987
 1660TIP3   OH226394   5.694   5.071  16.211 -0.8181 -0.2294 -0.1645
 1660TIP3    H126395   5.732   5.155  16.183 -0.5701 -0.0552  0.6649
 1660TIP3    H226396   5.658   5.090  16.297 -0.0074 -1.1930  0.3989
 1661TIP3   OH226397   2.584   6.323   1.940  0.1672  0.1347  0.6926
 1661TIP3    H126398   2.658   6.267   1.915 -1.5702 -1.3047 -1.6225
 1661TIP3    H226399   2.532   6.268   1.999 -1.4284 -0.7548 -1.4138
 1662TIP3   OH226400   1.743   0.373  16.583 -0.1107 -0.1287  0.3013
 1662TIP3    H126401   1.667   0.376  16.640  0.2733  0.7105  0.7853
 1662TIP3    H226402   1.761   0.464  16.561  0.1342 -0.3947 -0.6468
 1663TIP3   OH226403   0.774   5.058  15.775 -0.2991  0.0096 -0.5730
 1663TIP3    H126404   0.773   5.146  15.737 -1.4159 -0.4231 -1.5697
 1663TIP3    H226405   0.716   5.065  15.851  1.6331  0.7716  0.9255
 1664TIP3   OH226406   2.336   2.492  15.460 -0.2252  0.2852 -0.2335
 1664TIP3    H126407   2.337   2.586  15.439 -1.5351  0.3510 -0.1030
 1664TIP3    H226408   2.246   2.465  15.443  0.0056 -0.8422  0.2443
 1665TIP3   OH226409   3.270   0.041   6.427 -0.4262 -0.2179 -0.5393
 1665TIP3    H126410   3.275  -0.037   6.484  0.2673 -0.1199 -0.4577
 1665TIP3    H226411   3.342   0.030   6.365 -0.1568  0.4857 -0.3611
 1666TIP3   OH226412   2.765   5.894  15.881 -0.4663  0.5808  0.7467
 1666TIP3    H126413   2.717   5.813  15.898 -0.5345  0.3087 -0.6701
 1666TIP3    H226414   2.854   5.864  15.862 -0.1309  0.9640  1.6266
 1667TIP3   OH226415   3.792   3.596   1.051  0.2217 -0.1560  0.3857
 1667TIP3    H126416   3.838   3.603   1.134  0.0464  0.2940  0.4485
 1667TIP3    H226417   3.730   3.524   1.063  0.9665 -0.8260  0.2702
 1668TIP3   OH226418   3.714   1.919   5.354 -0.1811  0.2018 -0.1742
 1668TIP3    H126419   3.709   1.984   5.284  1.3743 -2.1698 -2.7238
 1668TIP3    H226420   3.800   1.931   5.393 -0.7789  1.0767  0.9196
 1669TIP3   OH226421   4.021   5.012   5.510 -0.0796  0.1609  0.3589
 1669TIP3    H126422   4.021   4.936   5.452 -0.3025  0.0400  0.5155
 1669TIP3    H226423   4.106   5.054   5.495  1.3319 -1.7276  2.3943
 1670TIP3   OH226424   1.666   2.806  13.596  0.0524  0.1459 -0.3774
 1670TIP3    H126425   1.601   2.784  13.529  0.1590  1.5134 -0.9583
 1670TIP3    H226426   1.616   2.808  13.678 -0.2438 -0.7032 -0.5286
 1671TIP3   OH226427   1.892   2.214  17.455 -0.0776  0.3560 -0.1338
 1671TIP3    H126428   1.810   2.173  17.429 -0.0308 -0.5008  0.9697
 1671TIP3    H226429   1.933   2.149  17.512  0.0703  1.9069  1.5892
 1672TIP3   OH226430   5.443   3.725  16.408  0.0211 -0.2823 -0.2298
 1672TIP3    H126431   5.491   3.717  16.490 -1.5698 -1.8394  0.6176
 1672TIP3    H226432   5.351   3.721  16.433 -0.5129 -1.0745 -2.1023
 1673TIP3   OH226433   0.390   4.291  17.136  0.1443 -0.6458  0.2137
 1673TIP3    H126434   0.452   4.363  17.136 -1.9999  1.3613  2.0093
 1673TIP3    H226435   0.422   4.232  17.204  1.2734 -0.8003 -0.4409
 1674TIP3   OH226436   1.931   1.727   2.669  0.2177 -0.0396 -0.1899
 1674TIP3    H126437   1.848   1.769   2.646 -1.1572 -2.4990 -0.0520
 1674TIP3    H226438   1.923   1.639   2.633  2.3339 -0.6766  0.8091
 1675TIP3   OH226439   5.205   5.052   1.735  0.1290 -0.5717  0.7789
 1675TIP3    H126440   5.173   5.116   1.798  0.1899  0.7359 -0.4748
 1675TIP3    H226441   5.257   5.103   1.672 -0.5724 -1.6895 -0.7770
 1676TIP3   OH226442   6.436   3.682  16.045  0.1403 -0.0734 -0.0429
 1676TIP3    H126443   6.402   3.663  15.958 -0.1528 -1.1828  0.2964
 1676TIP3    H226444   6.365   3.659  16.105  0.8123 -0.6163  0.5623
 1677TIP3   OH226445   5.970   0.544   5.368  0.7448 -0.5498 -0.5062
 1677TIP3    H126446   5.895   0.560   5.310 -0.2369  0.9753  1.1055
 1677TIP3    H226447   6.040   0.597   5.331  0.0140  0.7246 -0.1256
 1678TIP3   OH226448   4.109   2.549   5.516 -0.5398  0.2675  0.2567
 1678TIP3    H126449   4.187   2.586   5.557 -1.5561  0.7875  1.8391
 1678TIP3    H226450   4.080   2.480   5.577 -0.5709 -0.8470 -0.9749
 1679TIP3   OH226451   0.828   2.756  15.273 -0.5457 -0.5713 -0.3408
 1679TIP3    H126452   0.801   2.666  15.256  0.6570 -1.7128  2.8755
 1679TIP3    H226453   0.880   2.751  15.354  1.1776  2.7665 -1.0225
 1680TIP3   OH226454   1.781   4.884  14.510  0.1930  0.0914 -0.2599
 1680TIP3    H126455   1.688   4.892  14.487  0.1310 -0.5580 -0.2378
 1680TIP3    H226456   1.818   4.969  14.487 -0.6862  0.8777  1.0465
 1681TIP3   OH226457   5.089   2.322  14.048 -0.0491  0.4349 -0.5368
 1681TIP3    H126458   5.067   2.413  14.029 -1.3587  0.9169  2.6837
 1681TIP3    H226459   5.143   2.326  14.127 -1.5478 -1.5958  0.6834
 1682TIP3   OH226460   0.657   1.804  13.171 -0.4808 -0.4375 -0.4847
 1682TIP3    H126461   0.633   1.713  13.150 -1.3561 -0.1564 -0.7714
 1682TIP3    H226462   0.587   1.833  13.229 -0.1992  0.0518 -0.3911
 1683TIP3   OH226463   4.768   2.335  12.144  0.2312  0.2665 -0.2497
 1683TIP3    H126464   4.830   2.341  12.071 -0.1412  1.3498 -0.4962
 1683TIP3    H226465   4.799   2.262  12.196  2.1933  1.2724  0.0694
 1684TIP3   OH226466   3.244   1.003   2.617 -0.2615 -0.3690 -0.2268
 1684TIP3    H126467   3.211   1.001   2.527  0.1735 -0.1672 -0.3944
 1684TIP3    H226468   3.339   1.001   2.607 -0.1906  0.4903  0.1998
 1685TIP3   OH226469   3.467   5.883   0.422  0.5563  0.1046 -0.0510
 1685TIP3    H126470   3.510   5.798   0.417 -0.2738 -0.4666  1.7075
 1685TIP3    H226471   3.380   5.868   0.384  1.0996  0.7167 -1.6172
 1686TIP3   OH226472   4.701   3.764   1.393 -0.3581  0.0235  0.3393
 1686TIP3    H126473   4.782   3.713   1.388 -0.8389 -0.8807  1.2806
 1686TIP3    H226474   4.704   3.805   1.480  0.5334  2.5638 -0.7953
 1687TIP3   OH226475   1.388   5.903  17.039  0.6360  0.3505 -0.1078
 1687TIP3    H126476   1.407   5.995  17.057 -1.3860  0.6112  0.9418
 1687TIP3    H226477   1.311   5.905  16.982  0.6608 -0.6935 -0.1972
 1688TIP3   OH226478   6.580   3.982   0.696  0.6568  0.0853  0.0865
 1688TIP3    H126479   6.666   3.946   0.676 -1.0114 -3.6598 -1.2767
 1688TIP3    H226480   6.580   3.992   0.791  2.1456 -1.2774  0.2736
 1689TIP3   OH226481   6.045   1.112   1.422  0.2160 -0.1628  0.4979
 1689TIP3    H126482   6.073   1.031   1.464  4.1052 -0.8866 -2.8908
 1689TIP3    H226483   6.004   1.084   1.341 -2.7671  1.2920  1.3693
 1690TIP3   OH226484   3.071   4.660   0.599 -0.4292 -0.6385 -0.3816
 1690TIP3    H126485   3.033   4.727   0.542 -0.6048 -0.6576 -0.2882
 1690TIP3    H226486   3.166   4.671   0.589 -0.3925  0.8565  1.0274
 1691TIP3   OH226487   3.748   1.332  17.328  0.0756  0.4754 -0.4663
 1691TIP3    H126488   3.831   1.285  17.328 -0.3498 -0.3391  1.2142
 1691TIP3    H226489   3.730   1.349  17.235  0.9476 -1.4338 -1.0289
 1692TIP3   OH226490   1.812   0.333   3.047 -0.0781  0.2579  0.0856
 1692TIP3    H126491   1.822   0.257   3.105  0.4312  0.5270  0.3535
 1692TIP3    H226492   1.720   0.332   3.023 -0.2061 -0.0958  0.5716
 1693TIP3   OH226493   2.691   6.488   2.815 -0.3377  0.7959  0.4819
 1693TIP3    H126494   2.778   6.455   2.838 -1.0115 -0.1895  1.7491
 1693TIP3    H226495   2.669   6.548   2.885 -1.7301 -0.9612  1.6247
 1694TIP3   OH226496   4.779   2.381  15.962 -0.1911 -0.0477 -0.1523
 1694TIP3    H126497   4.730   2.428  16.029 -0.5853  0.3977 -0.7391
 1694TIP3    H226498   4.715   2.323  15.921  0.1115 -0.5174  0.0405
 1695TIP3   OH226499   2.131   4.930  12.388  0.1689  0.9572  0.2334
 1695TIP3    H126500   2.110   4.951  12.479  2.4574  1.5134  0.7062
 1695TIP3    H226501   2.222   4.899  12.391  1.0732  3.0313 -2.0921
 1696TIP3   OH226502   4.235   4.649  11.698 -0.6316  0.1703 -0.4043
 1696TIP3    H126503   4.197   4.723  11.651  0.9465  0.4413 -1.3108
 1696TIP3    H226504   4.279   4.597  11.630 -0.3147 -0.7051  0.4492
 1697TIP3   OH226505   2.702   4.904  13.714 -0.3943 -0.0208 -0.0416
 1697TIP3    H126506   2.706   4.864  13.628  1.6259 -1.6833  0.7404
 1697TIP3    H226507   2.615   4.884  13.746 -0.9696  0.1264 -1.4516
 1698TIP3   OH226508   0.871   5.895  11.474  0.7354 -0.5767  0.2486
 1698TIP3    H126509   0.919   5.977  11.485  2.2243 -1.3009 -0.5937
 1698TIP3    H226510   0.842   5.895  11.383  1.4399 -1.3162  0.0070
 1699TIP3   OH226511   1.061   1.800   3.376 -0.0416  0.5041  0.0192
 1699TIP3    H126512   1.151   1.790   3.345 -0.5425 -1.6729 -0.8985
 1699TIP3    H226513   1.065   1.873   3.438  2.1135  1.2165 -0.8736
 1700TIP3   OH226514   4.077   1.889   4.746  0.4126  0.1082 -0.9359
 1700TIP3    H126515   4.037   1.883   4.660  0.3537 -0.4076 -0.8735
 1700TIP3    H226516   4.009   1.928   4.802  0.3414  0.1431 -1.0461
 1701TIP3   OH226517   1.217   4.528   3.039 -0.3108  0.0779  0.1718
 1701TIP3    H126518   1.244   4.442   3.009  0.2672 -0.0515  1.0171
 1701TIP3    H226519   1.264   4.589   2.982 -1.5058 -0.1449 -1.0965
 1702TIP3   OH226520   3.460   2.900   0.555 -0.4330  0.6262 -0.0691
 1702TIP3    H126521   3.491   2.934   0.639 -0.1758  0.7011 -0.1919
 1702TIP3    H226522   3.414   2.819   0.578 -1.3282  1.2180  0.2505
 1703TIP3   OH226523   4.730   0.818   6.724  0.0138 -1.0446  0.2066
 1703TIP3    H126524   4.714   0.887   6.789  0.8069  0.6293 -1.2673
 1703TIP3    H226525   4.743   0.739   6.775  1.9314  0.4435  2.2084
 1704TIP3   OH226526   3.011   0.188  13.421  0.0441  0.0980 -0.2961
 1704TIP3    H126527   3.085   0.247  13.405 -0.9998  0.8582 -2.8741
 1704TIP3    H226528   3.000   0.141  13.339 -1.6106 -0.8439  0.4233
 1705TIP3   OH226529   4.715   4.444  16.042 -0.2649  0.5111  0.1863
 1705TIP3    H126530   4.722   4.364  15.991  1.5215 -0.3658  1.6961
 1705TIP3    H226531   4.778   4.504  16.001 -0.4489  0.6074  0.0383
 1706TIP3   OH226532   4.481   5.418  13.315 -0.1809 -0.1641 -0.1998
 1706TIP3    H126533   4.531   5.486  13.271  0.5789 -0.5124  0.1020
 1706TIP3    H226534   4.409   5.464  13.358  0.2267  0.4242 -0.1437
 1707TIP3   OH226535   1.014   6.086   5.122  0.6551  0.3376 -0.0442
 1707TIP3    H126536   0.955   6.161   5.111 -1.3600 -0.8893  1.7047
 1707TIP3    H226537   1.009   6.065   5.215 -0.5094 -3.2536 -0.7983
 1708TIP3   OH226538   2.462   4.734   0.313  0.8221 -0.3548 -0.7323
 1708TIP3    H126539   2.426   4.821   0.296  0.5378 -0.5344 -1.0554
 1708TIP3    H226540   2.480   4.698   0.227 -0.5964 -1.2488 -0.6774
 1709TIP3   OH226541   4.088   3.901  14.458  0.2442  0.5043  0.3133
 1709TIP3    H126542   4.064   3.809  14.450  0.2961  0.4392  0.8991
 1709TIP3    H226543   4.030   3.935  14.526  0.5947  0.7719  0.4808
 1710TIP3   OH226544   1.941   2.780  15.532 -0.2460 -0.6374  0.2668
 1710TIP3    H126545   1.917   2.712  15.469 -2.5083  1.0742 -0.8442
 1710TIP3    H226546   1.970   2.732  15.610  0.2091 -2.8189 -1.1771
 1711TIP3   OH226547   2.963   1.271  13.114  0.6226 -0.1736 -0.3054
 1711TIP3    H126548   2.942   1.342  13.175  1.2094 -0.5088  0.3000
 1711TIP3    H226549   2.931   1.302  13.029 -0.9964 -0.0506  0.2988
 1712TIP3   OH226550   1.037   4.139   6.212 -0.0632  0.3880  0.3172
 1712TIP3    H126551   1.021   4.233   6.223 -2.3202  0.0855  0.1770
 1712TIP3    H226552   0.985   4.098   6.281  2.0215 -0.7501  1.2809
 1713TIP3   OH226553   2.191   4.499  17.451  0.6736  0.2073  0.1803
 1713TIP3    H126554   2.231   4.441  17.516 -0.8226  0.9891  1.8892
 1713TIP3    H226555   2.214   4.587  17.481  0.0601  0.5824 -0.4390
 1714TIP3   OH226556   6.142   4.297   4.634  0.3116  0.1475  0.0552
 1714TIP3    H126557   6.086   4.220   4.641  0.5161 -0.0754 -0.6222
 1714TIP3    H226558   6.083   4.372   4.642 -0.9168  0.0498 -4.8197
 1715TIP3   OH226559   4.997   5.510   4.443  0.4930  0.0290 -0.2130
 1715TIP3    H126560   5.066   5.445   4.433  0.2973 -0.0669 -1.0130
 1715TIP3    H226561   4.937   5.492   4.371 -0.6488 -0.2242  0.7655
 1716TIP3   OH226562   0.568   1.306  15.942 -0.7892  0.7073 -1.1200
 1716TIP3    H126563   0.548   1.390  15.899  0.5917  1.8488  0.3319
 1716TIP3    H226564   0.663   1.309  15.956 -1.1381  0.4702  2.0275
 1717TIP3   OH226565   6.586   1.308  14.189 -0.2441 -0.1086  0.3084
 1717TIP3    H126566   6.580   1.213  14.199  0.3292 -0.4783 -2.3179
 1717TIP3    H226567   6.679   1.326  14.176 -0.5874  0.4309 -1.8389
 1718TIP3   OH226568   0.673   0.352   2.926 -0.3614 -0.1834  0.0541
 1718TIP3    H126569   0.610   0.309   2.868  1.3668 -0.6033 -1.6173
 1718TIP3    H226570   0.640   0.441   2.935 -0.3986  0.0855 -2.1275
 1719TIP3   OH226571   4.413   1.187  11.742 -0.1766 -0.1614 -0.4716
 1719TIP3    H126572   4.426   1.278  11.768 -1.3262  0.3654 -1.6372
 1719TIP3    H226573   4.427   1.187  11.647 -1.7799 -0.8490 -0.7458
 1720TIP3   OH226574   3.126   4.787  11.646  0.5732 -0.7744  0.1781
 1720TIP3    H126575   3.074   4.712  11.672  1.8731 -1.4776  0.8681
 1720TIP3    H226576   3.147   4.772  11.554 -0.7974 -0.2354 -0.2531
 1721TIP3   OH226577   4.810   5.936   1.782  0.0300  0.2573 -0.5388
 1721TIP3    H126578   4.774   5.986   1.856  1.1642  0.4649 -0.1060
 1721TIP3    H226579   4.763   5.852   1.784 -1.9852  1.3107 -1.3519
 1722TIP3   OH226580   5.412   0.092  15.387  0.0650  0.6231 -0.0248
 1722TIP3    H126581   5.464   0.035  15.444  0.0172  1.5192  0.9325
 1722TIP3    H226582   5.325   0.093  15.427 -0.1385  0.7926 -0.4581
 1723TIP3   OH226583   4.619   0.956   4.492  0.1604  0.3453  0.3538
 1723TIP3    H126584   4.538   0.973   4.445 -0.3201 -1.0940  0.6058
 1723TIP3    H226585   4.668   1.039   4.487 -1.0197  1.0265 -0.3676
 1724TIP3   OH226586   5.287   0.597  12.562 -0.1150  0.2334  0.0838
 1724TIP3    H126587   5.379   0.591  12.534 -0.5920  1.6086 -2.0084
 1724TIP3    H226588   5.277   0.686  12.594 -0.7467  0.1249  0.2024
 1725TIP3   OH226589   6.108   5.591  17.023 -1.0004  0.2539 -0.5605
 1725TIP3    H126590   6.122   5.513  16.969 -0.9336 -0.8696  1.0004
 1725TIP3    H226591   6.181   5.649  17.002 -0.2813 -0.7006 -0.7649
 1726TIP3   OH226592   1.612   2.919  14.738  0.1357  0.1085 -0.1517
 1726TIP3    H126593   1.593   2.849  14.676 -1.3363  0.0025  0.4015
 1726TIP3    H226594   1.660   2.876  14.809  1.0661  0.0745 -0.7751
 1727TIP3   OH226595   3.872   1.229   6.440 -0.2335  0.0732 -0.0339
 1727TIP3    H126596   3.955   1.188   6.418  0.1104  0.2187  0.9278
 1727TIP3    H226597   3.808   1.187   6.383  0.5795  0.3689 -1.2002
 1728TIP3   OH226598   1.436   6.318   5.100 -0.1279 -0.1002  0.2459
 1728TIP3    H126599   1.461   6.401   5.059 -2.9324  1.2368  1.0436
 1728TIP3    H226600   1.478   6.321   5.186 -0.7933  0.8654  0.5557
 1729TIP3   OH226601   3.192   4.572  12.957 -0.4900  0.0094  0.5728
 1729TIP3    H126602   3.208   4.487  12.998  0.1516 -1.0862 -1.7688
 1729TIP3    H226603   3.262   4.628  12.990 -0.7246 -0.4448  1.8954
 1730TIP3   OH226604   2.026   3.604  14.921 -0.1813  0.1158  0.0082
 1730TIP3    H126605   1.942   3.558  14.935 -0.6012  0.0222 -2.3883
 1730TIP3    H226606   2.092   3.535  14.927 -0.2601  0.1476  1.6748
 1731TIP3   OH226607   4.070   4.875  17.280  0.0978  0.2738  0.3596
 1731TIP3    H126608   4.062   4.940  17.211  0.7884 -0.0107  0.0083
 1731TIP3    H226609   3.982   4.871  17.319  0.4435  2.7205  1.5849
 1732TIP3   OH226610   1.961   0.376   5.867 -0.2241 -0.2442  0.1966
 1732TIP3    H126611   2.039   0.351   5.817  0.9123  0.6134  1.4719
 1732TIP3    H226612   1.951   0.306   5.932 -1.1345 -0.8672 -0.5902
 1733TIP3   OH226613   4.538   4.595   6.606 -0.4150  0.4276 -0.0032
 1733TIP3    H126614   4.465   4.645   6.644 -0.5934  0.0159  0.1970
 1733TIP3    H226615   4.612   4.614   6.663 -0.3889  0.7654 -0.1475
 1734TIP3   OH226616   0.040   3.827   0.132  0.0452  0.7153  0.3565
 1734TIP3    H126617  -0.030   3.820   0.067  0.5275  0.5666 -0.1519
 1734TIP3    H226618   0.060   3.737   0.156  0.7764  0.6937 -0.2826
 1735TIP3   OH226619   2.723   1.047  15.510 -0.4995  0.0185 -0.9696
 1735TIP3    H126620   2.776   1.126  15.499 -2.2607  1.1753 -1.6728
 1735TIP3    H226621   2.709   1.040  15.604 -0.1047  0.3958 -0.8796
 1736TIP3   OH226622   5.683   4.879  13.339  0.0357  0.2321  0.0311
 1736TIP3    H126623   5.695   4.974  13.331 -1.1358  0.4202  0.3421
 1736TIP3    H226624   5.756   4.851  13.395  1.0210  0.7677 -0.9322
 1737TIP3   OH226625   1.006   3.015   4.761 -0.1096  0.5563 -0.1416
 1737TIP3    H126626   1.062   3.020   4.839 -0.2030 -0.6957  0.0204
 1737TIP3    H226627   0.933   3.073   4.781  0.3644  1.0215  0.2791
 1738TIP3   OH226628   6.510   4.437   4.699  0.5216  0.4314 -0.6382
 1738TIP3    H126629   6.419   4.416   4.678  0.7229 -1.4520  0.1919
 1738TIP3    H226630   6.561   4.404   4.624  0.5178  1.9710 -1.3593
 1739TIP3   OH226631   5.444   3.620   4.231 -0.1907  0.2077 -0.4964
 1739TIP3    H126632   5.403   3.534   4.220  1.4874 -0.7021 -0.1145
 1739TIP3    H226633   5.433   3.663   4.147 -2.6114  0.3633 -0.1474
 1740TIP3   OH226634   0.491   2.795  15.165 -0.3552  1.0064 -0.0989
 1740TIP3    H126635   0.544   2.727  15.207 -2.4760  0.8767  2.6924
 1740TIP3    H226636   0.467   2.758  15.080  0.3529 -0.7746  0.4290
 1741TIP3   OH226637   6.426   2.369  14.851  0.5299 -0.3713  0.1496
 1741TIP3    H126638   6.424   2.358  14.756 -0.0134  1.6426 -0.1228
 1741TIP3    H226639   6.516   2.397  14.870  0.9668 -1.8405  0.4194
 1742TIP3   OH226640   5.834   1.926  15.074  0.0886 -0.0950  0.6024
 1742TIP3    H126641   5.844   1.921  14.979 -0.7247  1.9446  0.3610
 1742TIP3    H226642   5.835   1.835  15.103  1.6451 -0.7133 -1.1960
 1743TIP3   OH226643   1.027   0.825   6.327  0.0428 -0.3539  0.5023
 1743TIP3    H126644   1.045   0.909   6.370  2.1563 -0.7172  0.4476
 1743TIP3    H226645   1.003   0.766   6.398 -2.7211  0.5471  0.4084
 1744TIP3   OH226646   6.059   0.264   0.752  0.0174 -0.1543 -0.1862
 1744TIP3    H126647   6.117   0.305   0.817 -1.5267  1.2929  0.3301
 1744TIP3    H226648   6.052   0.329   0.682 -1.1254 -0.2257 -0.1487
 1745TIP3   OH226649   2.848   1.712  15.448  0.7303  0.1543 -0.1018
 1745TIP3    H126650   2.796   1.787  15.477  1.4779  0.8248 -0.4728
 1745TIP3    H226651   2.792   1.636  15.465 -0.1388  0.8140  0.0326
 1746TIP3   OH226652   2.113   4.541  11.048 -0.3512 -0.0365  0.5791
 1746TIP3    H126653   2.033   4.508  11.008  0.0557 -3.5247  2.2901
 1746TIP3    H226654   2.172   4.559  10.974 -2.2576  1.5909 -0.6382
 1747TIP3   OH226655   1.864   3.838   3.470  0.0624  0.0831 -0.1647
 1747TIP3    H126656   1.804   3.907   3.499  0.5587  1.2450 -1.8114
 1747TIP3    H226657   1.834   3.816   3.382  0.2215 -1.4919  0.1524
 1748TIP3   OH226658   3.101   2.304  16.981  0.2714  0.0641  0.3398
 1748TIP3    H126659   3.134   2.214  16.976  0.7471  0.1049  2.0804
 1748TIP3    H226660   3.180   2.357  16.994 -0.2111  0.4459  1.8771
 1749TIP3   OH226661   0.461   5.663   2.895 -0.1307 -0.3082  0.1601
 1749TIP3    H126662   0.466   5.736   2.957  1.9763 -1.1290  1.0334
 1749TIP3    H226663   0.457   5.706   2.809 -0.5730  0.8268  0.7217
 1750TIP3   OH226664   2.307   4.639   3.150 -0.6312  0.2050  0.3707
 1750TIP3    H126665   2.269   4.626   3.063  0.4065 -3.9515  0.3124
 1750TIP3    H226666   2.239   4.612   3.211  0.1390 -1.5165  0.5324
 1751TIP3   OH226667   4.422   6.262   4.138 -0.2548 -0.0038  0.2469
 1751TIP3    H126668   4.373   6.183   4.119 -0.4109 -0.1721  1.3165
 1751TIP3    H226669   4.493   6.234   4.196  0.6022  0.3822 -0.5817
 1752TIP3   OH226670   0.894   5.630  12.615 -0.1783 -0.2832  0.3327
 1752TIP3    H126671   0.961   5.698  12.604 -0.3005 -0.3502 -1.0693
 1752TIP3    H226672   0.944   5.550  12.632  0.1965 -0.4943 -1.5187
 1753TIP3   OH226673   0.623   3.303   0.367  0.1664 -0.0568  0.1061
 1753TIP3    H126674   0.713   3.271   0.374  0.2110 -0.4706 -1.8969
 1753TIP3    H226675   0.594   3.275   0.280 -2.0731 -0.3455  0.8779
 1754TIP3   OH226676   1.434   1.082   0.630 -0.5500 -0.2227 -0.4982
 1754TIP3    H126677   1.350   1.121   0.607 -1.0507 -0.7658  0.3579
 1754TIP3    H226678   1.461   1.127   0.710  0.8340  1.1613 -1.6850
 1755TIP3   OH226679   2.901   4.606  15.882  0.4148 -0.0070  0.5333
 1755TIP3    H126680   2.869   4.670  15.946  0.0172  0.5377 -0.1821
 1755TIP3    H226681   2.976   4.648  15.841  0.2710 -0.0718  0.1956
 1756TIP3   OH226682   5.110   0.246  17.317 -0.7342  0.3205  0.6404
 1756TIP3    H126683   5.179   0.299  17.276 -1.9555  0.0605 -1.9960
 1756TIP3    H226684   5.158   0.180  17.367  1.0601 -0.6868 -2.1565
 1757TIP3   OH226685   2.383   1.407   4.682  0.0146 -0.2833 -0.3670
 1757TIP3    H126686   2.404   1.458   4.604 -0.5332  1.4406  0.5764
 1757TIP3    H226687   2.467   1.371   4.711 -0.0039 -2.6062 -2.7939
 1758TIP3   OH226688   3.743   2.558  16.026 -0.2920 -0.5246 -0.4542
 1758TIP3    H126689   3.810   2.626  16.024 -1.3134  0.6066  1.0043
 1758TIP3    H226690   3.682   2.581  15.956  0.4272 -1.1295 -1.2932
 1759TIP3   OH226691   4.101   4.814   5.317 -0.4726 -0.0847  0.2558
 1759TIP3    H126692   4.076   4.793   5.227  0.5288 -0.3299  0.0125
 1759TIP3    H226693   4.091   4.731   5.365 -1.3611  0.1365  0.4601
 1760TIP3   OH226694   5.674   0.801   4.091 -0.3367 -0.2285 -0.3812
 1760TIP3    H126695   5.648   0.801   4.183 -0.2738 -2.5628 -0.3214
 1760TIP3    H226696   5.764   0.834   4.091 -0.8625  1.2869  0.1779
 1761TIP3   OH226697   2.221   0.631  12.845 -0.0383  0.2592  0.0592
 1761TIP3    H126698   2.181   0.579  12.776 -1.9579 -1.9580  2.6222
 1761TIP3    H226699   2.277   0.693  12.799 -1.9295 -0.4141 -3.4687
 1762TIP3   OH226700   4.125   0.091  13.387  0.0005 -0.9722 -0.0502
 1762TIP3    H126701   4.090   0.002  13.380 -1.9453 -0.5430  2.5090
 1762TIP3    H226702   4.139   0.103  13.481  0.4234  1.3677 -0.3539
 1763TIP3   OH226703   4.433   0.606   1.746  0.3700  0.3003  0.5777
 1763TIP3    H126704   4.526   0.602   1.771  0.5019  3.8548  1.2389
 1763TIP3    H226705   4.420   0.698   1.721 -2.8658 -0.2286 -0.0407
 1764TIP3   OH226706   4.426   3.549   6.472 -0.0216 -0.0780  0.7277
 1764TIP3    H126707   4.367   3.559   6.546 -2.3284  1.5719 -1.1874
 1764TIP3    H226708   4.511   3.528   6.512 -1.5836 -1.4139  3.6489
 1765TIP3   OH226709   4.182   3.787  17.222 -0.4768 -0.3419  0.2137
 1765TIP3    H126710   4.209   3.804  17.313 -0.6619 -1.8234  0.5758
 1765TIP3    H226711   4.102   3.837  17.211  0.0015  0.5336  0.5763
 1766TIP3   OH226712   1.134   1.706   5.029  0.6776 -0.0584 -0.3079
 1766TIP3    H126713   1.194   1.695   5.103 -1.0955  0.1056  1.2152
 1766TIP3    H226714   1.096   1.793   5.042 -0.4660 -0.4689 -0.7798
 1767TIP3   OH226715   1.601   2.255  11.414  0.3511  0.1954  0.8800
 1767TIP3    H126716   1.598   2.283  11.322 -0.0048 -0.7426  0.5884
 1767TIP3    H226717   1.693   2.266  11.439  0.4724  0.3664  0.3761
 1768TIP3   OH226718   3.029   1.936  13.492  0.3085  0.0276  0.0863
 1768TIP3    H126719   2.953   1.878  13.498  0.5855 -0.2363  1.3700
 1768TIP3    H226720   3.090   1.889  13.435 -0.2784  0.0159 -0.5507
 1769TIP3   OH226721   2.565   1.182  13.998  0.1165  0.2331 -0.6931
 1769TIP3    H126722   2.588   1.239  13.924 -0.5909  0.0154 -1.0935
 1769TIP3    H226723   2.498   1.232  14.046  1.8550  1.1736  0.8603
 1770TIP3   OH226724   4.683   1.964  17.369 -0.2296  0.0237  0.0296
 1770TIP3    H126725   4.659   2.035  17.429  0.3986 -0.4559  0.8694
 1770TIP3    H226726   4.717   1.895  17.426 -0.7313 -0.9220 -0.7782
 1771TIP3   OH226727   5.382   6.139  15.842  0.7192  0.2846  0.2715
 1771TIP3    H126728   5.426   6.109  15.763  0.0713 -0.1762  0.0806
 1771TIP3    H226729   5.290   6.120  15.827  0.4303  1.3205  0.6300
 1772TIP3   OH226730   4.073   2.835  17.316 -0.3890  0.3287 -0.0225
 1772TIP3    H126731   4.045   2.885  17.239 -0.0001 -0.2505 -0.5431
 1772TIP3    H226732   4.165   2.858  17.328 -0.1633 -0.3811 -0.3610
 1773TIP3   OH226733   1.328   3.811   0.913  0.0066  0.2609 -0.2890
 1773TIP3    H126734   1.311   3.898   0.877  0.9820  0.1051 -1.1760
 1773TIP3    H226735   1.371   3.764   0.842 -1.0115 -1.1327 -0.0052
 1774TIP3   OH226736   4.755   1.503   4.577  0.3072 -0.4567  0.0039
 1774TIP3    H126737   4.795   1.440   4.637 -0.2706 -1.6115 -0.7855
 1774TIP3    H226738   4.817   1.511   4.505 -0.6697 -1.9556 -1.0360
 1775TIP3   OH226739   3.187   4.535  17.114  0.3183  0.1834  0.3097
 1775TIP3    H126740   3.130   4.463  17.089  0.2007 -0.4180  2.1521
 1775TIP3    H226741   3.264   4.492  17.152  1.6272  0.9983 -1.3540
 1776TIP3   OH226742   0.190   6.231   5.181  0.1605  0.4061  0.1305
 1776TIP3    H126743   0.140   6.236   5.099  0.2783  0.0389  0.0343
 1776TIP3    H226744   0.279   6.256   5.156 -0.4112  3.4044  0.7384
 1777TIP3   OH226745   6.483   2.119   4.898  0.2590  0.5418 -0.1024
 1777TIP3    H126746   6.411   2.182   4.894  1.2054  1.5548 -2.2898
 1777TIP3    H226747   6.548   2.151   4.836  1.6688 -1.5346  0.1827
 1778TIP3   OH226748   2.980   4.640   3.070  0.2088 -0.0015  0.4498
 1778TIP3    H126749   2.907   4.695   3.042  1.0936 -0.4966 -3.3444
 1778TIP3    H226750   3.053   4.701   3.084 -0.3238  0.2832  2.3668
 1779TIP3   OH226751   2.251   2.215  17.520  0.5652  0.5652 -0.4739
 1779TIP3    H126752   2.191   2.143  17.541  1.7583 -0.4062 -0.3030
 1779TIP3    H226753   2.193   2.291  17.509 -0.7002 -0.3373 -0.3600
 1780TIP3   OH226754   3.308   4.901  14.747  0.6359 -0.5028  0.2630
 1780TIP3    H126755   3.296   4.963  14.819 -2.1310 -0.8584  0.2093
 1780TIP3    H226756   3.285   4.951  14.669 -0.5825 -1.2549  0.1131
 1781TIP3   OH226757   5.912   3.421  11.741  0.2037  0.3687 -0.1399
 1781TIP3    H126758   5.927   3.501  11.790  0.1903  1.2661 -1.5329
 1781TIP3    H226759   5.998   3.398  11.705 -0.1226  0.8367 -1.2757
 1782TIP3   OH226760   4.997   0.751  15.528  0.2664 -0.4964  0.0031
 1782TIP3    H126761   5.017   0.658  15.540 -0.0203 -0.3820  1.7485
 1782TIP3    H226762   5.066   0.783  15.471  1.0463 -1.5459  0.3147
 1783TIP3   OH226763   4.969   2.204   5.581  0.0586  0.1962  0.5013
 1783TIP3    H126764   4.934   2.115   5.574  1.5908 -0.4897  1.0864
 1783TIP3    H226765   4.904   2.258   5.536 -1.3785 -1.0746  0.9359
 1784TIP3   OH226766   3.597   3.031  15.654  0.5803 -0.9501 -0.0605
 1784TIP3    H126767   3.633   3.116  15.681 -1.6770  0.3388 -0.7937
 1784TIP3    H226768   3.642   3.010  15.573  1.6931 -0.8368  0.5161
 1785TIP3   OH226769   5.365   0.949   6.284 -0.5272  0.4226 -0.5632
 1785TIP3    H126770   5.360   1.043   6.303  1.8897  0.8894 -1.8410
 1785TIP3    H226771   5.435   0.942   6.219  1.1530 -2.5157  1.3675
 1786TIP3   OH226772   4.305   0.322   6.961  0.4772 -0.7096 -0.0272
 1786TIP3    H126773   4.339   0.265   6.891  0.0630 -0.7323 -0.2104
 1786TIP3    H226774   4.296   0.264   7.036 -1.1049 -1.1895 -0.5456
 1787TIP3   OH226775   1.807   4.760   4.406  0.3467  0.8954 -0.0515
 1787TIP3    H126776   1.801   4.826   4.474  1.7166 -0.8673  1.9150
 1787TIP3    H226777   1.895   4.724   4.416 -0.0530 -0.6354 -1.6059
 1788TIP3   OH226778   1.019   3.736  15.701 -0.1176  0.5408 -0.0829
 1788TIP3    H126779   1.004   3.765  15.611 -0.2637  0.2427 -0.1559
 1788TIP3    H226780   1.107   3.698  15.700  0.1528  1.1564  0.0595
 1789TIP3   OH226781   5.849   1.638  11.851 -0.7777 -0.0292 -0.2241
 1789TIP3    H126782   5.839   1.551  11.890  1.6209 -0.3582 -0.2323
 1789TIP3    H226783   5.759   1.665  11.831 -1.6035 -2.4167 -0.0659
 1790TIP3   OH226784   6.665   2.415   1.821 -0.0788  0.5465  0.0171
 1790TIP3    H126785   6.746   2.403   1.871 -0.5510  2.4535  1.3832
 1790TIP3    H226786   6.674   2.501   1.781 -1.3792  0.7632  0.1391
 1791TIP3   OH226787   0.433   5.659   1.193 -0.2564  0.0256  0.5010
 1791TIP3    H126788   0.465   5.748   1.176 -0.1075  0.4682  2.7988
 1791TIP3    H226789   0.496   5.602   1.147 -0.7286  1.0677 -1.5588
 1792TIP3   OH226790   5.822   2.426  12.202 -0.3696  0.0534 -0.0556
 1792TIP3    H126791   5.853   2.352  12.149  0.9984  0.7277 -0.2425
 1792TIP3    H226792   5.841   2.400  12.292  0.5367  0.3335 -0.1487
 1793TIP3   OH226793   0.151   4.141   3.727  0.2719 -0.2720 -0.1428
 1793TIP3    H126794   0.098   4.128   3.649  1.3087 -0.4380 -0.8331
 1793TIP3    H226795   0.167   4.235   3.730 -1.9173  0.1431  1.3406
 1794TIP3   OH226796   6.382   4.769   1.996 -0.0242  0.5788 -0.0866
 1794TIP3    H126797   6.426   4.734   1.918 -0.4812  0.3734 -0.2538
 1794TIP3    H226798   6.301   4.719   2.003 -2.5532  3.8700 -2.4205
 1795TIP3   OH226799   1.027   6.123   6.000  0.0484 -0.0746  0.0984
 1795TIP3    H126800   0.960   6.054   5.992  0.8652 -1.0219  1.0805
 1795TIP3    H226801   1.075   6.100   6.079  1.7192  0.4271 -0.7305
 1796TIP3   OH226802   3.577   0.788   1.049  0.5974 -0.1603 -0.5904
 1796TIP3    H126803   3.483   0.797   1.040  0.5483  0.3205  0.3271
 1796TIP3    H226804   3.609   0.778   0.959 -0.0791  2.1227 -1.1559
 1797TIP3   OH226805   2.272   0.417   0.781 -0.3876 -0.0293  0.1300
 1797TIP3    H126806   2.367   0.406   0.794 -0.4266 -0.5190  0.0038
 1797TIP3    H226807   2.256   0.509   0.802 -0.3059 -0.5463  2.7770
 1798TIP3   OH226808   0.227   3.685   1.618 -0.3481  0.1682 -0.5022
 1798TIP3    H126809   0.177   3.749   1.669 -2.3685  0.2058 -2.3631
 1798TIP3    H226810   0.266   3.738   1.548  0.0337 -0.2666 -0.6141
 1799TIP3   OH226811   3.655   6.658   4.391 -0.5459 -0.0987 -0.0115
 1799TIP3    H126812   3.661   6.566   4.363  0.6674 -0.8240  2.3682
 1799TIP3    H226813   3.708   6.706   4.327  1.9588 -1.6366  0.7550
 1800TIP3   OH226814   5.457   3.003   4.661  0.8538  0.4398  1.1625
 1800TIP3    H126815   5.422   2.920   4.693 -1.0712  1.4371  1.8600
 1800TIP3    H226816   5.528   3.024   4.721  1.0864 -0.4908  1.2318
 1801TIP3   OH226817   4.878   5.258  17.104  0.3086 -0.0779  0.0161
 1801TIP3    H126818   4.906   5.189  17.044 -1.0913 -0.5371 -0.1417
 1801TIP3    H226819   4.785   5.271  17.084  0.2434  0.9707  0.9115
 1802TIP3   OH226820   0.600   1.692  17.114  0.2145  0.3180  0.0007
 1802TIP3    H126821   0.620   1.599  17.101  1.5729  0.4292  1.0117
 1802TIP3    H226822   0.504   1.697  17.114  0.0493 -1.4638  2.2272
 1803TIP3   OH226823   3.240   3.402   2.750 -0.6731 -0.3598 -0.3949
 1803TIP3    H126824   3.287   3.413   2.667 -3.1142 -0.9228 -1.9524
 1803TIP3    H226825   3.309   3.385   2.814  1.4431  1.5222 -1.9888
 1804TIP3   OH226826   5.102   1.409  11.563  0.0294 -0.5370 -0.0926
 1804TIP3    H126827   5.010   1.385  11.550  0.5299 -1.7050 -2.0377
 1804TIP3    H226828   5.114   1.410  11.658 -2.1459  0.3686  0.2224
 1805TIP3   OH226829   4.636   0.529   6.027 -0.7367 -0.1782 -0.0685
 1805TIP3    H126830   4.592   0.574   6.099 -1.6470  1.1338 -1.4017
 1805TIP3    H226831   4.573   0.464   5.997 -1.0388  0.4172 -0.7499
 1806TIP3   OH226832   6.310   3.440   2.749 -0.3554  0.5667 -0.3066
 1806TIP3    H126833   6.306   3.436   2.654  0.6017 -0.9152 -0.3153
 1806TIP3    H226834   6.316   3.349   2.777 -1.1268  0.9384  1.2151
 1807TIP3   OH226835   4.393   5.066   2.534  0.4623  0.3231  0.5379
 1807TIP3    H126836   4.486   5.078   2.555  1.1781 -0.5132 -1.8516
 1807TIP3    H226837   4.372   4.979   2.566  0.3091  0.7353  1.6000
 1808TIP3   OH226838   3.305   2.954  11.465 -0.5905 -0.0630 -0.5570
 1808TIP3    H126839   3.391   2.968  11.425 -0.9426 -0.5852 -1.5233
 1808TIP3    H226840   3.272   2.875  11.424 -0.9699 -0.6400  0.8093
 1809TIP3   OH226841   2.273   5.217  15.265 -0.1390  0.0387  0.4162
 1809TIP3    H126842   2.313   5.148  15.318 -1.7413 -1.8123 -0.6507
 1809TIP3    H226843   2.334   5.229  15.192 -0.9211 -2.0562 -0.6740
 1810TIP3   OH226844   1.991   5.790   4.402  0.6466 -0.8437 -0.1619
 1810TIP3    H126845   2.016   5.774   4.311 -1.2034  0.2893 -0.9050
 1810TIP3    H226846   1.899   5.765   4.407 -0.2832  2.2662  0.4668
 1811TIP3   OH226847   1.165   5.552  14.033 -0.1639 -0.3142  0.6756
 1811TIP3    H126848   1.231   5.603  13.986 -0.1753 -0.0791  0.9094
 1811TIP3    H226849   1.083   5.570  13.987 -0.2282  0.1641  0.9742
 1812TIP3   OH226850   2.581   2.588  15.821 -0.3751 -0.4399 -0.2574
 1812TIP3    H126851   2.488   2.609  15.829 -0.1720 -0.0449  1.4157
 1812TIP3    H226852   2.583   2.497  15.791 -1.3097 -0.6918  0.4062
 1813TIP3   OH226853   1.855   5.054   5.683 -0.0616 -0.8502 -0.2494
 1813TIP3    H126854   1.899   5.111   5.620  1.5680  0.9706  2.2892
 1813TIP3    H226855   1.889   4.966   5.665  0.0633 -0.4535 -2.0700
 1814TIP3   OH226856   3.895   6.671   0.061  0.6590 -0.5965 -0.0302
 1814TIP3    H126857   3.957   6.739   0.036  1.9219 -1.4680  0.6150
 1814TIP3    H226858   3.822   6.718   0.101 -0.1984  0.6279 -2.8256
 1815TIP3   OH226859   3.042   3.419   5.557 -0.2595 -0.2492 -0.6389
 1815TIP3    H126860   3.023   3.326   5.554 -0.2303 -0.2882  0.1270
 1815TIP3    H226861   2.962   3.460   5.589 -0.2332 -0.0256 -0.8536
 1816TIP3   OH226862   3.722   0.385   3.560  0.2056  0.3911 -0.0014
 1816TIP3    H126863   3.699   0.473   3.532 -0.6125 -0.5494 -2.5168
 1816TIP3    H226864   3.661   0.366   3.632 -0.2776  1.5131 -0.0957
 1817TIP3   OH226865   1.990   3.168   0.823  0.3770 -0.6229 -0.2321
 1817TIP3    H126866   2.015   3.135   0.909 -1.3185  0.3021  0.6616
 1817TIP3    H226867   1.993   3.263   0.831 -0.1072 -0.5214 -1.0960
 1818TIP3   OH226868   6.573   4.203   6.124 -0.0969 -0.0813 -0.1286
 1818TIP3    H126869   6.522   4.284   6.123 -1.9770 -1.2025 -0.4991
 1818TIP3    H226870   6.591   4.185   6.031 -0.7176 -0.6875 -0.1354
 1819TIP3   OH226871   1.996   6.288   3.206 -0.0186  0.2484  0.0211
 1819TIP3    H126872   1.935   6.236   3.259  1.8656 -2.2293 -0.0241
 1819TIP3    H226873   2.082   6.251   3.226  1.1516  1.6159 -2.1030
 1820TIP3   OH226874   2.778   1.036  16.230  0.1974 -0.5181  0.1655
 1820TIP3    H126875   2.796   1.105  16.166 -0.1892 -0.0997  0.4991
 1820TIP3    H226876   2.691   1.059  16.265 -0.2623 -1.5690 -0.2438
 1821TIP3   OH226877   0.063   2.041  11.408 -0.5423  0.3768 -0.1983
 1821TIP3    H126878   0.102   2.051  11.321  0.7264  0.0842  0.3238
 1821TIP3    H226879   0.082   2.123  11.452 -1.9774  0.8860 -0.4777
 1822TIP3   OH226880   4.941   0.959   3.089 -0.2824  0.1560 -0.5299
 1822TIP3    H126881   4.963   0.868   3.071  2.1145  0.6011 -0.2395
 1822TIP3    H226882   4.867   0.978   3.031 -0.8196 -1.9329 -0.6080
 1823TIP3   OH226883   2.068   0.403  15.453  1.0078 -0.7251  0.2306
 1823TIP3    H126884   2.148   0.419  15.503  0.5635 -0.5353  0.9069
 1823TIP3    H226885   2.000   0.393  15.520  0.0785  1.1844 -0.3347
 1824TIP3   OH226886   5.058   0.236  13.471 -0.3710 -0.3918  0.6924
 1824TIP3    H126887   5.145   0.274  13.471 -1.3690  2.0668  1.3515
 1824TIP3    H226888   5.045   0.205  13.382  0.5159  0.8632  0.1022
 1825TIP3   OH226889   0.611   6.558   3.705 -0.0811 -0.4913 -0.3156
 1825TIP3    H126890   0.616   6.652   3.723 -2.2395 -0.5609  1.0498
 1825TIP3    H226891   0.588   6.552   3.612 -0.2772  0.3559 -0.3286
 1826TIP3   OH226892   0.682   0.600   5.459 -0.0633  0.0958 -0.7019
 1826TIP3    H126893   0.686   0.519   5.510 -0.3018  0.0427 -0.7624
 1826TIP3    H226894   0.597   0.637   5.481 -0.3540 -0.1496 -1.3840
 1827TIP3   OH226895   4.879   6.129  13.547 -0.1449 -0.3787  0.4806
 1827TIP3    H126896   4.958   6.178  13.567 -0.2172  0.0053 -0.1728
 1827TIP3    H226897   4.898   6.085  13.464 -0.6669 -0.1811  0.2567
 1828TIP3   OH226898   1.978   0.719   0.771  0.3071  0.1805 -0.1859
 1828TIP3    H126899   1.976   0.632   0.732 -0.8158 -0.2715  0.8568
 1828TIP3    H226900   2.042   0.712   0.842 -0.9131 -0.2330  0.8872
 1829TIP3   OH226901   2.809   5.648   3.691 -0.2593 -0.4219 -0.0713
 1829TIP3    H126902   2.887   5.704   3.694 -1.7215  1.7032  0.0842
 1829TIP3    H226903   2.818   5.599   3.609  1.0146  0.1090 -0.2733
 1830TIP3   OH226904   4.276   6.252  10.784  0.3090  0.0908  0.1559
 1830TIP3    H126905   4.311   6.171  10.822 -0.4026  0.4280  1.5822
 1830TIP3    H226906   4.226   6.223  10.708  1.2665 -0.6605 -0.2098
 1831TIP3   OH226907   1.532   4.823  15.587 -0.1451  0.2485  0.3180
 1831TIP3    H126908   1.531   4.756  15.656 -0.1835 -1.0754 -0.9188
 1831TIP3    H226909   1.607   4.878  15.609 -0.2229 -0.0793  1.4842
 1832TIP3   OH226910   1.143   2.895  16.946 -0.1171 -0.0543  0.2556
 1832TIP3    H126911   1.108   2.822  16.997 -2.2219 -0.3307 -1.4430
 1832TIP3    H226912   1.227   2.915  16.988 -0.1815 -2.4093  1.7178
 1833TIP3   OH226913   2.270   3.292  15.579 -0.7281 -0.2848 -0.2567
 1833TIP3    H126914   2.236   3.363  15.633 -1.7712 -0.2482 -0.9359
 1833TIP3    H226915   2.363   3.288  15.601 -0.6301  1.3116 -0.2250
 1834TIP3   OH226916   1.766   4.247   7.019  0.5278  0.3144 -0.1277
 1834TIP3    H126917   1.850   4.241   6.974 -0.0507 -0.1217 -1.2072
 1834TIP3    H226918   1.769   4.329   7.067  1.1722  0.8070 -0.9925
 1835TIP3   OH226919   5.696   5.206  13.972  0.8503 -0.0340  0.0226
 1835TIP3    H126920   5.602   5.201  13.956  0.8084  0.2991  0.1608
 1835TIP3    H226921   5.704   5.226  14.065  1.0879 -1.4853  0.3364
 1836TIP3   OH226922   6.518   3.634   2.650  0.2047 -0.3575  0.4588
 1836TIP3    H126923   6.608   3.609   2.627  0.0264 -0.2106 -0.4339
 1836TIP3    H226924   6.467   3.554   2.640  0.0425 -0.1860 -0.1623
 1837TIP3   OH226925   2.381   2.934   1.511 -0.2095  0.5143  0.0531
 1837TIP3    H126926   2.386   2.990   1.434  2.1191  1.5167  0.8421
 1837TIP3    H226927   2.471   2.928   1.543 -0.8691 -1.0848  1.8522
 1838TIP3   OH226928   3.499   2.769   2.140  0.0338  0.4371 -0.0165
 1838TIP3    H126929   3.509   2.727   2.226  1.2671 -1.1943 -0.8959
 1838TIP3    H226930   3.469   2.857   2.160 -1.7867 -0.5328  1.9840
 1839TIP3   OH226931   6.053   1.496   5.085 -0.3951 -0.2794 -0.4075
 1839TIP3    H126932   6.107   1.428   5.128  0.4491  0.5168 -0.1713
 1839TIP3    H226933   5.964   1.476   5.112  0.1207  0.3203  1.9830
 1840TIP3   OH226934   0.555   4.054  15.650 -0.7866 -0.1261 -0.1450
 1840TIP3    H126935   0.624   4.028  15.710 -0.1425  1.0031 -0.3792
 1840TIP3    H226936   0.474   4.025  15.693 -0.3846  1.0723  1.5102
 1841TIP3   OH226937   0.152   3.269   1.155 -0.0710  0.3827 -0.2210
 1841TIP3    H126938   0.221   3.278   1.222 -0.3518  0.0273  0.1199
 1841TIP3    H226939   0.075   3.311   1.193  0.0132  0.9949 -0.7018
 1842TIP3   OH226940   0.459   6.441   4.678 -0.1474  0.4820 -0.0387
 1842TIP3    H126941   0.396   6.502   4.719 -1.0564 -1.6384  1.9596
 1842TIP3    H226942   0.411   6.359   4.671  1.3224 -0.2836 -1.8356
 1843TIP3   OH226943   5.275   2.983  16.647 -0.1547 -0.3044 -0.2884
 1843TIP3    H126944   5.294   2.891  16.630  1.6765 -0.2413  1.0976
 1843TIP3    H226945   5.348   3.031  16.607 -0.8252  0.5165 -0.5653
 1844TIP3   OH226946   1.683   5.499  15.209 -0.4164 -0.4049 -0.2521
 1844TIP3    H126947   1.604   5.544  15.239  0.0219  0.6342 -0.6149
 1844TIP3    H226948   1.699   5.432  15.276 -0.4412  0.7315  0.9330
 1845TIP3   OH226949   1.024   3.768  12.490 -0.3616 -0.1046  0.0356
 1845TIP3    H126950   1.079   3.835  12.450  0.4073 -2.0611 -2.4476
 1845TIP3    H226951   0.935   3.791  12.464 -0.3424  0.9277  0.7986
 1846TIP3   OH226952   1.742   5.143   0.176  0.6659 -0.1175 -0.3680
 1846TIP3    H126953   1.688   5.207   0.224 -1.6095 -1.8847 -0.3910
 1846TIP3    H226954   1.739   5.064   0.230  0.9175 -1.1147 -1.7665
 1847TIP3   OH226955   3.749   3.226  14.534 -0.4469 -0.3680 -0.1278
 1847TIP3    H126956   3.714   3.299  14.482  2.5879  0.0112 -1.9464
 1847TIP3    H226957   3.815   3.267  14.590  0.5602 -1.5544 -0.4063
 1848TIP3   OH226958   0.213   1.975  16.829  0.2344  0.0144 -0.0199
 1848TIP3    H126959   0.137   2.030  16.848  1.5746  1.9050  0.1888
 1848TIP3    H226960   0.210   1.962  16.735  0.3321  1.1990 -0.2046
 1849TIP3   OH226961   2.014   5.761  15.672  0.1931 -0.4340  0.2685
 1849TIP3    H126962   2.027   5.720  15.587 -0.4904  0.7171 -0.4225
 1849TIP3    H226963   2.101   5.764  15.712  0.6261 -0.4387 -0.6555
 1850TIP3   OH226964   3.894   2.677  15.207  0.2501  0.2897 -0.2667
 1850TIP3    H126965   3.910   2.730  15.285  0.8588 -0.6712  0.2857
 1850TIP3    H226966   3.945   2.720  15.138  1.1917  0.1279  0.3040
 1851TIP3   OH226967   6.182   0.950  12.241 -0.0789 -0.5856  0.7347
 1851TIP3    H126968   6.158   1.035  12.204  0.4632 -1.0312 -0.7280
 1851TIP3    H226969   6.110   0.892  12.216  1.4920 -1.5012 -2.0595
 1852TIP3   OH226970   6.460   3.038  16.320 -0.6885  0.4433  0.5124
 1852TIP3    H126971   6.498   3.119  16.287  0.8693  0.4297  2.1494
 1852TIP3    H226972   6.446   2.985  16.241 -0.0883  1.6166 -0.4117
 1853TIP3   OH226973   1.134   3.095   1.679  0.2304  0.0842 -0.1412
 1853TIP3    H126974   1.188   3.023   1.647 -0.2785 -0.5437  0.3846
 1853TIP3    H226975   1.074   3.055   1.742 -0.8560  0.7575 -0.7135
 1854TIP3   OH226976   6.196   3.897  16.770  0.1049 -0.6111  0.6787
 1854TIP3    H126977   6.147   3.973  16.741  0.6927 -1.1829 -2.1935
 1854TIP3    H226978   6.279   3.932  16.802  0.2280 -0.0016 -0.2711
 1855TIP3   OH226979   1.320   4.999  16.183  0.1335 -0.2474 -1.1872
 1855TIP3    H126980   1.323   4.992  16.088 -2.6782 -0.7317 -1.3257
 1855TIP3    H226981   1.285   4.914  16.212 -0.2704  0.3562  0.1753
 1856TIP3   OH226982   2.767   0.078  14.697  0.1241 -0.3234 -0.7143
 1856TIP3    H126983   2.837   0.069  14.761  0.8106 -1.9104 -1.6104
 1856TIP3    H226984   2.801   0.140  14.633  0.3054 -0.3362 -0.6310
 1857TIP3   OH226985   6.547   0.934  10.776  0.1175  0.4281 -0.0127
 1857TIP3    H126986   6.624   0.908  10.725  0.1316  0.4009  0.0227
 1857TIP3    H226987   6.505   0.851  10.799 -0.4894  0.4783 -0.9093
 1858TIP3   OH226988   3.820   3.806  16.752 -0.6233 -0.7442  0.5340
 1858TIP3    H126989   3.766   3.733  16.780  0.1395 -1.7518 -0.5252
 1858TIP3    H226990   3.894   3.766  16.707  1.0122  0.5938  1.9042
 1859TIP3   OH226991   3.230   4.282  15.198 -0.0820  0.7644  0.4786
 1859TIP3    H126992   3.291   4.355  15.189 -0.6115  1.2296  0.6040
 1859TIP3    H226993   3.286   4.205  15.205  0.4958  0.8235 -2.3192
 1860TIP3   OH226994   1.235   4.802   2.669  0.6503 -0.2176 -0.3155
 1860TIP3    H126995   1.148   4.819   2.632  1.6448  2.1102 -1.8651
 1860TIP3    H226996   1.281   4.753   2.600  1.8056  2.2193 -1.4273
 1861TIP3   OH226997   3.639   5.032  11.892  0.0890  0.0613  0.3414
 1861TIP3    H126998   3.551   5.068  11.900  0.6005  1.3021  0.5997
 1861TIP3    H226999   3.652   4.983  11.974 -0.0259  0.6557  0.7243
 1862TIP3   OH227000   0.057   0.875   3.039  0.5275 -0.1331  0.3099
 1862TIP3    H127001   0.114   0.817   2.990 -1.3533 -0.6390 -1.3868
 1862TIP3    H227002  -0.026   0.829   3.044  0.1745  0.6217  2.6232
 1863TIP3   OH227003   2.349   4.428  13.041  0.3539  0.0494  0.4922
 1863TIP3    H127004   2.424   4.443  13.099 -1.1261  2.8461  1.8475
 1863TIP3    H227005   2.353   4.499  12.977 -1.5139  0.6734  1.0282
 1864TIP3   OH227006   2.881   3.830   3.863 -0.2652  0.1606 -0.4478
 1864TIP3    H127007   2.797   3.870   3.843 -0.8318 -0.6915  0.1836
 1864TIP3    H227008   2.894   3.844   3.957 -0.4602 -1.0841 -0.2213
 1865TIP3   OH227009   5.957   1.088   2.791  0.5402 -0.5583  0.3436
 1865TIP3    H127010   6.049   1.079   2.816  1.0511  0.3327 -1.1125
 1865TIP3    H227011   5.909   1.072   2.873  2.0242  0.0309  1.3900
 1866TIP3   OH227012   5.411   4.859   1.497  0.6420  0.5536  0.5562
 1866TIP3    H127013   5.348   4.788   1.484  0.6251  0.5771  0.5074
 1866TIP3    H227014   5.360   4.928   1.540  0.7531  0.3901  0.9524
 1867TIP3   OH227015   6.219   4.579  11.665  0.4777  0.7102 -0.9108
 1867TIP3    H127016   6.168   4.514  11.712  0.4496  0.1169 -1.7328
 1867TIP3    H227017   6.223   4.654  11.724 -0.3685  0.3482 -0.3748
 1868TIP3   OH227018   1.905   3.727   1.130  0.0366  0.7062 -0.1335
 1868TIP3    H127019   1.965   3.662   1.166 -1.5804 -0.7418  0.0526
 1868TIP3    H227020   1.871   3.774   1.206 -1.9391 -1.0883  0.1957
 1869TIP3   OH227021   2.717   3.318   4.470 -0.1029 -0.7446 -0.0212
 1869TIP3    H127022   2.715   3.338   4.376 -0.3661 -1.1488 -0.1001
 1869TIP3    H227023   2.665   3.388   4.510 -0.5331 -0.9379 -0.2414
 1870TIP3   OH227024   4.670   2.356   5.936  0.0911 -0.5680 -0.3551
 1870TIP3    H127025   4.589   2.366   5.885  0.1083 -0.3139 -0.3339
 1870TIP3    H227026   4.686   2.444   5.973  0.9372 -0.3579 -1.1932
 1871TIP3   OH227027   4.094   3.523  15.121 -0.1701  0.1748  0.0659
 1871TIP3    H127028   4.163   3.472  15.162 -0.8815 -1.0384 -0.2087
 1871TIP3    H227029   4.068   3.587  15.189 -1.3687 -1.8206  1.5925
 1872TIP3   OH227030   4.288   1.695   6.140  0.3080 -0.0002  0.0565
 1872TIP3    H127031   4.259   1.610   6.106  2.1472 -1.1346  1.1207
 1872TIP3    H227032   4.239   1.707   6.221  0.4859 -0.3447  0.2158
 1873TIP3   OH227033   0.938   2.917   6.163 -0.1532  0.3964 -0.8307
 1873TIP3    H127034   0.880   2.990   6.181  0.3432  0.7973 -0.8134
 1873TIP3    H227035   0.931   2.903   6.068  0.5270  1.1517 -1.0052
 1874TIP3   OH227036   2.280   1.172  15.489  0.7172 -0.4579  0.1126
 1874TIP3    H127037   2.252   1.254  15.530  0.7954 -0.6092  0.4759
 1874TIP3    H227038   2.265   1.106  15.557 -1.1229 -1.0360 -0.8197
 1875TIP3   OH227039   3.052   2.877  13.237  0.1177  0.1268 -0.2277
 1875TIP3    H127040   3.056   2.842  13.148  0.4617 -0.4214 -0.0041
 1875TIP3    H227041   3.142   2.900  13.258  0.0555  0.1490  0.0190
 1876TIP3   OH227042   1.983   4.196   3.652  0.5012  0.3552  0.2905
 1876TIP3    H127043   1.961   4.289   3.663  2.0342  1.0201 -1.6126
 1876TIP3    H227044   2.050   4.180   3.718 -0.2351  0.4005  1.0641
 1877TIP3   OH227045   6.318   3.832   1.755 -0.0441  0.2294  0.7504
 1877TIP3    H127046   6.256   3.789   1.696  0.4476 -1.7481  1.6017
 1877TIP3    H227047   6.265   3.900   1.798 -1.6824 -1.3847  1.4382
 1878TIP3   OH227048   1.634   6.390   2.864  0.6079 -0.0617 -0.1592
 1878TIP3    H127049   1.555   6.364   2.818  0.4476 -0.0265  0.0931
 1878TIP3    H227050   1.700   6.400   2.795  0.3966 -0.1001 -0.3682
 1879TIP3   OH227051   2.012   3.517  17.274 -0.1875  0.1450 -0.1454
 1879TIP3    H127052   1.977   3.557  17.353 -0.9883  1.5567 -1.1695
 1879TIP3    H227053   2.015   3.423  17.294  0.2828  0.5288  1.7667
 1880TIP3   OH227054   0.364   3.224  12.262  0.2833  0.4400  0.4165
 1880TIP3    H127055   0.317   3.201  12.342 -0.2188 -1.5185 -0.3739
 1880TIP3    H227056   0.296   3.261  12.204  0.6186  1.7269  0.8134
 1881TIP3   OH227057   5.261   0.437   6.781  0.3483 -0.0196 -0.0226
 1881TIP3    H127058   5.198   0.393   6.725  0.8293 -0.7435 -0.0106
 1881TIP3    H227059   5.335   0.377   6.786  0.4052  0.1272  1.2042
 1882TIP3   OH227060   0.879   0.140  15.111  0.3219  0.8786  0.1745
 1882TIP3    H127061   0.897   0.200  15.039  1.1109 -0.2485 -0.6057
 1882TIP3    H227062   0.877   0.195  15.189  1.9540  1.8004 -0.3909
 1883TIP3   OH227063   3.232   6.149  13.041 -0.5133 -0.1738  1.3333
 1883TIP3    H127064   3.309   6.201  13.065 -2.1137  2.6642  0.7030
 1883TIP3    H227065   3.175   6.154  13.117 -0.5307 -1.4245  1.4229
 1884TIP3   OH227066   4.371   3.664   1.790  0.0838 -0.3466 -0.1301
 1884TIP3    H127067   4.320   3.742   1.766  0.1845 -0.2416 -0.0096
 1884TIP3    H227068   4.341   3.642   1.878  0.5499 -0.0241  0.1184
 1885TIP3   OH227069   3.843   4.269   1.405 -0.4452  0.1272  0.8068
 1885TIP3    H127070   3.881   4.276   1.492  0.9056 -1.0455  0.3530
 1885TIP3    H227071   3.758   4.228   1.419 -0.1409 -0.2639  1.5687
 1886TIP3   OH227072   5.624   4.000  15.657  0.3593 -0.1096 -0.9258
 1886TIP3    H127073   5.608   4.073  15.597 -1.2727 -0.9680 -1.6080
 1886TIP3    H227074   5.554   3.937  15.637  0.1617 -0.7325  1.4079
 1887TIP3   OH227075   0.343   5.525  12.885  0.2194 -0.1848 -0.4805
 1887TIP3    H127076   0.253   5.497  12.869  0.3724  0.3902 -2.6031
 1887TIP3    H227077   0.385   5.523  12.799  1.6593  1.5775  0.1149
 1888TIP3   OH227078   3.104   1.922  12.782  0.4588 -0.1202  0.0344
 1888TIP3    H127079   3.033   1.877  12.735  0.8408 -0.4943 -0.1935
 1888TIP3    H227080   3.145   1.978  12.715  1.5299 -1.2732 -0.3118
 1889TIP3   OH227081   4.565   2.805  13.167  0.4344  0.2814 -0.0040
 1889TIP3    H127082   4.551   2.718  13.204  0.9368 -0.0804 -0.6403
 1889TIP3    H227083   4.660   2.809  13.153  0.5632  1.3514  1.0355
 1890TIP3   OH227084   3.258   1.475  14.154 -0.0812  0.6470 -0.3663
 1890TIP3    H127085   3.230   1.412  14.087 -1.1588  0.0462  0.6082
 1890TIP3    H227086   3.261   1.424  14.235  0.7437  1.4634  0.1335
 1891TIP3   OH227087   4.571   4.010   5.010  0.3503 -0.2708 -0.2829
 1891TIP3    H127088   4.608   3.924   4.995 -0.4521 -0.9343  1.3261
 1891TIP3    H227089   4.574   4.022   5.105 -3.5306 -0.4343  0.0438
 1892TIP3   OH227090   2.836   5.552   3.025  0.2031 -0.3599 -0.5150
 1892TIP3    H127091   2.901   5.543   2.955  0.0356  2.7771 -1.2183
 1892TIP3    H227092   2.885   5.586   3.099 -0.0806 -1.2033  0.0724
 1893TIP3   OH227093   4.485   1.225   0.976  0.5298 -0.1189  0.6127
 1893TIP3    H127094   4.553   1.286   0.947  0.9104 -0.2460  1.2249
 1893TIP3    H227095   4.423   1.222   0.902  0.8201  0.5324  0.3296
 1894TIP3   OH227096   1.013   3.691   2.309  0.1934 -0.5963  0.5668
 1894TIP3    H127097   1.063   3.610   2.324  2.7020  0.6637 -0.3989
 1894TIP3    H227098   1.043   3.750   2.378 -0.0244  0.1862 -0.0012
 1895TIP3   OH227099   6.019   5.138  14.842 -0.4136 -0.0569  0.3724
 1895TIP3    H127100   6.099   5.148  14.791 -0.5152 -0.3036  0.1653
 1895TIP3    H227101   5.951   5.182  14.790  0.0181  2.3378  1.6697
 1896TIP3   OH227102   4.625   2.368   3.732 -0.0413 -0.0767  0.0535
 1896TIP3    H127103   4.701   2.368   3.674 -0.3422 -0.2667 -0.3457
 1896TIP3    H227104   4.638   2.294   3.791  0.8658  0.8204  1.0430
 1897TIP3   OH227105   6.236   0.397   3.804  0.0303  0.1047 -0.0213
 1897TIP3    H127106   6.262   0.330   3.867 -0.4390 -1.4083 -1.3834
 1897TIP3    H227107   6.154   0.364   3.766  0.1146  1.1390 -1.1650
 1898TIP3   OH227108   2.984   5.855  16.797  0.3003 -0.3276  0.5560
 1898TIP3    H127109   3.027   5.936  16.821  1.4583 -0.8603  0.3420
 1898TIP3    H227110   3.055   5.795  16.775 -0.4299 -1.9036  2.2035
 1899TIP3   OH227111   6.320   0.492  11.742  0.0037 -0.1858  0.2039
 1899TIP3    H127112   6.257   0.420  11.740  0.3010 -0.4212 -1.1573
 1899TIP3    H227113   6.403   0.453  11.715 -0.1628  0.9636 -2.1457
 1900TIP3   OH227114   0.321   5.616  14.896  0.4085  0.4177 -0.6925
 1900TIP3    H127115   0.279   5.531  14.906 -0.5945  0.9537 -0.1132
 1900TIP3    H227116   0.284   5.669  14.967  1.9818  0.9709 -0.2388
 1901TIP3   OH227117   1.328   5.515  14.853 -0.5970  0.2634  0.2031
 1901TIP3    H127118   1.251   5.570  14.838 -0.8538 -0.0323  0.4150
 1901TIP3    H227119   1.306   5.432  14.810 -0.7399 -0.0992  0.9540
 1902TIP3   OH227120   0.560   1.513  16.273 -0.7070  0.0640 -0.5778
 1902TIP3    H127121   0.566   1.532  16.367  0.0928 -0.3466 -0.5384
 1902TIP3    H227122   0.480   1.557  16.245  0.8953  3.3107 -0.4503
 1903TIP3   OH227123   0.076   1.966  14.216  0.3576  0.3002  0.4169
 1903TIP3    H127124  -0.013   1.990  14.242 -0.7175 -2.7264  0.0244
 1903TIP3    H227125   0.096   2.023  14.142 -0.9833  1.4961  0.9292
 1904TIP3   OH227126   1.690   5.828   0.655 -0.2185  0.4753 -0.0889
 1904TIP3    H127127   1.748   5.898   0.684 -1.6332  1.5755  0.2156
 1904TIP3    H227128   1.686   5.767   0.728 -0.8710  1.3441  0.6244
 1905TIP3   OH227129   2.374   4.572  12.246 -0.2444 -0.0235  0.4163
 1905TIP3    H127130   2.398   4.500  12.187  0.9366  0.7324 -0.0670
 1905TIP3    H227131   2.450   4.582  12.303 -0.4942  0.6838  0.6311
 1906TIP3   OH227132   0.321   4.179   2.752  0.2034 -0.2696 -0.4016
 1906TIP3    H127133   0.329   4.260   2.802  1.1578 -0.2007 -0.6622
 1906TIP3    H227134   0.262   4.201   2.680 -0.2363 -0.0515  0.0185
 1907TIP3   OH227135   1.011   4.028  12.279  0.4474  0.5126  0.4765
 1907TIP3    H127136   0.917   4.043  12.270  0.7790  1.6496 -1.8850
 1907TIP3    H227137   1.046   4.039  12.191  2.7231 -0.6821  1.1301
 1908TIP3   OH227138   2.547   3.937  14.606  0.1106  0.5389  0.5138
 1908TIP3    H127139   2.489   3.974  14.540 -1.6817  1.6375  2.5451
 1908TIP3    H227140   2.495   3.871  14.650  1.8283 -1.3800 -0.1827
 1909TIP3   OH227141   3.621   2.355  15.251 -0.7116  0.3963 -0.7609
 1909TIP3    H127142   3.707   2.377  15.287 -0.5320 -2.1236  0.5558
 1909TIP3    H227143   3.599   2.430  15.195  0.4567  3.0813  2.0569
 1910TIP3   OH227144   6.407   3.854   0.036  0.1957 -0.2276  0.3857
 1910TIP3    H127145   6.397   3.917   0.108  1.6077 -0.0515  0.4555
 1910TIP3    H227146   6.356   3.892  -0.036  1.0264  1.0060  0.4267
 1911TIP3   OH227147   0.187   6.230  15.277  0.0214 -0.0328 -0.1351
 1911TIP3    H127148   0.125   6.211  15.208  0.6037 -0.4526 -0.5573
 1911TIP3    H227149   0.135   6.270  15.347 -0.6002  0.2188 -0.7354
 1912TIP3   OH227150   5.547   1.598  14.526  0.1363  0.1489  0.4181
 1912TIP3    H127151   5.615   1.538  14.554 -0.1877 -0.8071 -0.7771
 1912TIP3    H227152   5.466   1.548  14.531  0.0809 -0.2289 -2.4223
 1913TIP3   OH227153   6.673   6.543   4.671  0.0582 -0.3825  0.2144
 1913TIP3    H127154   6.649   6.616   4.729 -0.7654 -1.2268  0.9591
 1913TIP3    H227155   6.590   6.517   4.630  0.1379 -1.6233  0.8020
 1914TIP3   OH227156   0.307   1.689   0.918 -0.0246 -0.0474  0.3073
 1914TIP3    H127157   0.298   1.710   1.011 -0.0297 -2.0995  0.8232
 1914TIP3    H227158   0.268   1.763   0.872 -1.0287  0.5056  1.9739
 1915TIP3   OH227159   4.044   4.671   1.909 -0.0996  0.4444  0.0667
 1915TIP3    H127160   4.040   4.759   1.872  1.9233  0.2328 -0.8031
 1915TIP3    H227161   4.123   4.671   1.963  1.2765 -1.4121 -1.7411
 1916TIP3   OH227162   5.708   1.585  17.122 -0.1677 -0.1032  0.6908
 1916TIP3    H127163   5.634   1.529  17.145 -1.0451  1.0921  0.8411
 1916TIP3    H227164   5.679   1.673  17.143 -0.1603  0.8445 -2.7420
 1917TIP3   OH227165   0.301   3.139   0.725  0.4563 -0.7011 -0.0381
 1917TIP3    H127166   0.394   3.156   0.743  0.0055 -1.5096  4.0811
 1917TIP3    H227167   0.278   3.067   0.784 -2.4854 -1.5818 -2.0407
 1918TIP3   OH227168   5.630   3.324   0.092  0.5082 -0.0524  0.2325
 1918TIP3    H127169   5.596   3.345   0.179 -1.5087 -3.0658  0.3240
 1918TIP3    H227170   5.552   3.309   0.039  1.7147  0.6239 -1.8608
 1919TIP3   OH227171   5.788   1.812   1.052  0.9171  0.3873 -0.2613
 1919TIP3    H127172   5.714   1.765   1.014  0.5523  1.0534 -0.3960
 1919TIP3    H227173   5.859   1.747   1.056 -0.1608 -0.7611  1.4736
 1920TIP3   OH227174   1.810   4.986  16.847  0.7770  0.0914 -0.0599
 1920TIP3    H127175   1.745   4.956  16.911  0.4491 -0.5262 -0.6707
 1920TIP3    H227176   1.834   4.907  16.799  1.8014  0.3604 -0.0128
 1921TIP3   OH227177   1.564   6.391   2.265 -0.0202 -0.0023 -0.2253
 1921TIP3    H127178   1.500   6.346   2.320  1.8445  0.7947  2.8511
 1921TIP3    H227179   1.647   6.346   2.284  0.7363  0.2697 -2.5579
 1922TIP3   OH227180   2.931   2.547   5.957 -0.2667 -0.0873 -0.3821
 1922TIP3    H127181   2.902   2.546   5.866 -0.6040  1.6076 -0.3087
 1922TIP3    H227182   2.935   2.454   5.981  0.2614 -0.5974 -2.2424
 1923TIP3   OH227183   3.961   4.418  15.783 -0.4475  0.1020 -0.1458
 1923TIP3    H127184   3.904   4.477  15.735  2.2991  2.2049 -1.0718
 1923TIP3    H227185   3.956   4.449  15.874  0.6362  1.5945 -0.5508
 1924TIP3   OH227186   0.571   6.027   0.877 -0.0612  0.0982  0.0434
 1924TIP3    H127187   0.583   6.039   0.783  2.0274  1.7242  0.4593
 1924TIP3    H227188   0.570   6.115   0.913  0.9605 -0.5165  1.7072
 1925TIP3   OH227189   0.112   4.461   4.128  0.0018 -0.1111  0.2972
 1925TIP3    H127190   0.127   4.396   4.196 -0.7178 -0.9821 -0.3549
 1925TIP3    H227191   0.176   4.530   4.146 -1.0473  0.3401  2.6478
 1926TIP3   OH227192   2.302   6.625   0.358 -0.4606  0.1112  0.6391
 1926TIP3    H127193   2.211   6.656   0.357 -0.3296  0.5121 -0.5025
 1926TIP3    H227194   2.295   6.529   0.362 -0.8902  0.1859  2.5223
 1927TIP3   OH227195   6.186   4.401   5.331  0.1752  0.1506  0.0179
 1927TIP3    H127196   6.235   4.482   5.316  0.2158  0.4134  1.4592
 1927TIP3    H227197   6.134   4.389   5.251  0.2821  1.5098 -0.2778
 1928TIP3   OH227198   0.094   4.170   2.052  0.0097 -0.3068 -0.4348
 1928TIP3    H127199   0.137   4.090   2.083  3.3758  1.4217 -0.1901
 1928TIP3    H227200   0.166   4.227   2.025 -2.1272  3.1609  0.5413
 1929TIP3   OH227201   2.130   5.484  13.964 -0.0393 -0.1426 -0.3832
 1929TIP3    H127202   2.097   5.397  13.942  0.4791 -1.1443  2.3775
 1929TIP3    H227203   2.059   5.526  14.012  0.0991  0.5632 -0.7747
 1930TIP3   OH227204   2.626   0.806   5.357  0.0225  0.7479  1.0593
 1930TIP3    H127205   2.692   0.857   5.404 -0.5214  0.9855  1.5780
 1930TIP3    H227206   2.672   0.727   5.329  0.4267  0.7183  1.7776
 1931TIP3   OH227207   6.497   1.654  15.479 -0.0947 -0.5799  0.0428
 1931TIP3    H127208   6.481   1.644  15.385  0.7954 -0.3402 -0.1408
 1931TIP3    H227209   6.513   1.564  15.510  1.3474 -0.4951 -0.3773
 1932TIP3   OH227210   1.759   3.498   4.321 -0.1347  0.4457 -0.7612
 1932TIP3    H127211   1.708   3.578   4.323  0.9266  1.1397 -0.8854
 1932TIP3    H227212   1.699   3.433   4.282 -0.6773  1.4039 -1.5760
 1933TIP3   OH227213   4.874   5.835   2.829 -0.7940  0.2836 -0.0969
 1933TIP3    H127214   4.861   5.754   2.879  0.8716  0.2571  0.3798
 1933TIP3    H227215   4.834   5.903   2.882  1.2762  0.3123  1.5537
 1934TIP3   OH227216   0.573   4.257  14.303  0.0845 -0.5476 -0.1149
 1934TIP3    H127217   0.511   4.195  14.265 -0.6221 -0.8799  1.5039
 1934TIP3    H227218   0.641   4.202  14.342  0.7272 -0.2231 -0.7623
 1935TIP3   OH227219   1.504   0.116   4.300  0.3820  0.3650  0.4154
 1935TIP3    H127220   1.422   0.073   4.276  1.0317 -0.7091  0.0484
 1935TIP3    H227221   1.571   0.068   4.251  1.2577  1.0544  0.9195
 1936TIP3   OH227222   1.854   3.576  15.928 -0.2731 -0.1685 -0.3544
 1936TIP3    H127223   1.836   3.594  15.835 -1.0745  0.9142 -0.0130
 1936TIP3    H227224   1.912   3.648  15.954  0.0961 -0.5759 -0.0643
 1937TIP3   OH227225   6.077   6.193   0.106 -0.0961 -0.2075 -0.3517
 1937TIP3    H127226   6.096   6.252   0.179  1.1858 -1.3652  0.2774
 1937TIP3    H227227   6.161   6.154   0.083 -1.0426 -2.5034 -0.1243
 1938TIP3   OH227228   0.955   0.586   1.626  0.6847  0.1886 -0.4403
 1938TIP3    H127229   0.995   0.533   1.696 -0.2061  0.7361  0.5235
 1938TIP3    H227230   0.959   0.676   1.658 -0.8740  0.3127 -0.4949
 1939TIP3   OH227231   0.903   5.753   1.683  0.2365 -0.0895  0.0838
 1939TIP3    H127232   0.936   5.827   1.633  0.6714  0.4494  1.1362
 1939TIP3    H227233   0.981   5.716   1.725 -0.2371  0.1212  1.1936
 1940TIP3   OH227234   5.311   4.997  13.037  0.1728 -0.3446  0.3805
 1940TIP3    H127235   5.270   5.074  12.998  0.8327 -0.6208 -0.9313
 1940TIP3    H227236   5.405   5.010  13.024  0.3417 -0.9832  0.8795
 1941TIP3   OH227237   0.983   4.661   4.625 -0.0774 -0.2064  0.0230
 1941TIP3    H127238   1.017   4.750   4.628 -0.3773 -0.1113  1.0727
 1941TIP3    H227239   0.889   4.672   4.612 -0.3895 -0.2678  1.8728
 1942TIP3   OH227240   1.844   3.579  13.651 -0.0265 -0.1664 -0.0777
 1942TIP3    H127241   1.790   3.569  13.573 -1.1805 -2.0818  0.8812
 1942TIP3    H227242   1.857   3.674  13.660 -0.5274  0.1361 -2.1094
 1943TIP3   OH227243   5.195   3.278  13.132  0.5197 -0.0018 -0.3591
 1943TIP3    H127244   5.193   3.331  13.212 -0.5617  1.6001 -1.3755
 1943TIP3    H227245   5.279   3.232  13.135  0.3978 -0.1832  1.7939
 1944TIP3   OH227246   4.422   6.299  14.142 -0.6997  0.9979 -0.4774
 1944TIP3    H127247   4.391   6.387  14.163  0.7109  1.5267 -0.4891
 1944TIP3    H227248   4.515   6.311  14.121 -0.4557 -0.5061 -0.3583
 1945TIP3   OH227249   4.779   0.279  16.807  0.0280  0.4508  0.1403
 1945TIP3    H127250   4.809   0.252  16.721  1.3682 -1.3590  1.0929
 1945TIP3    H227251   4.860   0.291  16.858 -0.7184  1.5536  1.1423
 1946TIP3   OH227252   4.942   1.133   1.046  0.0642  0.2271 -0.2334
 1946TIP3    H127253   4.869   1.075   1.024 -1.1973  1.1316  1.3145
 1946TIP3    H227254   4.982   1.092   1.123 -0.6224  1.1757  0.6594
 1947TIP3   OH227255   0.589   1.187   0.207  0.5005  0.6502  0.2426
 1947TIP3    H127256   0.572   1.217   0.296 -0.3015  0.5897  0.1091
 1947TIP3    H227257   0.504   1.184   0.165  0.9858  1.8131 -0.8980
 1948TIP3   OH227258   1.719   5.058  17.507  0.0256 -0.3486 -0.4853
 1948TIP3    H127259   1.733   5.067  17.602 -1.7803 -2.4136  0.0765
 1948TIP3    H227260   1.688   5.144  17.479 -0.6510 -0.0386  1.0890
 1949TIP3   OH227261   6.654   2.947  13.525  0.1424  0.2799  0.0561
 1949TIP3    H127262   6.631   2.864  13.483  1.8981  0.8118 -2.1171
 1949TIP3    H227263   6.662   3.009  13.453  3.3625  1.2621  1.1177
 1950TIP3   OH227264   0.389   2.486   3.998 -0.3073 -0.5212  0.4573
 1950TIP3    H127265   0.305   2.518   3.964  0.0237  0.0015  0.1260
 1950TIP3    H227266   0.453   2.513   3.933 -0.0716 -2.3898 -0.1343
 1951TIP3   OH227267   1.343   5.636   0.950 -0.2087  0.0930 -0.5562
 1951TIP3    H127268   1.430   5.668   0.972 -0.7179  0.9708  0.2701
 1951TIP3    H227269   1.358   5.569   0.884  1.0146  0.8681 -1.0959
 1952TIP3   OH227270   6.267   2.320   1.130 -0.1601  0.1752  0.1819
 1952TIP3    H127271   6.180   2.317   1.171 -0.3959  0.7581 -0.2612
 1952TIP3    H227272   6.249   2.336   1.037  0.4514  1.7844  0.3088
 1953TIP3   OH227273   2.699   6.179  16.258  0.5119 -0.7505  0.0290
 1953TIP3    H127274   2.614   6.190  16.216  0.8788 -0.1750 -0.5903
 1953TIP3    H227275   2.761   6.172  16.185  1.3244  1.5281  0.4160
 1954TIP3   OH227276   5.978   5.509   4.502 -0.0440 -0.0065 -0.0465
 1954TIP3    H127277   5.986   5.427   4.452 -1.9859  0.0787 -0.5563
 1954TIP3    H227278   6.045   5.566   4.465  1.7912 -1.5468  0.7527
 1955TIP3   OH227279   3.584   2.203  11.005  0.3798 -0.2229 -0.2356
 1955TIP3    H127280   3.656   2.142  10.986  0.2880 -0.4290  0.0661
 1955TIP3    H227281   3.589   2.268  10.935  1.1135 -0.0062  0.0100
 1956TIP3   OH227282   3.723   0.242  11.912 -0.0101  0.3888  0.4889
 1956TIP3    H127283   3.739   0.240  12.006 -0.7536  1.1754  0.6515
 1956TIP3    H227284   3.668   0.166  11.895  1.7061 -0.8809  0.3420
 1957TIP3   OH227285   5.380   2.090  13.062  0.3078 -0.2661  0.1293
 1957TIP3    H127286   5.373   2.167  13.005 -0.7384 -0.4677 -0.0307
 1957TIP3    H227287   5.450   2.038  13.023  0.1569 -0.0109 -0.5044
 1958TIP3   OH227288   6.143   5.932  14.550  0.2806  0.4164  0.1453
 1958TIP3    H127289   6.080   6.001  14.571  0.8709  1.0013  0.0052
 1958TIP3    H227290   6.178   5.956  14.465  2.1044  1.1461  1.0649
 1959TIP3   OH227291   6.246   2.657  16.188 -0.5211 -0.9776 -0.0362
 1959TIP3    H127292   6.234   2.571  16.229  1.4546  0.0194  2.9752
 1959TIP3    H227293   6.184   2.714  16.232  0.0944 -0.3222 -0.0016
 1960TIP3   OH227294   4.538   1.952  16.124  0.5252 -0.1685  0.5950
 1960TIP3    H127295   4.631   1.940  16.106  0.4115  0.9591 -0.9112
 1960TIP3    H227296   4.512   2.028  16.071 -1.5543 -1.2777 -0.1035
 1961TIP3   OH227297   5.415   6.024  17.359  0.7029 -0.1422 -0.6688
 1961TIP3    H127298   5.462   6.067  17.431  0.2152  0.3979 -0.6599
 1961TIP3    H227299   5.345   6.085  17.337  0.6309 -0.4653 -1.3718
 1962TIP3   OH227300   5.935   5.587   3.511  0.1928 -0.2224 -0.1268
 1962TIP3    H127301   5.920   5.665   3.458 -1.9443  0.4493  1.3390
 1962TIP3    H227302   5.952   5.518   3.447  4.0652  1.6249 -1.4565
 1963TIP3   OH227303   5.759   0.677  14.616 -0.1052 -0.0823 -0.5782
 1963TIP3    H127304   5.850   0.682  14.645 -0.5572 -0.5380  0.9732
 1963TIP3    H227305   5.753   0.743  14.547  1.0570  0.9038  0.2236
 1964TIP3   OH227306   0.116   4.838   1.924 -0.5686 -0.3952  0.4472
 1964TIP3    H127307   0.047   4.875   1.870  0.5190 -3.2356 -3.3687
 1964TIP3    H227308   0.082   4.753   1.953  0.6504 -1.1303 -0.1579
 1965TIP3   OH227309   3.878   1.299   3.835 -0.3639  0.0903 -0.9329
 1965TIP3    H127310   3.812   1.352   3.791 -0.6529 -1.3099 -2.2570
 1965TIP3    H227311   3.934   1.266   3.765  0.1050 -0.9545 -0.0966
 1966TIP3   OH227312   6.192   2.739  12.983  0.0363 -0.0471  0.0045
 1966TIP3    H127313   6.156   2.653  12.963  0.3943 -0.0484 -0.6685
 1966TIP3    H227314   6.127   2.800  12.948 -0.1782 -0.0452  0.4080
 1967TIP3   OH227315   4.970   4.174  16.695  0.1803 -0.4960  0.2394
 1967TIP3    H127316   4.900   4.239  16.688  0.3157 -0.4625 -1.0455
 1967TIP3    H227317   4.925   4.090  16.704  0.0052 -0.2851  1.5278
 1968TIP3   OH227318   0.637   4.594  15.809 -0.0441 -0.6259 -0.2665
 1968TIP3    H127319   0.620   4.687  15.790  1.1648 -0.6325 -1.4979
 1968TIP3    H227320   0.554   4.551  15.789 -0.3941  0.0917 -0.4172
 1969TIP3   OH227321   4.132   3.192   0.793  0.4458 -0.3360 -0.1092
 1969TIP3    H127322   4.103   3.113   0.748 -0.4557  0.0715 -0.2509
 1969TIP3    H227323   4.057   3.251   0.791  0.6350 -0.0021  1.2435
 1970TIP3   OH227324   1.560   6.490  16.717  0.7988  0.3379 -0.6307
 1970TIP3    H127325   1.517   6.547  16.780  1.4088  0.1258 -0.0184
 1970TIP3    H227326   1.495   6.421  16.700  0.2822  0.8903 -0.9462
 1971TIP3   OH227327   6.374   0.970   1.462  0.5558 -0.6406  0.1478
 1971TIP3    H127328   6.445   0.944   1.403  0.7657  0.0853  0.0749
 1971TIP3    H227329   6.403   0.942   1.548  0.3490 -1.5057 -0.0529
 1972TIP3   OH227330   4.464   5.540   5.384  0.1723  0.1315  0.5477
 1972TIP3    H127331   4.439   5.623   5.343 -0.8620 -0.3833  0.0926
 1972TIP3    H227332   4.560   5.545   5.391  0.0725  1.7313  1.3713
 1973TIP3   OH227333   3.774   2.438   0.896 -0.2725  0.0591  0.3243
 1973TIP3    H127334   3.855   2.408   0.939  0.0812  1.8070  0.9660
 1973TIP3    H227335   3.800   2.452   0.805 -0.1661 -0.4989  0.2624
 1974TIP3   OH227336   6.446   0.132   4.545 -0.0233 -0.3343 -0.1849
 1974TIP3    H127337   6.509   0.077   4.498  0.3223  0.7286 -0.9928
 1974TIP3    H227338   6.420   0.198   4.482 -0.6369  0.2823  0.6942
 1975TIP3   OH227339   1.368   5.998  12.615 -0.3238  0.6910  0.3606
 1975TIP3    H127340   1.302   6.049  12.569  0.4453  0.2504 -1.3219
 1975TIP3    H227341   1.451   6.037  12.589  0.4430 -2.4247 -2.5537
 1976TIP3   OH227342   0.129   2.287  14.188 -0.1436  0.4681  0.5158
 1976TIP3    H127343   0.123   2.264  14.095  0.9718 -0.4325  0.6523
 1976TIP3    H227344   0.175   2.372  14.188  2.1212 -0.6794  0.3150
 1977TIP3   OH227345   4.863   6.287   2.071  0.4976 -0.0729  0.0527
 1977TIP3    H127346   4.816   6.282   2.154  1.0735 -1.4267  0.3265
 1977TIP3    H227347   4.826   6.215   2.018  2.1468 -1.1194  0.2460
 1978TIP3   OH227348   1.768   1.016  12.263 -0.0584  0.1234  0.2148
 1978TIP3    H127349   1.771   1.056  12.350  0.9662 -0.7273  0.5979
 1978TIP3    H227350   1.786   1.088  12.202  0.1293  0.5539  0.7705
 1979TIP3   OH227351   4.822   4.784  12.023  0.0365 -0.1772  0.0593
 1979TIP3    H127352   4.835   4.830  11.941 -0.3805 -0.5919 -0.2403
 1979TIP3    H227353   4.883   4.710  12.020 -0.7067 -0.7845 -0.3318
 1980TIP3   OH227354   1.698   1.414   0.511  0.7616 -0.1146  0.0989
 1980TIP3    H127355   1.700   1.321   0.534  2.7872 -0.0063  0.5824
 1980TIP3    H227356   1.781   1.429   0.466  0.7841  1.6108  0.6466
 1981TIP3   OH227357   3.018   1.285  14.094 -0.1694 -0.3853  0.3187
 1981TIP3    H127358   2.966   1.332  14.158  0.0806 -1.8308  1.6514
 1981TIP3    H227359   3.048   1.207  14.141  1.5720 -0.5615 -0.9940
 1982TIP3   OH227360   0.349   3.386  11.684 -0.0371  0.3797 -0.0520
 1982TIP3    H127361   0.431   3.432  11.699 -0.2316  0.2655  1.4973
 1982TIP3    H227362   0.341   3.327  11.759 -0.8037 -0.6925 -0.9486
 1983TIP3   OH227363   6.502   4.639  13.404  0.4542  0.1277 -0.4088
 1983TIP3    H127364   6.583   4.588  13.402 -0.2400 -0.9971 -0.9361
 1983TIP3    H227365   6.453   4.604  13.478 -0.4134 -0.6186 -1.3070
 1984TIP3   OH227366   3.585   2.677   3.820  0.1278 -0.2223 -0.1569
 1984TIP3    H127367   3.575   2.743   3.751 -1.5017  1.0331  1.1849
 1984TIP3    H227368   3.674   2.688   3.852  0.4427  0.1225 -1.1141
 1985TIP3   OH227369   4.368   1.439   5.083  0.2525  0.1855  0.1040
 1985TIP3    H127370   4.362   1.524   5.039  1.1249  0.0909 -0.2183
 1985TIP3    H227371   4.278   1.418   5.107 -0.2605  0.2372 -1.6555
 1986TIP3   OH227372   6.493   3.515   1.169  0.1559 -0.1212 -0.3851
 1986TIP3    H127373   6.414   3.522   1.223  1.2586  1.1256  1.1517
 1986TIP3    H227374   6.460   3.501   1.080 -1.7197 -2.7242  0.6121
 1987TIP3   OH227375   0.741   6.029   3.556  0.1092  0.0583 -0.1312
 1987TIP3    H127376   0.757   6.038   3.462  1.1075  1.3158  0.1240
 1987TIP3    H227377   0.683   6.102   3.577  0.8340  0.4893  0.4197
 1988TIP3   OH227378   1.000   0.842   3.254 -0.0311  0.0319  0.1283
 1988TIP3    H127379   0.912   0.843   3.217 -0.3458 -2.4433  0.6361
 1988TIP3    H227380   1.052   0.897   3.195 -1.3374 -0.6350 -1.7297
 1989TIP3   OH227381   1.728   1.236  15.330 -0.1889  0.4590 -0.3696
 1989TIP3    H127382   1.727   1.140  15.330 -2.5658  0.4070  0.8943
 1989TIP3    H227383   1.815   1.259  15.364  1.3305 -1.1407 -2.8454
 1990TIP3   OH227384   6.002   5.627   4.797  0.5958 -0.1426 -0.0734
 1990TIP3    H127385   5.960   5.542   4.790  2.2391 -0.9024 -1.8757
 1990TIP3    H227386   5.956   5.682   4.733 -0.0040  0.1201  0.5792
 1991TIP3   OH227387   0.676   6.364   3.402 -0.1176  0.3502  0.2379
 1991TIP3    H127388   0.625   6.440   3.374 -0.6415  0.3822  1.2101
 1991TIP3    H227389   0.724   6.336   3.324 -1.4014  0.5022 -0.6235
 1992TIP3   OH227390   3.131   2.754  11.418 -0.5044 -0.0584 -0.0568
 1992TIP3    H127391   3.107   2.717  11.333 -0.1626 -1.4128  0.4012
 1992TIP3    H227392   3.071   2.712  11.480 -1.0595  1.2667  0.3294
 1993TIP3   OH227393   6.093   5.944  16.682 -0.1310  0.4411  0.0740
 1993TIP3    H127394   6.056   5.937  16.770  0.0275 -0.3508  0.0851
 1993TIP3    H227395   6.017   5.953  16.624 -0.4098 -1.5510  0.0589
 1994TIP3   OH227396   3.275   3.217   6.597  0.1501 -0.3349  0.0037
 1994TIP3    H127397   3.242   3.131   6.570 -0.3908  0.1536 -0.9691
 1994TIP3    H227398   3.311   3.203   6.684  0.7058 -1.6997 -0.4145
 1995TIP3   OH227399   4.855   2.245   1.420 -0.5048  0.0118 -0.1718
 1995TIP3    H127400   4.772   2.288   1.442 -0.8400 -0.8609  0.3640
 1995TIP3    H227401   4.829   2.155   1.398  0.2713 -0.1844 -0.3053
 1996TIP3   OH227402   0.116   2.652   0.664 -0.4987  0.1956  0.3987
 1996TIP3    H127403   0.036   2.628   0.618 -1.2247  0.7804  1.3157
 1996TIP3    H227404   0.100   2.742   0.693  0.6085  0.4162  0.3566
 1997TIP3   OH227405   2.412   4.581  13.461 -0.3249  0.1508  0.5847
 1997TIP3    H127406   2.435   4.591  13.369 -0.8157 -1.6814  0.2227
 1997TIP3    H227407   2.462   4.505  13.490  0.8798  1.4880  2.2410
 1998TIP3   OH227408   4.871   1.705  13.956  0.4480  0.0178 -0.3703
 1998TIP3    H127409   4.863   1.719  13.861 -2.7720 -0.2638 -0.2646
 1998TIP3    H227410   4.811   1.632  13.974 -0.9105  1.6239  2.1568
 1999TIP3   OH227411   2.969   3.015   3.281 -0.4020 -0.7578  0.7298
 1999TIP3    H127412   2.937   2.928   3.307 -0.3215 -0.1931  2.9934
 1999TIP3    H227413   2.896   3.054   3.232 -0.4901 -2.0291 -0.1802
 2000TIP3   OH227414   3.600   2.561  12.944  0.5576  0.3808  0.1433
 2000TIP3    H127415   3.554   2.536  13.024 -0.4222  1.0379 -0.1893
 2000TIP3    H227416   3.662   2.629  12.972  0.2074  0.6174  0.3487
 2001TIP3   OH227417   4.862   5.384   3.872 -0.5627  0.3138  0.1070
 2001TIP3    H127418   4.828   5.462   3.916 -1.5421  0.1967 -0.4195
 2001TIP3    H227419   4.956   5.401   3.862 -0.2932  0.3178  2.2515
 2002TIP3   OH227420   2.322   2.701  15.905 -0.0542  0.3525 -0.5335
 2002TIP3    H127421   2.332   2.794  15.927 -0.8686  0.0952  1.0130
 2002TIP3    H227422   2.228   2.684  15.916  0.0220 -0.5590 -1.2245
 2003TIP3   OH227423   5.773   5.472  11.415  0.5235  0.6965 -0.1750
 2003TIP3    H127424   5.747   5.549  11.364 -1.9246  0.2153  0.2277
 2003TIP3    H227425   5.819   5.416  11.353  1.4954  2.0282 -0.7048
 2004TIP3   OH227426   2.752   2.356  13.914 -0.0236  0.0802  0.1275
 2004TIP3    H127427   2.838   2.331  13.882  0.5723  0.3710  1.4369
 2004TIP3    H227428   2.767   2.386  14.003 -1.2299  1.6841 -0.1578
 2005TIP3   OH227429   0.743   5.610  14.533 -0.0153  0.3778 -0.1256
 2005TIP3    H127430   0.662   5.582  14.577 -0.7321 -0.0150 -1.6254
 2005TIP3    H227431   0.792   5.657  14.600 -1.9783  1.5746  0.5399
 2006TIP3   OH227432   0.316   1.284  11.140  0.5031 -0.1288 -0.2348
 2006TIP3    H127433   0.283   1.370  11.164 -2.4277 -1.3203  0.4179
 2006TIP3    H227434   0.264   1.258  11.065  0.1680 -1.9696  0.5731
 2007TIP3   OH227435   1.808   0.951  15.678 -0.1995  0.3610 -0.4354
 2007TIP3    H127436   1.897   0.952  15.644  0.4592  0.2137  1.1875
 2007TIP3    H227437   1.766   0.876  15.635  1.4037 -1.4321  0.9362
 2008TIP3   OH227438   1.191   3.345   4.756  0.0273 -0.5910 -0.5646
 2008TIP3    H127439   1.215   3.423   4.806 -1.1563  0.7096 -1.9519
 2008TIP3    H227440   1.114   3.311   4.801  1.3237 -1.8188  0.8532
 2009TIP3   OH227441   0.428   0.132  12.005  0.6981 -0.3793 -0.1199
 2009TIP3    H127442   0.456   0.070  12.072  1.7548  0.8911  0.6590
 2009TIP3    H227443   0.346   0.168  12.039  1.4569  0.5936  0.7678
 2010TIP3   OH227444   2.370   0.802  12.624 -0.5290 -0.6916  0.4755
 2010TIP3    H127445   2.459   0.798  12.589 -0.5558  1.6719 -0.0545
 2010TIP3    H227446   2.313   0.802  12.547 -0.8633 -0.4040  0.7153
 2011TIP3   OH227447   5.337   2.302  15.599  0.1888 -0.2445 -0.5067
 2011TIP3    H127448   5.390   2.382  15.601 -1.2498  0.8027 -2.0133
 2011TIP3    H227449   5.378   2.248  15.531  0.5742 -0.3817 -0.1726
 2012TIP3   OH227450   2.765   4.007   3.517  0.9843  0.8102 -0.0475
 2012TIP3    H127451   2.758   4.094   3.554  1.4979  0.0533  1.9544
 2012TIP3    H227452   2.675   3.973   3.519  0.7155  1.3832 -1.1908
 2013TIP3   OH227453   2.653   5.645  12.712 -0.3544  0.6123  0.5325
 2013TIP3    H127454   2.686   5.658  12.623  2.5898  2.8855  1.7464
 2013TIP3    H227455   2.713   5.581  12.751 -1.6337 -0.3937  0.9198
 2014TIP3   OH227456   2.301   6.678  15.857 -0.0806  0.0878  0.2665
 2014TIP3    H127457   2.242   6.726  15.799  0.1294 -0.4514 -0.4069
 2014TIP3    H227458   2.254   6.597  15.878 -0.8016  0.9277  2.0958
 2015TIP3   OH227459   2.509   0.412   3.884  0.8322 -0.0686 -0.8540
 2015TIP3    H127460   2.578   0.417   3.818  1.4023 -0.2553 -0.2826
 2015TIP3    H227461   2.503   0.319   3.906  1.1484  0.0748 -0.1281
 2016TIP3   OH227462   4.138   6.614  11.606  0.2623 -0.0220  0.1500
 2016TIP3    H127463   4.083   6.686  11.637  0.2312 -0.2453  0.6186
 2016TIP3    H227464   4.076   6.552  11.566  0.2618  0.1007 -0.0385
 2017TIP3   OH227465   5.037   3.374  15.959 -0.8319 -0.2092 -0.0212
 2017TIP3    H127466   4.941   3.380  15.952 -0.8974  0.9920  1.3014
 2017TIP3    H227467   5.065   3.464  15.978  0.3662 -0.8454  1.3862
 2018TIP3   OH227468   3.028   4.876  14.035  0.2561 -0.1716 -0.4268
 2018TIP3    H127469   3.039   4.935  14.109  1.2178 -1.1621  0.2478
 2018TIP3    H227470   2.976   4.803  14.070 -0.9272  0.2419 -1.2511
 2019TIP3   OH227471   3.593   5.097  14.060 -0.0863 -0.0485 -0.2231
 2019TIP3    H127472   3.499   5.091  14.042 -0.3602  0.3281  0.9987
 2019TIP3    H227473   3.617   5.184  14.028 -0.3008  0.1326  0.1085
 2020TIP3   OH227474   4.925   4.227   1.948  0.3992 -0.3506  0.4975
 2020TIP3    H127475   4.991   4.168   1.986  0.9124  0.4485  0.8602
 2020TIP3    H227476   4.848   4.171   1.936  0.8071 -1.0491  1.0374
 2021TIP3   OH227477   3.313   1.704  10.979 -0.6999  0.3628 -0.3326
 2021TIP3    H127478   3.243   1.740  11.034 -0.6683 -1.8481  1.2831
 2021TIP3    H227479   3.268   1.640  10.924 -0.1743  0.0284 -0.3719
 2022TIP3   OH227480   5.423   1.554  16.457  0.1415 -0.1221  0.9227
 2022TIP3    H127481   5.395   1.627  16.511 -0.7805  0.2171  0.0022
 2022TIP3    H227482   5.504   1.584  16.416  1.7211 -0.9201  3.1854
 2023TIP3   OH227483   2.966   3.107  17.275  0.2953  0.0440 -0.4202
 2023TIP3    H127484   3.011   3.130  17.194  1.7191  0.4623  0.4429
 2023TIP3    H227485   2.914   3.030  17.253  2.0604 -0.9608 -1.2960
 2024TIP3   OH227486   0.428   3.009   1.221  0.2441 -0.2595 -0.6683
 2024TIP3    H127487   0.416   3.089   1.272  1.5773 -0.9387  0.8017
 2024TIP3    H227488   0.491   3.033   1.153 -1.7335  0.7194 -2.2569
 2025TIP3   OH227489   2.917   1.240  15.463 -0.0961 -0.0648  0.0917
 2025TIP3    H127490   2.949   1.237  15.373  0.1773  0.0588  0.1833
 2025TIP3    H227491   2.993   1.268  15.514  0.1846 -1.6017  0.5606
 2026TIP3   OH227492   2.728   2.433   4.620 -0.2627  0.2247  0.2555
 2026TIP3    H127493   2.802   2.424   4.559 -0.3506  1.4702 -0.0572
 2026TIP3    H227494   2.655   2.390   4.576  0.2576 -1.0122  0.5633
 2027TIP3   OH227495   6.510   4.995  16.993 -0.2636  0.6122  0.1818
 2027TIP3    H127496   6.547   5.042  17.067 -2.0751  1.6993  0.4511
 2027TIP3    H227497   6.490   4.908  17.027  0.6498  0.4851  0.4186
 2028TIP3   OH227498   0.239   4.703   5.292 -0.3753 -0.5903 -0.2485
 2028TIP3    H127499   0.262   4.639   5.224 -0.1419 -0.2242 -0.5153
 2028TIP3    H227500   0.321   4.749   5.311 -0.8779  0.7858 -1.2650
 2029TIP3   OH227501   2.594   4.979  15.913  0.3973  0.1654  0.1236
 2029TIP3    H127502   2.586   5.073  15.923  0.3203  0.2976 -0.9811
 2029TIP3    H227503   2.559   4.961  15.825 -1.0757 -1.0860  0.8984
 2030TIP3   OH227504   1.500   6.615  13.349  0.1781 -0.2126 -0.2314
 2030TIP3    H127505   1.564   6.682  13.374  0.0076 -0.3807  0.7214
 2030TIP3    H227506   1.470   6.641  13.262  2.2105 -0.6473 -1.0994
 2031TIP3   OH227507   5.375   3.232  13.907  0.2226 -0.0003  0.2971
 2031TIP3    H127508   5.374   3.232  13.811 -2.4526  1.6598  0.2467
 2031TIP3    H227509   5.330   3.151  13.931  1.9531 -1.0371  0.2507
 2032TIP3   OH227510   0.578   1.922  14.988 -0.5081 -0.2602 -0.3296
 2032TIP3    H127511   0.531   1.994  15.031 -0.2477 -0.5390  0.4348
 2032TIP3    H227512   0.670   1.944  14.998 -0.3291 -1.6413  1.6740
 2033TIP3   OH227513   2.241   2.692   5.545 -0.1673  0.2823 -0.1267
 2033TIP3    H127514   2.225   2.784   5.569 -1.9997 -0.2095  0.6796
 2033TIP3    H227515   2.330   2.675   5.576 -1.2201  0.6556  3.6787
 2034TIP3   OH227516   2.413   2.103  17.140 -0.2520  0.5656  0.5441
 2034TIP3    H127517   2.481   2.102  17.073 -1.6804  2.2414 -1.0512
 2034TIP3    H227518   2.402   2.011  17.165  1.5358  0.1053 -0.2215
 2035TIP3   OH227519   3.040   5.987   2.713 -0.2149 -0.6355  0.2341
 2035TIP3    H127520   2.971   5.949   2.660 -1.5414 -0.4825  1.7861
 2035TIP3    H227521   3.091   6.041   2.652  0.6093 -3.3321 -1.6374
 2036TIP3   OH227522   6.656   1.906  15.928 -0.0254  0.0051 -0.3589
 2036TIP3    H127523   6.565   1.881  15.938 -0.1937  0.6530 -0.1934
 2036TIP3    H227524   6.666   1.983  15.984  0.7001 -0.2447 -0.1268
 2037TIP3   OH227525   3.731   4.288  15.184  0.0428  0.2037  0.3118
 2037TIP3    H127526   3.816   4.246  15.198  0.2660  0.1880 -1.0178
 2037TIP3    H227527   3.745   4.379  15.211  0.2781  0.0404  0.7599
 2038TIP3   OH227528   3.302   5.531  14.558  0.2804 -0.1838  0.4965
 2038TIP3    H127529   3.392   5.553  14.582  0.4717  0.4204 -0.6760
 2038TIP3    H227530   3.249   5.596  14.605  0.5172 -0.0953  0.6439
 2039TIP3   OH227531   4.783   2.190   6.954 -0.1821 -0.5651 -0.2102
 2039TIP3    H127532   4.818   2.117   6.903 -1.3606 -0.5038 -1.1432
 2039TIP3    H227533   4.691   2.166   6.969 -1.0379  1.4429 -1.9044
 2040TIP3   OH227534   3.003   3.293   2.719 -0.0827  0.5657 -0.7896
 2040TIP3    H127535   3.007   3.228   2.789  1.6885  0.1241 -1.2532
 2040TIP3    H227536   3.092   3.328   2.713  0.1874 -0.3004 -3.6127
 2041TIP3   OH227537   3.610   0.954  14.514  0.5773  0.4124 -0.3023
 2041TIP3    H127538   3.601   1.026  14.576 -0.9242 -0.7809  0.9519
 2041TIP3    H227539   3.571   0.986  14.433  3.0048  2.1710 -0.8973
 2042TIP3   OH227540   1.160   4.222   3.528  0.3730  0.1817  0.1798
 2042TIP3    H127541   1.225   4.185   3.588  1.1447 -1.0061 -1.3180
 2042TIP3    H227542   1.081   4.170   3.544  0.0020  1.0732  1.4092
 2043TIP3   OH227543   6.663   3.494  13.142  0.0440 -0.5336  0.4911
 2043TIP3    H127544   6.600   3.544  13.193  0.2587 -1.3425  1.6034
 2043TIP3    H227545   6.632   3.500  13.052  0.4247  2.1071  0.4642
 2044TIP3   OH227546   5.683   3.425  15.484 -0.2637 -0.5725  0.6964
 2044TIP3    H127547   5.732   3.433  15.565 -1.5863  0.8312  1.4154
 2044TIP3    H227548   5.707   3.503  15.433 -1.1615 -0.2522  0.7455
 2045TIP3   OH227549   3.229   5.190  17.393  0.1617 -0.0492 -0.5332
 2045TIP3    H127550   3.201   5.158  17.479  0.8783 -1.4259 -0.8005
 2045TIP3    H227551   3.151   5.183  17.339 -0.4865  1.4594  0.1436
 2046TIP3   OH227552   5.133   3.361  14.262  0.5830  0.2827 -0.2583
 2046TIP3    H127553   5.070   3.389  14.196 -0.9384  0.9900  1.3888
 2046TIP3    H227554   5.108   3.410  14.341  2.9176  0.2203  0.6009
 2047TIP3   OH227555   5.522   2.073   2.294 -0.4381 -0.2249 -0.0379
 2047TIP3    H127556   5.463   2.020   2.347  0.1305  1.3829  2.3670
 2047TIP3    H227557   5.464   2.135   2.250 -0.7009  0.7571  1.5989
 2048TIP3   OH227558   5.660   5.437  13.779  0.2223 -0.2360 -0.4976
 2048TIP3    H127559   5.613   5.506  13.825  0.8326 -0.3014  0.2440
 2048TIP3    H227560   5.726   5.407  13.842 -0.7420 -2.2410 -0.3652
 2049TIP3   OH227561   5.638   1.296   0.108 -0.6694 -0.1960 -0.0013
 2049TIP3    H127562   5.657   1.236   0.035 -0.3503  0.8854 -0.8402
 2049TIP3    H227563   5.543   1.310   0.103 -0.4888  0.8436 -1.0267
 2050TIP3   OH227564   2.051   3.136  15.918 -0.1724 -0.1015  0.5149
 2050TIP3    H127565   2.019   3.202  15.856 -2.1075 -0.2806  1.2471
 2050TIP3    H227566   2.039   3.176  16.004  1.3555 -0.3209  0.8529
 2051TIP3   OH227567   2.713   0.382  17.603  0.5874 -0.8042  0.2540
 2051TIP3    H127568   2.758   0.338  17.676 -1.5965 -2.3903  0.7637
 2051TIP3    H227569   2.620   0.372  17.623 -0.0688 -0.3451 -2.2321
 2052TIP3   OH227570   5.503   6.238   6.276 -0.4270 -0.3801 -0.4710
 2052TIP3    H127571   5.411   6.218   6.294  0.0004 -1.5327  0.6634
 2052TIP3    H227572   5.542   6.252   6.363  0.7858 -1.5291 -0.7850
 2053TIP3   OH227573   6.169   4.569   6.738  0.5941 -0.4901  0.6064
 2053TIP3    H127574   6.124   4.597   6.818 -0.4453 -1.0955  0.2500
 2053TIP3    H227575   6.148   4.476   6.729  0.4586 -0.3686 -0.5245
 2054TIP3   OH227576   3.134   2.266   4.035  0.0642  0.3139  0.7153
 2054TIP3    H127577   3.209   2.311   3.996  0.4933 -0.3095  0.7956
 2054TIP3    H227578   3.165   2.238   4.121 -0.3526  0.2906  0.8594
 2055TIP3   OH227579   1.040   2.571   5.149  0.7558  0.2787 -0.2979
 2055TIP3    H127580   0.947   2.595   5.150  0.2318 -1.6092  0.0078
 2055TIP3    H227581   1.086   2.655   5.152 -0.9270  1.2711 -0.8319
 2056TIP3   OH227582   1.253   2.494  15.538 -0.0110  0.2644  0.2643
 2056TIP3    H127583   1.172   2.525  15.496  0.4611  0.0468 -0.8307
 2056TIP3    H227584   1.319   2.558  15.512  0.6566 -0.8118 -0.7930
 2057TIP3   OH227585   1.506   3.833   0.045  0.2939 -0.2195  0.0876
 2057TIP3    H127586   1.545   3.877  -0.030  0.4908 -1.4159 -0.5260
 2057TIP3    H227587   1.465   3.754   0.009  0.0519 -0.6151  1.1768
 2058TIP3   OH227588   4.946   1.957   3.844  0.0315 -0.3070  0.2001
 2058TIP3    H127589   4.972   1.865   3.846 -1.7124 -0.8893 -1.0875
 2058TIP3    H227590   4.859   1.956   3.805  0.2795  1.9591 -0.5512
 2059TIP3   OH227591   1.536   5.121  15.716 -0.0484  0.3903  0.2579
 2059TIP3    H127592   1.534   5.135  15.811 -0.3690 -0.6738  0.4257
 2059TIP3    H227593   1.462   5.063  15.699  0.9773 -0.7798 -0.3954
 2060TIP3   OH227594   2.119   6.178  13.487  0.0952  0.2149 -0.0199
 2060TIP3    H127595   2.071   6.254  13.456  1.1721  1.0555  0.3280
 2060TIP3    H227596   2.157   6.140  13.407  0.5645  0.7561 -0.0573
 2061TIP3   OH227597   0.324   5.564  17.230  0.3440  0.5196 -0.1330
 2061TIP3    H127598   0.255   5.508  17.193  1.0162  0.7083 -1.7437
 2061TIP3    H227599   0.348   5.623  17.159  0.8633  1.7350  0.9980
 2062TIP3   OH227600   1.747   2.217  15.292 -0.2826 -0.1177 -0.1302
 2062TIP3    H127601   1.770   2.262  15.374 -2.4883  1.3400 -0.1985
 2062TIP3    H227602   1.812   2.247  15.229 -0.5969  1.5537  0.2918
 2063TIP3   OH227603   3.112   1.143   3.531 -0.1763 -0.3202  0.0124
 2063TIP3    H127604   3.101   1.198   3.608 -1.7576 -1.9644  1.0675
 2063TIP3    H227605   3.042   1.170   3.472  1.0291  0.9317 -0.8758
 2064TIP3   OH227606   5.192   0.974   2.765 -0.8543 -0.1219  0.4879
 2064TIP3    H127607   5.101   0.959   2.740 -0.4539 -2.5083  0.1519
 2064TIP3    H227608   5.240   0.900   2.726  1.2184  1.0129  0.7236
 2065TIP3   OH227609   3.690   2.619  16.409 -0.1002 -0.1038 -0.7702
 2065TIP3    H127610   3.747   2.679  16.458  0.2987  0.7687 -2.2553
 2065TIP3    H227611   3.627   2.676  16.365 -1.9191 -1.0284  0.4833
 2066TIP3   OH227612   1.099   1.304  13.081  0.1654 -0.0895 -0.6054
 2066TIP3    H127613   1.170   1.368  13.068 -1.0794  1.4504 -0.1356
 2066TIP3    H227614   1.023   1.357  13.105 -0.6999 -1.8339  0.7462
 2067TIP3   OH227615   2.047   3.457   2.143  0.0102 -0.7390 -0.1971
 2067TIP3    H127616   2.055   3.363   2.159 -0.7832 -1.1136 -1.7957
 2067TIP3    H227617   1.981   3.487   2.205 -0.2341 -1.3718 -0.1502
 2068TIP3   OH227618   3.329   5.873   5.444  0.2687  0.0401 -0.1424
 2068TIP3    H127619   3.405   5.879   5.387  0.1277 -1.2024 -0.4833
 2068TIP3    H227620   3.364   5.889   5.532  1.0001 -0.9050 -0.2497
 2069TIP3   OH227621   5.078   3.980   1.127  0.3296 -0.2022  0.3074
 2069TIP3    H127622   5.110   3.930   1.202  1.1649  0.5580  0.4876
 2069TIP3    H227623   5.068   3.916   1.057  0.3630 -0.7808  0.8274
 2070TIP3   OH227624   1.764   2.529   5.367  0.4622 -0.2475 -0.3097
 2070TIP3    H127625   1.774   2.580   5.448 -0.8915 -2.5113  1.4029
 2070TIP3    H227626   1.821   2.453   5.379 -0.9494 -1.4270 -0.7102
 2071TIP3   OH227627   0.076   5.932  12.840 -0.2943 -0.0205 -0.3379
 2071TIP3    H127628   0.165   5.954  12.867 -0.1552 -0.5570 -0.3423
 2071TIP3    H227629   0.025   5.932  12.921  0.1142 -1.5982 -0.0541
 2072TIP3   OH227630   2.307   1.321   4.253  0.5688  0.3304  0.4877
 2072TIP3    H127631   2.241   1.330   4.321  2.2911 -0.6000  2.4028
 2072TIP3    H227632   2.346   1.409   4.246 -1.6125  1.2267 -1.5852
 2073TIP3   OH227633   6.239   1.017   2.798 -0.3562 -0.3106  0.2725
 2073TIP3    H127634   6.322   1.061   2.779 -0.6760  0.2364  0.0960
 2073TIP3    H227635   6.264   0.935   2.839  0.2953 -0.4723 -0.4205
 2074TIP3   OH227636   3.707   2.364   5.476 -0.2932 -0.3252 -0.5848
 2074TIP3    H127637   3.758   2.342   5.398 -1.1652  0.7653 -1.4904
 2074TIP3    H227638   3.705   2.282   5.526  0.1202 -1.1161 -1.8006
 2075TIP3   OH227639   1.212   3.770  16.674  0.0122  0.0466  0.2357
 2075TIP3    H127640   1.274   3.810  16.734  0.6202 -2.4551  1.4084
 2075TIP3    H227641   1.251   3.783  16.587  1.4087 -0.1135  0.8084
 2076TIP3   OH227642   2.044   0.916  11.477  0.2018 -0.2683 -1.0618
 2076TIP3    H127643   2.138   0.911  11.488  0.2900  0.0664 -1.6300
 2076TIP3    H227644   2.009   0.918  11.566  0.8306  1.2843 -0.8215
 2077TIP3   OH227645   4.798   0.984   5.501 -0.3714 -0.6146  0.1915
 2077TIP3    H127646   4.820   1.040   5.576  0.3262 -0.8617  0.1822
 2077TIP3    H227647   4.796   1.044   5.426  1.1218 -0.6903  0.0537
 2078TIP3   OH227648   3.618   1.508  17.487 -0.1252  0.2518 -0.5058
 2078TIP3    H127649   3.653   1.431  17.441 -0.8552 -0.1393 -0.4215
 2078TIP3    H227650   3.525   1.508  17.466 -0.0380  1.4408 -0.9495
 2079TIP3   OH227651   2.370   5.973   5.468  0.0672 -0.0589  0.4884
 2079TIP3    H127652   2.460   5.987   5.498  1.1120 -1.9781 -1.4127
 2079TIP3    H227653   2.340   6.058   5.438  2.2247  0.1783 -1.1746
 2080TIP3   OH227654   5.787   4.708  15.616 -0.5544  0.2523 -0.4251
 2080TIP3    H127655   5.702   4.695  15.658  0.9023 -0.1920  2.6351
 2080TIP3    H227656   5.807   4.800  15.631  0.1132  0.0188  0.1317
 2081TIP3   OH227657   3.610   3.399  15.644  0.2986 -0.6484 -0.4314
 2081TIP3    H127658   3.653   3.483  15.656 -0.7244 -0.0165 -1.0461
 2081TIP3    H227659   3.673   3.347  15.593  0.3890  0.2315 -1.2474
 2082TIP3   OH227660   1.928   0.212   0.133  0.0200  0.0919 -0.1604
 2082TIP3    H127661   1.910   0.141   0.071 -2.3002  0.0175  0.4837
 2082TIP3    H227662   1.921   0.292   0.080  0.3246 -0.0604 -0.4332
 2083TIP3   OH227663   5.811   6.379  15.330  0.2323  0.2853 -0.5964
 2083TIP3    H127664   5.856   6.401  15.249  1.2536  0.0501 -0.1141
 2083TIP3    H227665   5.871   6.406  15.399 -0.1617 -0.4847  0.0670
 2084TIP3   OH227666   4.583   4.068   1.325  0.4712 -0.4018 -0.2088
 2084TIP3    H127667   4.609   4.108   1.242 -1.6693  0.6663 -0.4568
 2084TIP3    H227668   4.626   3.983   1.326  0.6922 -0.3681 -2.3448
 2085TIP3   OH227669   0.261   4.360  12.322 -0.2843 -0.1324  0.0011
 2085TIP3    H127670   0.177   4.316  12.311 -0.1622 -0.2768 -0.3933
 2085TIP3    H227671   0.310   4.336  12.243  0.5554 -1.0063  0.7641
 2086TIP3   OH227672   6.352   1.697   6.215 -0.3039  0.5752 -0.0221
 2086TIP3    H127673   6.296   1.660   6.283 -1.3328 -0.4641 -1.3502
 2086TIP3    H227674   6.438   1.707   6.256 -0.8472 -0.1726  1.3601
 2087TIP3   OH227675   0.106   4.755  16.550  0.4294 -0.0372 -0.0007
 2087TIP3    H127676   0.136   4.745  16.640  2.5178  0.0621 -0.6160
 2087TIP3    H227677   0.184   4.785  16.502 -0.5404 -0.3502 -1.8857
 2088TIP3   OH227678   4.547   1.366   3.856  0.3242  0.1791  0.1810
 2088TIP3    H127679   4.555   1.461   3.855 -0.9059  0.3016  0.4183
 2088TIP3    H227680   4.487   1.348   3.928 -2.7388 -0.4620 -2.3190
 2089TIP3   OH227681   5.237   5.111   1.420 -0.0513 -0.1172  0.0018
 2089TIP3    H127682   5.204   5.085   1.334 -0.9126 -0.6687  0.4817
 2089TIP3    H227683   5.175   5.176   1.452  0.4427  0.3238  0.0746
 2090TIP3   OH227684   6.538   6.502  13.609  0.0381  0.2099  0.0868
 2090TIP3    H127685   6.515   6.413  13.639 -0.5399  0.3589  0.1059
 2090TIP3    H227686   6.455   6.538  13.577  0.4300  0.4552 -0.6724
 2091TIP3   OH227687   5.840   1.072  11.269  0.0499  0.2327  0.3080
 2091TIP3    H127688   5.777   1.087  11.198 -0.1929 -0.9542  0.2578
 2091TIP3    H227689   5.789   1.032  11.339  0.0610  2.3294  1.6121
 2092TIP3   OH227690   5.568   6.197  14.146  0.4100 -0.1760 -0.3962
 2092TIP3    H127691   5.599   6.106  14.139 -1.1356 -0.8988  1.3117
 2092TIP3    H227692   5.523   6.213  14.063  0.4571 -1.0788 -0.6093
 2093TIP3   OH227693   3.548   1.072   5.270  0.3095 -0.3277 -0.2824
 2093TIP3    H127694   3.536   1.074   5.175  1.3456 -0.1115 -0.4200
 2093TIP3    H227695   3.643   1.064   5.282  0.4558  1.9285  0.7077
 2094TIP3   OH227696   0.840   3.376  17.524  0.5592  0.3626  0.7825
 2094TIP3    H127697   0.857   3.390  17.617  0.0576  0.1244  0.9125
 2094TIP3    H227698   0.926   3.384  17.483  1.2250 -2.0105  1.5647
 2095TIP3   OH227699   1.751   2.164   0.565 -0.7357 -1.0190  0.0752
 2095TIP3    H127700   1.726   2.072   0.574 -2.2725 -0.6741 -0.4696
 2095TIP3    H227701   1.780   2.189   0.652  0.1351 -2.1336  0.1292
 2096TIP3   OH227702   2.964   4.979  13.790 -0.2521  0.1486  0.3705
 2096TIP3    H127703   2.979   4.946  13.878  0.7648 -2.5272 -0.6896
 2096TIP3    H227704   2.880   4.941  13.764  0.6984 -1.3308 -0.7038
 2097TIP3   OH227705   6.541   3.236   1.754 -0.0607 -0.0660  0.3832
 2097TIP3    H127706   6.536   3.153   1.707  0.3221 -0.0516  0.3171
 2097TIP3    H227707   6.512   3.214   1.843  1.2075 -0.5414  0.7070
 2098TIP3   OH227708   4.484   1.227  11.449 -0.2489  0.2841  0.3077
 2098TIP3    H127709   4.502   1.234  11.355  0.4977  0.3575  0.4567
 2098TIP3    H227710   4.454   1.315  11.474 -1.0486  0.1071  0.0252
 2099TIP3   OH227711   4.343   6.200  12.799  0.1076 -0.2273  0.2357
 2099TIP3    H127712   4.271   6.252  12.834 -0.3976 -1.3137  0.8526
 2099TIP3    H227713   4.397   6.179  12.876  0.6161 -0.1490 -0.0919
 2100TIP3   OH227714   3.766   3.419   2.766  0.1776 -0.0464  0.2543
 2100TIP3    H127715   3.795   3.347   2.822  0.9053  0.0509  0.0138
 2100TIP3    H227716   3.730   3.377   2.688  1.8894 -0.1731 -0.5309
 2101TIP3   OH227717   1.124   1.618   2.958 -0.6108 -0.4157 -0.0573
 2101TIP3    H127718   1.184   1.683   2.995 -0.1586 -1.5599  1.3084
 2101TIP3    H227719   1.065   1.669   2.903  0.4761  0.9846  0.0156
 2102TIP3   OH227720   2.654   5.052   0.530  0.1223 -0.0826  0.2570
 2102TIP3    H127721   2.589   4.982   0.536  0.9341 -0.7983  0.7722
 2102TIP3    H227722   2.601   5.132   0.526 -0.8014 -0.6648  0.4294
 2103TIP3   OH227723   2.610   4.256  17.436  0.3916  0.4536 -0.6725
 2103TIP3    H127724   2.643   4.204  17.363  0.9757  0.0483 -0.1337
 2103TIP3    H227725   2.539   4.204  17.474  0.6054  0.3032 -0.4766
 2104TIP3   OH227726   1.728   2.334  15.561  0.3412  0.4499 -0.1854
 2104TIP3    H127727   1.677   2.312  15.639  1.2888 -1.2700  0.0039
 2104TIP3    H227728   1.675   2.399  15.515 -1.1385  0.0698  0.9131
 2105TIP3   OH227729   2.521   6.709  13.291 -0.0101 -0.5294  0.0801
 2105TIP3    H127730   2.521   6.775  13.361 -0.3009 -1.5180  1.0329
 2105TIP3    H227731   2.512   6.626  13.336 -2.5400 -1.0852 -1.2399
 2106TIP3   OH227732   6.198   0.788  14.405  0.2303 -0.0659  0.2454
 2106TIP3    H127733   6.251   0.709  14.410  1.1381  0.4245 -1.1322
 2106TIP3    H227734   6.202   0.826  14.492  0.3610 -1.1631  0.7258
 2107TIP3   OH227735   1.355   2.869   0.823 -0.6973 -0.3546 -0.0639
 2107TIP3    H127736   1.282   2.916   0.784 -0.7456 -0.1280  0.2927
 2107TIP3    H227737   1.359   2.786   0.775 -0.5905  0.0252 -0.7189
 2108TIP3   OH227738   3.077   3.277   3.406 -0.4391  0.0699 -0.2634
 2108TIP3    H127739   2.986   3.285   3.377 -0.3845 -2.3377 -1.3946
 2108TIP3    H227740   3.084   3.186   3.438  1.1469  0.7335  1.4725
 2109TIP3   OH227741   3.521   3.453  16.260  0.1838 -0.3899 -0.5965
 2109TIP3    H127742   3.482   3.465  16.174 -0.7362 -0.1944 -0.1565
 2109TIP3    H227743   3.538   3.541  16.292 -0.4648 -0.4255 -0.1362
 2110TIP3   OH227744   6.029   2.391   5.777  1.2432 -0.5295  0.4290
 2110TIP3    H127745   6.066   2.368   5.862  0.3138 -0.1466  0.9491
 2110TIP3    H227746   6.093   2.452   5.739  0.7932  0.7825  1.6710
 2111TIP3   OH227747   6.152   2.602  15.057 -0.0640 -0.9349  0.0812
 2111TIP3    H127748   6.185   2.549  15.129  0.1046  0.4618  1.0558
 2111TIP3    H227749   6.114   2.538  14.996 -0.9088 -2.0976  1.7506
 2112TIP3   OH227750   4.546   2.834  16.436  0.0907  0.5776 -0.2047
 2112TIP3    H127751   4.568   2.923  16.411  1.0798  0.3590 -0.1775
 2112TIP3    H227752   4.602   2.816  16.512 -0.4045  0.0785  0.0535
 2113TIP3   OH227753   5.259   6.052  11.725  0.2339 -0.3852  0.0121
 2113TIP3    H127754   5.352   6.044  11.701  0.2769  1.0015 -0.3835
 2113TIP3    H227755   5.254   6.135  11.771 -1.1046  0.4952 -1.6010
 2114TIP3   OH227756   2.845   3.917   4.209 -0.0775 -0.8017  0.1320
 2114TIP3    H127757   2.761   3.904   4.164 -0.3267 -0.4288  0.4879
 2114TIP3    H227758   2.848   4.011   4.228 -0.3570 -1.0628  1.6233
 2115TIP3   OH227759   5.606   0.458   4.776  0.0339  0.1948  0.4935
 2115TIP3    H127760   5.696   0.481   4.799  0.4587 -0.8260 -0.1207
 2115TIP3    H227761   5.583   0.517   4.704  0.4095  0.0682  0.2702
 2116TIP3   OH227762   6.068   3.234  15.550  0.1748 -0.3688 -0.0018
 2116TIP3    H127763   6.142   3.256  15.605 -0.6377  0.7611  0.6833
 2116TIP3    H227764   6.014   3.313  15.549  0.9741  0.3479 -3.8426
 2117TIP3   OH227765   4.390   0.983   0.386  0.4401 -0.7451  0.2389
 2117TIP3    H127766   4.421   1.073   0.397  0.4719 -0.8784  1.2485
 2117TIP3    H227767   4.447   0.931   0.441 -0.5065 -1.2031  0.7988
 2118TIP3   OH227768   6.185   1.424  12.649  0.0636 -0.0977 -0.1905
 2118TIP3    H127769   6.220   1.475  12.576 -0.7232 -0.6569 -0.9727
 2118TIP3    H227770   6.091   1.418  12.631  0.1539 -1.9587 -0.2014
 2119TIP3   OH227771   1.453   4.948   6.140  0.2139 -0.3147 -0.0068
 2119TIP3    H127772   1.359   4.932   6.140  0.3414 -1.1176 -0.8364
 2119TIP3    H227773   1.465   5.020   6.202 -1.0327  0.3113 -0.4706
 2120TIP3   OH227774   3.411   4.708  17.565 -0.4695  0.1061 -0.3522
 2120TIP3    H127775   3.474   4.740  17.500  0.6467  1.2628  1.2149
 2120TIP3    H227776   3.326   4.735  17.531  0.1943  1.8961 -0.7128
 2121TIP3   OH227777   1.825   4.774   1.719 -0.2794 -0.6910 -0.6879
 2121TIP3    H127778   1.818   4.788   1.814 -1.0894 -0.6034 -0.7507
 2121TIP3    H227779   1.894   4.709   1.709 -1.4760 -2.1385  0.1047
 2122TIP3   OH227780   4.910   0.515   4.915 -0.1060  0.6835 -0.3838
 2122TIP3    H127781   4.922   0.468   4.833 -1.4582  1.1461 -0.8524
 2122TIP3    H227782   4.883   0.603   4.890 -1.7131  0.4925  0.5470
 2123TIP3   OH227783   4.802   6.031   3.008  0.2222 -0.3738 -0.9691
 2123TIP3    H127784   4.862   6.048   3.081 -1.4822 -1.1699  0.7296
 2123TIP3    H227785   4.726   6.087   3.027 -0.6886 -1.3654 -1.5461
 2124TIP3   OH227786   6.075   3.912  16.484  0.0985  0.0468 -0.3178
 2124TIP3    H127787   5.985   3.885  16.469  0.3749 -2.0065  1.2275
 2124TIP3    H227788   6.116   3.836  16.525  2.2670  1.2823 -0.0454
 2125TIP3   OH227789   4.803   2.679  15.928 -0.3406 -0.2133  0.5837
 2125TIP3    H127790   4.723   2.692  15.878  0.1480 -0.1400 -0.1986
 2125TIP3    H227791   4.824   2.586  15.917 -1.6198 -0.8370  2.8081
 2126TIP3   OH227792   3.485   4.387  16.576 -0.0145  0.3656 -0.1918
 2126TIP3    H127793   3.473   4.341  16.493  0.5006 -2.8477  1.3444
 2126TIP3    H227794   3.465   4.322  16.643  0.8441  2.4167  2.2483
 2127TIP3   OH227795   2.028   2.396   4.637  0.6274 -0.0984 -0.3249
 2127TIP3    H127796   1.975   2.431   4.708 -1.9900  0.0674 -2.2252
 2127TIP3    H227797   2.036   2.302   4.657 -0.1152 -0.0598  0.1794
 2128TIP3   OH227798   6.675   1.826   5.648 -1.3306  0.2733  0.8594
 2128TIP3    H127799   6.742   1.855   5.710 -0.8968  0.7628  0.1801
 2128TIP3    H227800   6.682   1.887   5.575 -2.6406  0.4402  0.8421
 2129TIP3   OH227801   6.339   6.455   3.531 -0.5012  0.1772  0.3721
 2129TIP3    H127802   6.418   6.479   3.484 -0.9395 -0.7058 -0.8753
 2129TIP3    H227803   6.370   6.419   3.614  0.4427 -0.6537 -0.3186
 2130TIP3   OH227804   4.829   0.695   4.187 -0.4580  0.0402  0.0297
 2130TIP3    H127805   4.806   0.746   4.109 -0.9371  0.4308  0.4279
 2130TIP3    H227806   4.922   0.716   4.202  0.0571 -1.1171 -1.2463
 2131TIP3   OH227807   3.676   3.545   0.776 -0.4403  0.4485  0.7765
 2131TIP3    H127808   3.665   3.511   0.865  1.5118  1.3495  1.4060
 2131TIP3    H227809   3.675   3.641   0.787  0.5698  0.5661 -0.0605
 2132TIP3   OH227810   0.668   2.113   1.803  0.0073 -0.2383 -0.2880
 2132TIP3    H127811   0.758   2.093   1.829  0.0597 -0.5316 -0.6740
 2132TIP3    H227812   0.627   2.149   1.881  0.8033  1.0560 -0.4455
 2133TIP3   OH227813   5.166   1.200  11.335 -1.1957 -0.0037  0.1394
 2133TIP3    H127814   5.193   1.258  11.406  1.3781 -2.0305  0.9803
 2133TIP3    H227815   5.071   1.205  11.335 -1.1442  3.8049  0.4032
 2134TIP3   OH227816   5.074   5.606   3.777  0.2998  0.0362  0.0758
 2134TIP3    H127817   4.981   5.626   3.778 -0.1077 -1.7113  1.1418
 2134TIP3    H227818   5.102   5.615   3.868  0.8133 -0.9342  0.0308
 2135TIP3   OH227819   4.101   5.910  17.106 -0.1016 -0.2156 -0.0851
 2135TIP3    H127820   4.008   5.902  17.128  0.0170  1.2954  1.1468
 2135TIP3    H227821   4.143   5.931  17.189  1.0695  1.0233 -0.9532
 2136TIP3   OH227822   1.834   5.467   5.628 -0.6167  0.2564  0.1120
 2136TIP3    H127823   1.921   5.430   5.642 -0.1130  1.3083 -0.1668
 2136TIP3    H227824   1.800   5.483   5.716 -1.6033 -2.4884  0.3336
 2137TIP3   OH227825   5.336   6.701  17.094 -0.1744  0.4980  0.1597
 2137TIP3    H127826   5.334   6.628  17.032  1.2950 -1.7901  2.6356
 2137TIP3    H227827   5.256   6.692  17.145  1.0757 -0.9064  1.9924
 2138TIP3   OH227828   2.892   3.479  12.963 -0.8842  0.3388  0.5467
 2138TIP3    H127829   2.983   3.500  12.988 -1.2418  3.0505 -0.1214
 2138TIP3    H227830   2.839   3.516  13.033 -1.5423 -0.0655  0.2701
 2139TIP3   OH227831   2.335   2.586   0.273  0.5359  0.6442  0.0296
 2139TIP3    H127832   2.407   2.544   0.226  1.3467  3.0563 -1.0654
 2139TIP3    H227833   2.377   2.634   0.344 -0.5156 -1.5625  2.2763
 2140TIP3   OH227834   2.110   4.901  16.789 -0.0469  0.4654 -0.1379
 2140TIP3    H127835   2.059   4.910  16.709  0.4114  0.9832 -0.3711
 2140TIP3    H227836   2.078   4.971  16.846  0.4003  0.7899 -0.2839
 2141TIP3   OH227837   6.501   0.073  16.265 -0.0444  0.3412 -0.0865
 2141TIP3    H127838   6.527   0.137  16.331 -0.0494  1.7212 -1.3691
 2141TIP3    H227839   6.411   0.050  16.288  0.3404 -0.0950  1.0407
 2142TIP3   OH227840   2.280   2.630   5.200  0.2384 -1.0730 -0.2224
 2142TIP3    H127841   2.196   2.660   5.167  0.0101 -0.0462  1.1960
 2142TIP3    H227842   2.287   2.539   5.171 -1.0226 -0.9508 -0.9553
 2143TIP3   OH227843   2.528   1.594   4.576  0.5212 -0.1020  0.1320
 2143TIP3    H127844   2.621   1.600   4.600  0.7685  1.3937 -1.1114
 2143TIP3    H227845   2.482   1.640   4.646  0.6012 -1.4185  1.1103
 2144TIP3   OH227846   5.078   5.824   0.342  0.5879  0.0008 -0.1244
 2144TIP3    H127847   5.062   5.757   0.409  1.1364 -0.2130 -0.1991
 2144TIP3    H227848   5.173   5.827   0.333  0.5707  0.7695 -0.1496
 2145TIP3   OH227849   3.989   5.983   0.410  0.1606  0.5124 -0.1666
 2145TIP3    H127850   3.992   5.889   0.426  0.8952  0.3225 -1.3061
 2145TIP3    H227851   3.968   5.992   0.317 -0.9524  1.5097  0.1389
 2146TIP3   OH227852   2.053   5.269   4.977  0.2692 -0.1172 -0.4437
 2146TIP3    H127853   2.037   5.353   4.934 -0.5669  0.9124  1.7382
 2146TIP3    H227854   2.149   5.260   4.976  0.4943  1.5794  0.4483
 2147TIP3   OH227855   3.908   5.801   0.708 -0.3017  0.3267 -0.3831
 2147TIP3    H127856   3.943   5.764   0.627 -0.4709 -2.0817  0.5624
 2147TIP3    H227857   3.851   5.733   0.743  0.8332  0.7026  2.4428
 2148TIP3   OH227858   1.507   3.895  17.344 -0.1175  0.5013 -0.8208
 2148TIP3    H127859   1.536   3.984  17.363  1.8354 -0.1840 -0.4432
 2148TIP3    H227860   1.422   3.907  17.301 -0.0013  2.5224 -0.5887
 2149TIP3   OH227861   4.408   3.727  14.434 -0.2230 -0.0131 -0.0904
 2149TIP3    H127862   4.322   3.717  14.476 -0.2144 -2.6196 -0.5363
 2149TIP3    H227863   4.457   3.650  14.463  2.0923  1.5168  0.3166
 2150TIP3   OH227864   6.111   1.616  14.654 -0.4100 -0.3360 -0.1603
 2150TIP3    H127865   6.101   1.660  14.570 -0.1326 -0.0876 -0.0647
 2150TIP3    H227866   6.176   1.547  14.637  1.4059  1.1480  0.3688
 2151TIP3   OH227867   4.489   0.789   2.564 -0.3880  0.3531  0.0379
 2151TIP3    H127868   4.514   0.697   2.556 -0.7142  0.2830 -0.2110
 2151TIP3    H227869   4.408   0.796   2.514 -1.1021  0.4784  1.1824
 2152TIP3   OH227870   5.216   2.104   1.376 -0.5925 -0.5356  0.2478
 2152TIP3    H127871   5.227   2.192   1.410 -1.0530 -0.3041 -0.1826
 2152TIP3    H227872   5.196   2.051   1.453  0.8796 -0.5045  0.6748
 2153TIP3   OH227873   6.401   2.404   3.133 -0.1756  0.2300 -0.3416
 2153TIP3    H127874   6.383   2.376   3.043 -1.7455 -0.9676  0.2942
 2153TIP3    H227875   6.478   2.353   3.159 -0.2979 -0.1476 -0.7031
 2154TIP3   OH227876   4.711   6.495   5.762  0.7022 -0.0908  0.2071
 2154TIP3    H127877   4.695   6.554   5.688  2.7639  0.3889  0.0729
 2154TIP3    H227878   4.785   6.441   5.733  0.0565 -1.4868  1.0618
 2155TIP3   OH227879   4.657   2.429  12.589  0.4531 -0.3734 -0.0120
 2155TIP3    H127880   4.615   2.351  12.624  0.3883  0.1663  1.1605
 2155TIP3    H227881   4.743   2.399  12.561  0.7506 -0.7174  1.2020
 2156TIP3   OH227882   1.464   2.016   2.309 -0.6459 -0.3441  0.7730
 2156TIP3    H127883   1.525   2.088   2.292  0.6754 -1.6717 -0.3333
 2156TIP3    H227884   1.409   2.049   2.380 -0.5106  1.9880 -0.1056
 2157TIP3   OH227885   2.426   1.541   6.067  0.2544  0.0763 -0.1258
 2157TIP3    H127886   2.359   1.539   6.135 -1.3753 -0.8999 -1.6711
 2157TIP3    H227887   2.395   1.606   6.004  1.5615  0.7113 -0.1573
 2158TIP3   OH227888   4.421   6.363   2.866  0.1045 -0.0828 -0.3569
 2158TIP3    H127889   4.410   6.355   2.772  1.5319  1.4230 -0.7172
 2158TIP3    H227890   4.432   6.457   2.881 -0.4472 -0.2492  1.3678
 2159TIP3   OH227891   3.443   2.548  13.780  0.2380 -0.3678  0.3233
 2159TIP3    H127892   3.378   2.597  13.730  0.1092 -2.2092 -1.4194
 2159TIP3    H227893   3.521   2.547  13.725  1.1185  0.1119  1.5106
 2160TIP3   OH227894   2.556   2.082  11.379  0.8226 -0.0267 -0.8831
 2160TIP3    H127895   2.494   2.154  11.394 -0.7796 -1.3442 -0.8134
 2160TIP3    H227896   2.560   2.073  11.284 -1.5653 -1.8602 -0.9087
 2161TIP3   OH227897   3.392   0.709  14.338 -0.3468  0.2548  0.0032
 2161TIP3    H127898   3.463   0.749  14.289  0.1639  0.8870  1.2214
 2161TIP3    H227899   3.425   0.623  14.363 -0.6798 -0.1420 -0.9117
 2162TIP3   OH227900   0.429   4.422   1.011  0.0129  0.5005  0.3391
 2162TIP3    H127901   0.479   4.369   0.950 -0.9855  0.0782 -0.1238
 2162TIP3    H227902   0.363   4.466   0.958  0.2144  1.4726  0.8584
 2163TIP3   OH227903   0.193   3.417   5.572  0.0106 -0.5828  0.1882
 2163TIP3    H127904   0.229   3.498   5.538  1.5763 -1.8593 -1.4126
 2163TIP3    H227905   0.107   3.410   5.531  0.2831 -0.2155 -0.4552
 2164TIP3   OH227906   2.100   4.050   6.433 -0.3835  0.8518 -0.2484
 2164TIP3    H127907   2.162   3.981   6.459 -1.5286  0.6611  2.2194
 2164TIP3    H227908   2.014   4.009   6.440 -0.9558  1.8220 -1.2755
 2165TIP3   OH227909   3.651   4.635  12.550  0.1911  0.5322 -0.5149
 2165TIP3    H127910   3.575   4.693  12.546 -0.2803 -0.0361 -0.0340
 2165TIP3    H227911   3.674   4.619  12.459 -0.6114  0.2847 -0.6868
 2166TIP3   OH227912   3.476   1.094   5.009  0.1596 -0.6888  0.1321
 2166TIP3    H127913   3.427   1.169   4.976 -0.7410 -1.4115 -0.2304
 2166TIP3    H227914   3.516   1.056   4.930  0.0409 -0.9954  0.2211
 2167TIP3   OH227915   4.163   3.713  12.761 -0.3192  0.2051 -0.1839
 2167TIP3    H127916   4.199   3.624  12.763 -0.8700 -0.0118  0.4484
 2167TIP3    H227917   4.204   3.754  12.685  1.4955  0.0476  0.6363
 2168TIP3   OH227918   6.694   5.783   1.903  0.3721 -0.1816  0.0080
 2168TIP3    H127919   6.659   5.853   1.959  1.3249  0.0004  0.3875
 2168TIP3    H227920   6.747   5.829   1.838  0.0086 -0.4645 -0.4935
 2169TIP3   OH227921   5.840   5.106   2.064  0.4362  0.1882  0.0947
 2169TIP3    H127922   5.769   5.093   2.002  1.2113 -0.6961 -0.6553
 2169TIP3    H227923   5.839   5.027   2.118 -2.7989  2.5863  4.0539
 2170TIP3   OH227924   0.606   6.146  16.383  0.4514 -0.3633  0.0200
 2170TIP3    H127925   0.608   6.224  16.328  1.1083 -0.3413  0.0650
 2170TIP3    H227926   0.560   6.173  16.462  0.2001 -0.1764 -0.1896
 2171TIP3   OH227927   1.630   0.508  16.253  0.1779 -0.4167  0.8525
 2171TIP3    H127928   1.636   0.433  16.313 -0.2870  0.4668  2.0438
 2171TIP3    H227929   1.655   0.473  16.168 -0.3852 -2.0185  1.3110
 2172TIP3   OH227930   0.044   3.033  12.952  0.4707 -0.3349  0.1906
 2172TIP3    H127931  -0.023   3.004  12.890  0.3457  1.7054 -0.7034
 2172TIP3    H227932   0.003   3.106  12.998  1.7300  0.3070  0.3329
 2173TIP3   OH227933   3.893   3.603   5.858 -0.0377  0.4917 -0.2017
 2173TIP3    H127934   3.983   3.595   5.825  0.1632  1.7356  0.0101
 2173TIP3    H227935   3.853   3.519   5.835  1.0605  0.0535 -0.6418
 2174TIP3   OH227936   4.890   6.543   2.241  0.2689 -0.2831  0.2608
 2174TIP3    H127937   4.962   6.606   2.242  1.6350 -1.7625  1.5948
 2174TIP3    H227938   4.881   6.518   2.149 -1.0739  2.5911 -0.5006
 2175TIP3   OH227939   4.363   5.274   0.414 -0.0732 -0.4592 -0.0870
 2175TIP3    H127940   4.444   5.302   0.372  0.5919 -1.3856  0.5393
 2175TIP3    H227941   4.386   5.195   0.462 -0.7360  0.5899  2.1335
 2176TIP3   OH227942   0.532   3.473  14.492  0.3452  0.0892 -0.0428
 2176TIP3    H127943   0.437   3.482  14.480  0.1881 -0.9193  0.3096
 2176TIP3    H227944   0.558   3.407  14.427  1.0582  1.3607 -1.0909
 2177TIP3   OH227945   3.251   0.639   5.338  0.0641 -0.5867 -0.5261
 2177TIP3    H127946   3.220   0.687   5.414  1.3866 -0.8182  0.1837
 2177TIP3    H227947   3.250   0.703   5.267 -2.5505 -0.7262 -0.7326
 2178TIP3   OH227948   2.698   3.731   2.790 -0.3746  0.7014 -0.3009
 2178TIP3    H127949   2.643   3.780   2.730 -0.3537 -0.4177 -1.2724
 2178TIP3    H227950   2.787   3.750   2.763 -0.3794 -0.8027 -1.5068
 2179TIP3   OH227951   0.409   1.709   3.307 -0.3502 -0.5431  0.1750
 2179TIP3    H127952   0.492   1.703   3.259 -0.9373  0.7711 -1.0902
 2179TIP3    H227953   0.422   1.780   3.369 -1.0929  1.0635 -1.3900
 2180TIP3   OH227954   1.265   5.601  12.733  0.3733 -0.2303  0.2463
 2180TIP3    H127955   1.245   5.610  12.826  0.5602 -1.3028  0.3981
 2180TIP3    H227956   1.215   5.671  12.692 -1.2604 -0.9065  0.9608
 2181TIP3   OH227957   3.341   0.350  12.038 -0.1106  0.0648  0.5726
 2181TIP3    H127958   3.368   0.368  12.128  0.4119 -0.4049  0.5111
 2181TIP3    H227959   3.251   0.382  12.034  0.5295  1.9742  0.6757
 2182TIP3   OH227960   3.434   5.243  16.488  0.3187  0.1322  0.0783
 2182TIP3    H127961   3.365   5.272  16.429 -0.2692 -1.2485  0.0321
 2182TIP3    H227962   3.480   5.323  16.514  0.1251  0.8434 -1.6642
 2183TIP3   OH227963   3.411   5.955  13.680  0.1545 -0.0090 -0.1808
 2183TIP3    H127964   3.447   5.937  13.593  0.8643  1.6360 -0.2412
 2183TIP3    H227965   3.483   5.991  13.730  0.2453 -2.4853  1.7023
 2184TIP3   OH227966   1.127   1.196   2.194  0.5594 -0.2943  0.3418
 2184TIP3    H127967   1.133   1.165   2.104  0.7556 -0.5408  0.4366
 2184TIP3    H227968   1.161   1.285   2.192 -0.8579  0.2686 -0.1014
 2185TIP3   OH227969   3.198   5.561   3.947 -0.4168 -0.1440  0.5170
 2185TIP3    H127970   3.226   5.574   4.038 -3.1084 -1.4357  1.6617
 2185TIP3    H227971   3.231   5.474   3.924 -0.8809 -0.4001  0.7916
 2186TIP3   OH227972   0.962   1.057   3.713  0.0871 -0.2163  0.2090
 2186TIP3    H127973   0.918   1.136   3.683  2.9341  0.7557 -1.8278
 2186TIP3    H227974   0.936   0.990   3.650 -2.1530 -0.9804  1.8115
 2187TIP3   OH227975   1.679   2.595   3.896 -0.2276 -0.3340 -0.4324
 2187TIP3    H127976   1.767   2.559   3.904 -0.3038 -0.1848  1.6185
 2187TIP3    H227977   1.622   2.519   3.902 -0.2827 -0.4258 -1.7218
 2188TIP3   OH227978   6.441   1.695  13.662 -0.7858 -0.7957 -0.2346
 2188TIP3    H127979   6.449   1.693  13.757 -0.2971 -1.3711 -0.2815
 2188TIP3    H227980   6.479   1.612  13.633  1.0079  0.2613 -1.0691
 2189TIP3   OH227981   4.568   1.533   1.078 -0.4265 -0.2603 -0.2865
 2189TIP3    H127982   4.476   1.541   1.053 -0.9057  0.0605  1.4760
 2189TIP3    H227983   4.606   1.474   1.013 -1.9508 -0.6643 -0.8359
 2190TIP3   OH227984   5.493   6.003   0.355  0.0199  0.1120  0.1460
 2190TIP3    H127985   5.561   6.064   0.327  0.1210  0.7026  1.6397
 2190TIP3    H227986   5.516   5.979   0.444 -1.4227 -0.1181  0.4877
 2191TIP3   OH227987   1.336   4.319   2.931  0.4326  0.0926  0.1075
 2191TIP3    H127988   1.426   4.308   2.899  0.5493  1.7693 -0.2698
 2191TIP3    H227989   1.283   4.266   2.872  1.1084 -0.3433 -0.1220
 2192TIP3   OH227990   1.535   2.565  12.648 -0.2041 -0.0082 -0.1374
 2192TIP3    H127991   1.490   2.487  12.615 -0.7066 -0.6858  2.0212
 2192TIP3    H227992   1.466   2.628  12.666  0.2182  1.1513 -2.1564
 2193TIP3   OH227993   2.358   4.160   5.130 -0.1561 -0.5558  0.3552
 2193TIP3    H127994   2.266   4.171   5.155 -0.5533 -1.3742 -0.6768
 2193TIP3    H227995   2.388   4.085   5.182  1.1731  2.0655  3.7768
 2194TIP3   OH227996   1.586   5.893   6.076 -0.0268  0.0211 -0.5860
 2194TIP3    H127997   1.579   5.842   5.995 -0.1346  0.1665 -0.6707
 2194TIP3    H227998   1.496   5.924   6.093 -0.0060 -0.0170 -0.4059
 2195TIP3   OH227999   6.153   6.701   5.875  0.1613  0.9148  0.2572
 2195TIP3    H128000   6.109   6.756   5.810  3.0183  0.6524 -2.1830
 2195TIP3    H228001   6.184   6.762   5.941  2.5096  2.3235 -1.9437
 2196TIP3   OH228002   5.012   4.785  16.282  0.3393 -0.0422 -0.0163
 2196TIP3    H128003   4.970   4.775  16.196 -1.2829 -0.2528  0.7769
 2196TIP3    H228004   5.083   4.848  16.266 -0.0602  0.0793 -1.4606
 2197TIP3   OH228005   0.352   1.669  13.897  0.4697  0.5013 -0.0117
 2197TIP3    H128006   0.336   1.686  13.990 -0.3700  0.0667 -0.0661
 2197TIP3    H228007   0.370   1.576  13.892 -1.3004  0.1547 -0.4915
 2198TIP3   OH228008   0.473   1.985  16.413 -0.4159 -0.2093 -0.5406
 2198TIP3    H128009   0.414   1.930  16.465 -1.3963  0.9023 -0.4269
 2198TIP3    H228010   0.548   2.001  16.471 -1.4729  0.9711  0.5764
 2199TIP3   OH228011   5.472   4.602  11.249 -0.2631 -0.0282 -0.6641
 2199TIP3    H128012   5.530   4.528  11.229  0.0610  0.3769 -1.2663
 2199TIP3    H228013   5.396   4.587  11.192 -0.9405 -0.7633  0.3990
 2200TIP3   OH228014   0.325   1.958   2.628 -0.3222 -0.1994  0.9359
 2200TIP3    H128015   0.351   2.037   2.581  0.5881 -1.2152 -0.3644
 2200TIP3    H228016   0.246   1.983   2.675 -2.7690  0.3396 -2.9599
 2201TIP3   OH228017   6.571   2.785   4.155 -0.0589 -0.1768  0.3615
 2201TIP3    H128018   6.661   2.780   4.188 -0.3004  0.8570  1.2320
 2201TIP3    H228019   6.544   2.694   4.147 -0.0857 -0.5359  3.3884
 2202TIP3   OH228020   0.782   1.486   0.733 -0.3140 -0.1157 -0.3687
 2202TIP3    H128021   0.770   1.577   0.758 -1.8570 -0.1558 -0.8709
 2202TIP3    H228022   0.818   1.490   0.644  2.2975 -0.0121  0.6051
 2203TIP3   OH228023   2.579   4.333  14.644  0.7067  0.4812  0.2553
 2203TIP3    H128024   2.669   4.314  14.619  0.9883 -0.9299  2.0915
 2203TIP3    H228025   2.562   4.274  14.719 -1.0323  2.1957  1.3034
 2204TIP3   OH228026   3.172   4.047   2.864 -0.1524  0.2673 -0.0604
 2204TIP3    H128027   3.227   4.039   2.786  0.7093 -0.6479  0.6045
 2204TIP3    H228028   3.234   4.051   2.937 -0.9290 -1.9195  0.8093
 2205TIP3   OH228029   3.828   2.704   3.910 -0.4877 -0.0768 -0.2990
 2205TIP3    H128030   3.886   2.717   3.986  0.9073 -0.7953 -1.2057
 2205TIP3    H228031   3.879   2.650   3.850 -1.2400  1.1752 -2.1283
 2206TIP3   OH228032   5.753   0.276  14.430 -0.4909  0.6169  0.3482
 2206TIP3    H128033   5.708   0.257  14.512  0.0961 -0.7135  0.3964
 2206TIP3    H228034   5.838   0.233  14.439  0.9429  3.3091  0.3691
 2207TIP3   OH228035   2.239   3.135  16.835  0.2167  0.1259  0.5512
 2207TIP3    H128036   2.249   3.048  16.796 -0.1433 -0.0783  0.9223
 2207TIP3    H228037   2.192   3.185  16.768 -0.6753 -0.3124  0.8413
 2208TIP3   OH228038   5.643   1.849  17.439 -0.4944 -0.2300 -0.3425
 2208TIP3    H128039   5.683   1.802  17.366  0.8132  0.3083 -0.0032
 2208TIP3    H228040   5.603   1.780  17.492  1.6839 -1.0580  0.3240
 2209TIP3   OH228041   0.154   2.508   1.624  0.1703 -0.0512  0.6234
 2209TIP3    H128042   0.182   2.423   1.591  0.5177 -0.0531  0.9146
 2209TIP3    H228043   0.235   2.550   1.654 -0.1558 -0.1556  1.7065
 2210TIP3   OH228044   5.541   5.827  11.982 -0.0419 -0.2206 -0.0919
 2210TIP3    H128045   5.526   5.809  11.889 -0.0066  1.0775 -0.3647
 2210TIP3    H228046   5.636   5.822  11.992  0.2038  2.1808 -0.7190
 2211TIP3   OH228047   0.949   6.654  12.567 -0.8300 -0.2004 -0.0783
 2211TIP3    H128048   0.953   6.690  12.655  0.9620 -1.0078  0.2041
 2211TIP3    H228049   0.965   6.730  12.510  0.1463 -0.0453  0.3858
 2212TIP3   OH228050   2.047   5.101   2.891 -0.2747  0.1321 -0.2391
 2212TIP3    H128051   2.049   5.142   2.977 -2.2123  1.4607 -0.7754
 2212TIP3    H228052   1.984   5.152   2.841 -0.8235 -1.9170 -1.7929
 2213TIP3   OH228053   4.093   5.782   2.926  0.0878  0.1081 -0.4826
 2213TIP3    H128054   4.032   5.714   2.899  0.3298 -0.5448  0.5691
 2213TIP3    H228055   4.080   5.790   3.021  1.7451 -0.1568 -0.2070
 2214TIP3   OH228056   1.387   4.311   0.392  0.3530  0.1606  0.0982
 2214TIP3    H128057   1.395   4.220   0.362 -0.1996 -0.6114  2.0931
 2214TIP3    H228058   1.301   4.339   0.360  0.3705 -0.1542 -0.2321
 2215TIP3   OH228059   0.795   3.653  14.363  0.2810 -0.5185  0.6434
 2215TIP3    H128060   0.733   3.652  14.436  1.1288  0.8842  1.4184
 2215TIP3    H228061   0.741   3.677  14.287 -0.2278  0.1770  1.2140
 2216TIP3   OH228062   0.739   2.342  12.663  0.4173  0.2079 -0.3050
 2216TIP3    H128063   0.751   2.249  12.643 -0.3541  0.1614 -0.6122
 2216TIP3    H228064   0.644   2.355  12.655  0.3466  0.7112  1.0891
 2217TIP3   OH228065   5.917   6.229   5.557  0.4642 -0.0730 -0.2948
 2217TIP3    H128066   5.928   6.302   5.618  2.3172 -0.5988  0.1028
 2217TIP3    H228067   5.933   6.151   5.611 -0.7483 -0.7285 -0.8568
 2218TIP3   OH228068   5.871   2.754   2.487 -0.5272  0.1479 -0.7082
 2218TIP3    H128069   5.847   2.811   2.414 -0.7594  1.8453  0.6193
 2218TIP3    H228070   5.923   2.810   2.544  0.7385 -1.5047 -0.1727
 2219TIP3   OH228071   1.340   1.628  14.468 -0.0168  0.5622 -0.4360
 2219TIP3    H128072   1.319   1.557  14.407 -2.0560  0.8473 -0.1331
 2219TIP3    H228073   1.256   1.651  14.508  0.9845  1.5942  1.1762
 2220TIP3   OH228074   4.494   4.918   0.089  0.0456  0.5958 -0.1239
 2220TIP3    H128075   4.402   4.930   0.112  0.1416  1.5401 -0.2115
 2220TIP3    H228076   4.499   4.940  -0.004  0.4711  1.1359  0.0238
 2221TIP3   OH228077   0.574   6.240   1.896 -0.1950 -0.5393  0.1201
 2221TIP3    H128078   0.564   6.157   1.941  0.2955 -0.4325  0.4362
 2221TIP3    H228079   0.494   6.288   1.915 -0.4711 -0.9260 -0.0459
 2222TIP3   OH228080   4.377   1.520  16.047 -0.0644  0.3696  0.2383
 2222TIP3    H128081   4.408   1.538  15.958  0.1275 -0.9008  0.0429
 2222TIP3    H228082   4.395   1.601  16.095 -0.0012  1.0038 -0.8282
 2223TIP3   OH228083   1.301   5.276   0.406 -0.7399 -0.5866 -0.2090
 2223TIP3    H128084   1.271   5.290   0.316  1.4175  1.0103 -0.7691
 2223TIP3    H228085   1.317   5.364   0.440 -1.9824 -1.1196  1.9804
 2224TIP3   OH228086   5.315   6.365  15.563 -0.0212  0.7530 -0.5935
 2224TIP3    H128087   5.382   6.397  15.502  0.4423  2.0736  0.5434
 2224TIP3    H228088   5.328   6.270  15.565 -0.1099  0.6590 -2.5764
 2225TIP3   OH228089   1.461   2.271  12.640 -0.2525  0.1237  0.0605
 2225TIP3    H128090   1.456   2.205  12.709 -0.3368  0.5712  0.4854
 2225TIP3    H228091   1.539   2.246  12.589  0.2446  0.2133  0.7564
 2226TIP3   OH228092   5.289   6.407  15.823 -0.1547 -0.4018 -0.5415
 2226TIP3    H128093   5.359   6.342  15.822 -1.2306 -1.6175 -0.2348
 2226TIP3    H228094   5.265   6.419  15.732  0.2386 -0.2066 -0.6210
 2227TIP3   OH228095   4.375   3.171   3.285  0.5304 -0.2618 -0.0824
 2227TIP3    H128096   4.449   3.221   3.319  0.6279 -0.2510 -0.3116
 2227TIP3    H228097   4.307   3.182   3.352  0.7694 -0.3628  0.1805
 2228TIP3   OH228098   5.410   6.293  14.550  0.1594 -0.0689  0.0491
 2228TIP3    H128099   5.390   6.339  14.632 -0.0029 -0.2537  0.1122
 2228TIP3    H228100   5.457   6.358  14.498 -0.2326  0.2314  0.0667
 2229TIP3   OH228101   6.157   3.106  13.849  0.4888  0.5416  0.0702
 2229TIP3    H128102   6.092   3.155  13.798 -0.6773 -2.5505 -1.6297
 2229TIP3    H228103   6.241   3.133  13.811  0.0056  2.0340 -0.0280
 2230TIP3   OH228104   1.351   2.796   1.299 -0.8230 -0.2096 -0.3345
 2230TIP3    H128105   1.298   2.783   1.220  0.9017 -2.6731 -1.2256
 2230TIP3    H228106   1.427   2.846   1.268 -1.4102  1.2232  0.4241
 2231TIP3   OH228107   4.081   4.945  11.992  0.6313 -0.1117 -0.0090
 2231TIP3    H128108   4.091   4.879  12.061  2.6567 -0.5166 -0.6164
 2231TIP3    H228109   4.163   4.940  11.943  0.5703  2.4079 -0.4978
 2232TIP3   OH228110   2.333   6.058  17.515  0.4138  0.0525 -0.1298
 2232TIP3    H128111   2.388   5.985  17.487 -0.3871 -0.1518 -1.2618
 2232TIP3    H228112   2.255   6.051  17.460 -0.7121  0.3845  1.3491
 2233TIP3   OH228113   4.142   0.959   2.275 -0.0986  0.7025  0.2846
 2233TIP3    H128114   4.220   1.015   2.285 -0.0390  0.8739 -0.9941
 2233TIP3    H228115   4.147   0.928   2.185 -1.5043  0.6951  0.1938
 2234TIP3   OH228116   0.113   4.796  13.134 -0.2964  0.0663 -0.3581
 2234TIP3    H128117   0.116   4.702  13.117 -1.1319 -0.1201  0.4281
 2234TIP3    H228118   0.189   4.813  13.189  0.3558  0.0219 -1.2265
 2235TIP3   OH228119   5.103   3.266   4.548 -0.5123 -0.2913 -0.0489
 2235TIP3    H128120   5.175   3.279   4.610  0.4701 -2.3198 -0.6817
 2235TIP3    H228121   5.110   3.174   4.522 -0.5516  0.5815 -3.5810
 2236TIP3   OH228122   4.592   3.268  16.586  0.4151 -0.1780  0.0497
 2236TIP3    H128123   4.523   3.321  16.546  0.4426  2.0107  2.6374
 2236TIP3    H228124   4.665   3.273  16.524  0.2985  2.6214  0.0379
 2237TIP3   OH228125   5.066   3.505   4.393  0.5934  0.7250 -0.2991
 2237TIP3    H128126   5.079   3.426   4.445  0.5418  1.2146  0.4715
 2237TIP3    H228127   5.118   3.491   4.314  0.0144 -0.3833 -0.5083
 2238TIP3   OH228128   5.467   0.949  16.195  0.0380 -0.4494 -0.0583
 2238TIP3    H128129   5.374   0.942  16.177  0.3591 -0.0681 -2.0124
 2238TIP3    H228130   5.477   1.035  16.237 -0.1628  0.8390 -2.4856
 2239TIP3   OH228131   0.169   4.602   5.978 -0.4141  0.2612  0.6795
 2239TIP3    H128132   0.127   4.516   5.975  0.0535  0.0680 -1.4679
 2239TIP3    H228133   0.097   4.664   5.987 -0.9298 -0.2413  0.0734
 2240TIP3   OH228134   3.514   5.923   6.251 -0.1807 -0.3917  0.3436
 2240TIP3    H128135   3.424   5.954   6.245 -0.3398 -0.9386 -0.2247
 2240TIP3    H228136   3.538   5.902   6.161  1.6236  2.7723 -0.0686
 2241TIP3   OH228137   2.219   5.104   3.936 -0.0613 -0.5127 -0.2383
 2241TIP3    H128138   2.124   5.092   3.936 -0.5754  2.8120 -1.1378
 2241TIP3    H228139   2.240   5.125   4.027 -1.1216  3.8909 -0.8190
 2242TIP3   OH228140   1.898   2.624   3.381 -0.4325  0.1371 -0.2812
 2242TIP3    H128141   1.868   2.635   3.291 -0.0874  1.5968 -0.2376
 2242TIP3    H228142   1.835   2.674   3.434 -0.3728 -0.3295  0.2425
 2243TIP3   OH228143   1.977   2.928  16.431 -0.1272  0.2281 -0.0280
 2243TIP3    H128144   1.888   2.894  16.425  0.3213 -0.7826 -1.7934
 2243TIP3    H228145   1.974   3.012  16.386 -0.2332  0.3254  0.1572
 2244TIP3   OH228146   5.092   4.748   0.193 -0.1015  0.6028  0.0556
 2244TIP3    H128147   5.069   4.659   0.166  0.4908 -0.0034  1.4015
 2244TIP3    H228148   5.064   4.752   0.285 -1.9841  2.5194 -0.5284
 2245TIP3   OH228149   0.673   1.965  17.080 -0.1540 -0.0116 -0.4965
 2245TIP3    H128150   0.630   1.880  17.082 -2.2617  0.9836 -0.5059
 2245TIP3    H228151   0.757   1.951  17.123  0.1773 -2.3801 -1.7559
 2246TIP3   OH228152   2.893   1.963  16.500  0.4900  0.3077 -0.3091
 2246TIP3    H128153   2.822   1.899  16.507 -0.0330  0.7254 -1.5400
 2246TIP3    H228154   2.967   1.921  16.545 -0.0481 -0.8474 -0.4614
 2247TIP3   OH228155   3.034   2.250   1.433 -0.3343  0.0384 -0.1727
 2247TIP3    H128156   3.035   2.161   1.467 -1.4763  0.1678  0.2205
 2247TIP3    H228157   2.948   2.260   1.391 -0.2902  1.0060 -0.0693
 2248TIP3   OH228158   4.165   1.070   0.062 -0.1929  0.3839  0.0015
 2248TIP3    H128159   4.109   1.033  -0.006  2.5340 -1.1709 -1.5647
 2248TIP3    H228160   4.195   0.994   0.112 -0.0308  1.2416  1.2602
 2249TIP3   OH228161   3.699   0.556   1.582  0.0569 -0.2770 -0.2295
 2249TIP3    H128162   3.618   0.574   1.533  0.6712  0.3944 -1.0296
 2249TIP3    H228163   3.671   0.501   1.655 -1.2053  0.3514 -0.2138
 2250TIP3   OH228164   4.346   3.961   1.131 -0.1165 -0.4475  0.0527
 2250TIP3    H128165   4.438   3.938   1.114 -0.0868  0.4692 -1.1510
 2250TIP3    H228166   4.336   4.047   1.092 -1.2984 -0.1961  0.8815
 2251TIP3   OH228167   3.031   0.152   1.687 -0.0782 -0.2864  0.6004
 2251TIP3    H128168   3.083   0.231   1.702 -1.2687  0.7982 -0.7203
 2251TIP3    H228169   2.941   0.180   1.705 -0.4629 -1.4834  0.5711
 2252TIP3   OH228170   2.383   5.972   2.250 -0.3795  0.4600  0.1668
 2252TIP3    H128171   2.428   5.909   2.306 -1.8231 -0.8576 -0.0972
 2252TIP3    H228172   2.293   5.975   2.283 -1.6186 -1.2441 -2.6832
 2253TIP3   OH228173   5.935   2.400   0.479  0.4427 -0.1677 -0.1526
 2253TIP3    H128174   5.932   2.408   0.574 -0.1927 -0.1399 -0.1704
 2253TIP3    H228175   5.961   2.487   0.449 -0.5878  0.1824 -0.0596
 2254TIP3   OH228176   6.579   4.341   2.058 -0.3325  0.2905 -0.7617
 2254TIP3    H128177   6.512   4.307   2.000 -0.2292 -1.2612 -0.0254
 2254TIP3    H228178   6.646   4.272   2.062 -1.0309 -0.3871  2.3050
 2255TIP3   OH228179   6.467   1.315  11.307  0.5801  0.2693  0.6073
 2255TIP3    H128180   6.483   1.387  11.247 -1.2809  1.2303  1.2088
 2255TIP3    H228181   6.431   1.245  11.252  2.7770 -0.4420 -0.0490
 2256TIP3   OH228182   3.547   4.882   5.216  0.1832 -0.0596 -0.0969
 2256TIP3    H128183   3.610   4.811   5.230  1.0048  0.4886 -0.9303
 2256TIP3    H228184   3.538   4.889   5.121 -0.0685  0.7876 -0.0223
 2257TIP3   OH228185   6.470   3.353   5.758  0.3619 -0.2382  0.2250
 2257TIP3    H128186   6.404   3.409   5.718  1.2322  0.9941  0.4312
 2257TIP3    H228187   6.420   3.292   5.812 -0.7729 -1.3324 -1.9575
 2258TIP3   OH228188   0.067   5.040   6.070  0.0814 -0.3559  0.0748
 2258TIP3    H128189   0.091   5.064   6.159 -1.4106  0.1157  0.3782
 2258TIP3    H228190   0.148   5.046   6.020  0.5681  1.2879  0.9976
 2259TIP3   OH228191   1.372   6.580   2.309 -0.4439  0.0720  0.5218
 2259TIP3    H128192   1.441   6.516   2.289 -0.9132  0.0385 -1.1384
 2259TIP3    H228193   1.334   6.550   2.391 -0.0567 -1.2605  0.2357
 2260TIP3   OH228194   3.102   2.349   2.892 -0.2499  0.1202 -0.4689
 2260TIP3    H128195   3.137   2.437   2.891  1.6409 -0.5936 -0.6883
 2260TIP3    H228196   3.036   2.350   2.962 -0.1789  1.6442 -0.3935
 2261TIP3   OH228197   2.986   1.367  17.619  0.1880  0.8683  0.4767
 2261TIP3    H128198   2.949   1.300  17.676 -0.5909  1.3353  0.5278
 2261TIP3    H228199   3.041   1.319  17.557 -0.7464  0.1387  0.2040
 2262TIP3   OH228200   3.912   1.803  14.726 -0.0869 -0.0444 -0.6808
 2262TIP3    H128201   3.905   1.890  14.765 -1.9159 -0.1312 -0.7355
 2262TIP3    H228202   4.006   1.790  14.712  0.3420  1.3019  0.6969
 2263TIP3   OH228203   4.915   2.633   0.838  0.0186 -0.3578  0.5214
 2263TIP3    H128204   4.902   2.711   0.783  1.1671  0.1942  1.0023
 2263TIP3    H228205   4.954   2.569   0.778 -0.3399 -0.3550  0.2788
 2264TIP3   OH228206   4.749   5.118  15.818  0.5256  0.1996 -0.5766
 2264TIP3    H128207   4.661   5.134  15.784  0.1626  0.4616  0.4397
 2264TIP3    H228208   4.795   5.202  15.807 -0.4093  1.1313  1.9030
 2265TIP3   OH228209   5.646   5.731   1.810  0.4286 -0.9078  0.3736
 2265TIP3    H128210   5.690   5.815   1.801  0.5553 -0.9406  0.6662
 2265TIP3    H228211   5.703   5.680   1.868 -0.0382 -0.9177  0.8329
 2266TIP3   OH228212   3.017   4.148   1.348 -0.1225  0.3331  0.3887
 2266TIP3    H128213   3.003   4.064   1.391  0.1561 -0.6068 -1.3072
 2266TIP3    H228214   3.095   4.183   1.390  1.3203 -1.4847 -0.6540
 2267TIP3   OH228215   5.558   4.748   5.225 -0.6060  0.5487 -0.1245
 2267TIP3    H128216   5.596   4.796   5.151  0.2117 -1.3686 -1.0262
 2267TIP3    H228217   5.623   4.757   5.295  0.5622 -0.8459 -0.9502
 2268TIP3   OH228218   1.041   6.445   2.003 -0.0848  0.0478 -0.3490
 2268TIP3    H128219   1.017   6.358   2.035  0.2916  0.5396  1.3627
 2268TIP3    H228220   1.089   6.427   1.922 -0.1302 -1.3313 -0.1061
 2269TIP3   OH228221   3.274   2.706   6.274  0.4728  0.1990  0.3247
 2269TIP3    H128222   3.289   2.753   6.192 -1.1697  0.8112  0.3377
 2269TIP3    H228223   3.334   2.746   6.336  0.6784  0.7387 -0.2118
 2270TIP3   OH228224   3.447   4.264   5.092 -0.1493  0.3716  0.0296
 2270TIP3    H128225   3.528   4.313   5.110  0.3299  0.4192 -2.0579
 2270TIP3    H228226   3.470   4.173   5.110  0.3007  0.4150 -0.3048
 2271TIP3   OH228227   5.104   5.385  11.301  0.2704  0.5252  0.5406
 2271TIP3    H128228   5.181   5.432  11.332  1.0052  0.6143 -1.3026
 2271TIP3    H228229   5.032   5.448  11.311  0.2999  0.3141  2.6282
 2272TIP3   OH228230   6.615   4.378  14.292  0.4343 -0.1642  0.5691
 2272TIP3    H128231   6.553   4.377  14.219  0.6615 -0.4913  0.3750
 2272TIP3    H228232   6.572   4.429  14.360  0.1819  0.0671  0.2361
 2273TIP3   OH228233   3.906   5.365  11.632 -0.2362 -0.4047 -0.1874
 2273TIP3    H128234   3.898   5.343  11.725  0.1810  0.1879 -0.0090
 2273TIP3    H228235   3.863   5.449  11.623 -0.2160 -0.4283 -0.5223
 2274TIP3   OH228236   0.994   5.354  13.137 -0.2023  0.1385  0.4733
 2274TIP3    H128237   1.087   5.358  13.114 -0.0018 -0.1949  1.1728
 2274TIP3    H228238   0.994   5.338  13.231 -0.9444 -1.3526  0.2482
 2275TIP3   OH228239   6.019   5.038   4.816 -0.4584 -0.3699 -0.0367
 2275TIP3    H128240   6.014   5.097   4.741  2.2983 -1.1732 -0.9624
 2275TIP3    H228241   5.955   5.073   4.878  0.5437  3.2042 -0.7776
 2276TIP3   OH228242   1.664   6.498   1.812  0.2728 -0.5825  0.6018
 2276TIP3    H128243   1.757   6.522   1.819  0.0596  0.2613  0.7192
 2276TIP3    H228244   1.620   6.582   1.796 -0.7482 -0.6012  2.9679
 2277TIP3   OH228245   2.722   0.384  11.592  0.8404 -0.2228 -0.5160
 2277TIP3    H128246   2.626   0.389  11.586  0.8398  0.6855  0.0587
 2277TIP3    H228247   2.748   0.333  11.515 -0.1017 -0.4944 -0.6700
 2278TIP3   OH228248   4.893   0.922  13.689  0.5751 -0.4275 -0.6841
 2278TIP3    H128249   4.902   1.003  13.739 -0.3405 -1.2056  0.7894
 2278TIP3    H228250   4.806   0.927  13.650  0.9806 -0.1862 -1.6010
 2279TIP3   OH228251   6.037   6.321   5.165 -0.0903 -0.4314 -0.0253
 2279TIP3    H128252   6.104   6.295   5.228 -2.0139 -0.5295  2.1136
 2279TIP3    H228253   6.006   6.406   5.196 -1.1528 -0.5188 -0.7774
 2280TIP3   OH228254   1.215   3.189  12.841 -0.1041 -0.0409  0.4515
 2280TIP3    H128255   1.191   3.105  12.802 -2.3875  0.1978  1.2145
 2280TIP3    H228256   1.152   3.251  12.806  0.6264  1.0690  1.0520
 2281TIP3   OH228257   2.520   5.840   0.191 -0.4418  0.0921  0.1917
 2281TIP3    H128258   2.500   5.797   0.274 -2.0127  0.4046  0.0000
 2281TIP3    H228259   2.552   5.770   0.134  1.1383 -0.0467  1.1717
 2282TIP3   OH228260   0.495   5.163  12.720  0.2232  0.0594 -0.0766
 2282TIP3    H128261   0.531   5.251  12.726  1.3900 -0.3446 -0.7771
 2282TIP3    H228262   0.402   5.176  12.698  0.4928  1.1020 -0.6701
 2283TIP3   OH228263   6.538   3.060   2.319  0.3995 -0.3602  0.3245
 2283TIP3    H128264   6.460   3.111   2.295  2.0685  1.2400 -2.1212
 2283TIP3    H228265   6.530   2.979   2.268 -1.7931 -2.4225  3.5308
 2284TIP3   OH228266   1.076   2.491  16.281  0.1713  0.0482  0.0076
 2284TIP3    H128267   1.169   2.473  16.294 -0.0921 -0.6443  1.1236
 2284TIP3    H228268   1.066   2.501  16.187  1.0133 -2.0553 -0.3630
 2285TIP3   OH228269   0.451   5.831   3.123  0.0344  0.1167 -0.1668
 2285TIP3    H128270   0.477   5.859   3.211 -0.1228  1.4388 -0.5091
 2285TIP3    H228271   0.474   5.905   3.067 -0.8779 -0.2548 -1.0711
 2286TIP3   OH228272   5.954   1.118   2.522 -0.0307  0.1894  0.7920
 2286TIP3    H128273   5.981   1.029   2.498 -3.2859 -0.5049 -0.9389
 2286TIP3    H228274   5.949   1.117   2.618  0.4308 -1.3565  0.8199
 2287TIP3   OH228275   4.547   4.728  12.697 -0.0371 -0.2220 -0.0349
 2287TIP3    H128276   4.610   4.719  12.625  0.9555  0.0622  0.7751
 2287TIP3    H228277   4.601   4.728  12.776 -1.0861 -0.2151  0.6930
 2288TIP3   OH228278   1.909   3.934   0.131 -0.4109  0.0360  0.6886
 2288TIP3    H128279   1.917   3.864   0.197 -0.8449  0.6158  1.3787
 2288TIP3    H228280   1.866   4.006   0.178  0.4118  0.9308  0.1135
 2289TIP3   OH228281   4.776   1.299  16.681  0.2419 -0.3785 -0.3923
 2289TIP3    H128282   4.844   1.339  16.627  0.3122  0.4968  0.3282
 2289TIP3    H228283   4.768   1.210  16.647  1.2148 -0.2560 -0.9779
 2290TIP3   OH228284   0.303   6.700  15.854 -0.1759  0.4458 -0.2943
 2290TIP3    H128285   0.330   6.636  15.919 -1.2931  0.6790  0.4144
 2290TIP3    H228286   0.296   6.782  15.902 -0.5915  0.7127 -0.8000
 2291TIP3   OH228287   0.864   3.895   4.842  0.0317  0.1325  0.3666
 2291TIP3    H128288   0.824   3.812   4.868  0.4197 -0.4611 -0.8335
 2291TIP3    H228289   0.834   3.958   4.907 -0.8831 -0.7976  0.8756
 2292TIP3   OH228290   4.887   0.659  11.632 -0.1962 -0.1885 -0.8451
 2292TIP3    H128291   4.828   0.729  11.606  0.8283  0.5175 -1.3498
 2292TIP3    H228292   4.880   0.594  11.562  0.9050  0.7010 -1.8341
 2293TIP3   OH228293   3.870   3.690   3.447 -0.6934 -0.0634 -0.3857
 2293TIP3    H128294   3.933   3.761   3.458 -1.3019  0.6056 -1.1617
 2293TIP3    H228295   3.785   3.731   3.458 -1.0452 -1.4206  3.3703
 2294TIP3   OH228296   4.273   0.352   4.050  0.1522 -0.4294 -0.0617
 2294TIP3    H128297   4.346   0.317   3.998 -0.2014 -0.8822 -0.2700
 2294TIP3    H228298   4.222   0.274   4.073  1.2558 -0.4835  2.5070
 2295TIP3   OH228299   6.168   1.262  13.331  0.0670 -0.4710 -0.0901
 2295TIP3    H128300   6.145   1.249  13.239 -0.2731 -1.1922  0.0947
 2295TIP3    H228301   6.145   1.180  13.374 -0.9934  0.3077  0.8807
 2296TIP3   OH228302   1.860   4.495   5.484 -0.3147  0.2558  0.1114
 2296TIP3    H128303   1.831   4.494   5.576 -0.4844  1.3005  0.0795
 2296TIP3    H228304   1.782   4.470   5.434  0.0191 -1.2487  0.2890
 2297TIP3   OH228305   4.582   3.650   4.281  0.4641 -0.0010  0.2951
 2297TIP3    H128306   4.529   3.616   4.209 -0.1301  0.3145  0.5832
 2297TIP3    H228307   4.665   3.675   4.239  0.4389 -0.5956 -0.1339
 2298TIP3   OH228308   5.259   6.578   4.069  0.5369 -0.2708 -0.4392
 2298TIP3    H128309   5.308   6.496   4.067 -0.2236 -0.7462 -0.1784
 2298TIP3    H228310   5.175   6.555   4.109  0.4779  0.7337  0.0452
 2299TIP3   OH228311   0.333   1.915   0.587 -0.1974  0.1845  0.4654
 2299TIP3    H128312   0.425   1.914   0.611 -0.1062  2.8011  0.5056
 2299TIP3    H228313   0.289   1.958   0.661 -1.2041  0.3852 -0.2257
 2300TIP3   OH228314   4.688   0.724  15.669 -0.2205  0.2966 -0.2451
 2300TIP3    H128315   4.746   0.727  15.593  0.7546  1.5496  0.4986
 2300TIP3    H228316   4.653   0.635  15.669 -0.2253  0.2656 -2.1231
 2301TIP3   OH228317   5.361   4.339  13.843 -0.0751 -0.6445  0.6253
 2301TIP3    H128318   5.311   4.334  13.761 -0.0220  0.8983  0.4714
 2301TIP3    H228319   5.304   4.299  13.908 -1.1084  0.1899  0.2637
 2302TIP3   OH228320   3.236   4.147   2.209  0.6714 -0.3479  0.3455
 2302TIP3    H128321   3.217   4.187   2.125  0.9024  1.7861  1.2372
 2302TIP3    H228322   3.331   4.134   2.209  0.6685 -0.3662  0.2549
 2303TIP3   OH228323   3.474   3.294   4.814 -0.2771  0.1559 -0.2021
 2303TIP3    H128324   3.519   3.238   4.876 -0.3968 -0.5782 -0.7725
 2303TIP3    H228325   3.405   3.336   4.866  0.1676  0.2136  0.3497
 2304TIP3   OH228326   5.339   2.160   3.108  0.4067 -0.0594 -0.3075
 2304TIP3    H128327   5.291   2.242   3.100 -0.2679 -0.1225  2.0947
 2304TIP3    H228328   5.345   2.145   3.203 -0.5215 -3.3639 -0.6367
 2305TIP3   OH228329   4.173   3.433  12.805 -0.0259  0.2767 -0.1211
 2305TIP3    H128330   4.103   3.406  12.745  0.7072 -0.4153 -0.6887
 2305TIP3    H228331   4.253   3.420  12.755  0.7822 -2.1529  1.6047
 2306TIP3   OH228332   3.441   6.359  12.155  0.1570  0.1650 -0.2014
 2306TIP3    H128333   3.536   6.353  12.162  0.3646  0.7490 -2.0326
 2306TIP3    H228334   3.416   6.422  12.222  0.8545 -1.0917  1.3180
 2307TIP3   OH228335   2.464   0.203   2.242 -0.1991  0.3116 -0.6984
 2307TIP3    H128336   2.495   0.114   2.257 -0.1381  0.5257  0.5493
 2307TIP3    H228337   2.368   0.195   2.241 -0.4153  0.6489  2.9706
 2308TIP3   OH228338   0.127   0.004   2.599  1.4054  0.1317  0.1098
 2308TIP3    H128339   0.081   0.022   2.518 -0.0383 -0.5075  0.7575
 2308TIP3    H228340   0.212  -0.031   2.571  0.4007 -1.4422 -1.1550
 2309TIP3   OH228341   6.654   0.853   5.267 -0.3801 -0.0729 -0.3715
 2309TIP3    H128342   6.642   0.893   5.353 -0.8630  1.5412 -1.1445
 2309TIP3    H228343   6.568   0.817   5.245  0.2520 -2.4241  0.6838
 2310TIP3   OH228344   0.504   5.674  15.258  0.3615 -0.3587  0.7724
 2310TIP3    H128345   0.442   5.612  15.295  0.0233 -0.7766 -0.4408
 2310TIP3    H228346   0.472   5.760  15.285 -0.8286 -0.5570  0.0840
 2311TIP3   OH228347   6.007   3.119   3.406 -0.4755  0.4308  0.0652
 2311TIP3    H128348   6.088   3.159   3.374 -1.1994  0.7265 -1.4968
 2311TIP3    H228349   6.003   3.034   3.362 -0.4702 -0.0681  1.0034
 2312TIP3   OH228350   4.177   6.563  13.899 -0.5267 -0.5625  0.2219
 2312TIP3    H128351   4.119   6.489  13.918 -1.6464  0.0773 -0.5648
 2312TIP3    H228352   4.238   6.566  13.972 -0.0945 -2.6007  0.0154
 2313TIP3   OH228353   3.844   1.595  16.910 -0.0865 -0.3743  0.5636
 2313TIP3    H128354   3.921   1.635  16.868  0.4550 -1.4808  0.4567
 2313TIP3    H228355   3.771   1.619  16.853  0.3201 -0.0849  0.1488
 2314TIP3   OH228356   0.598   1.426  11.124  0.8169  0.2450  0.1656
 2314TIP3    H128357   0.574   1.388  11.039  1.6730 -0.0770  0.0618
 2314TIP3    H228358   0.515   1.430  11.172  0.6757 -1.7579  0.1743
 2315TIP3   OH228359   0.533   5.597  15.809 -0.1786 -0.1441 -0.0740
 2315TIP3    H128360   0.566   5.663  15.870  0.5066 -2.3418  2.0842
 2315TIP3    H228361   0.442   5.584  15.834 -0.0555 -0.6460  0.1340
 2316TIP3   OH228362   2.741   1.957  15.832 -0.3533 -0.6673 -0.1020
 2316TIP3    H128363   2.646   1.968  15.828 -0.6732 -3.2980 -1.9941
 2316TIP3    H228364   2.760   1.945  15.925 -1.9346 -0.6633  0.2515
 2317TIP3   OH228365   6.150   5.798   5.818  0.2287 -0.5407 -0.6150
 2317TIP3    H128366   6.141   5.719   5.765  1.1122 -0.6387 -0.6383
 2317TIP3    H228367   6.115   5.774   5.904  1.1405 -1.1872 -0.4115
 2318TIP3   OH228368   3.318   5.193  12.396 -0.3292  0.5739 -0.5160
 2318TIP3    H128369   3.292   5.275  12.437  0.1257  0.8930 -0.8525
 2318TIP3    H228370   3.245   5.134  12.412  0.1452  0.4428  1.4232
 2319TIP3   OH228371   2.794   4.870  16.509  0.0244 -0.0258  0.2435
 2319TIP3    H128372   2.822   4.820  16.585  0.4929  1.4127  1.0654
 2319TIP3    H228373   2.875   4.894  16.464 -0.1450  0.4749  0.1955
 2320TIP3   OH228374   0.064   4.795   5.505 -0.6026 -0.1659  0.6774
 2320TIP3    H128375  -0.004   4.833   5.449 -1.6002 -0.8830  1.3773
 2320TIP3    H228376   0.139   4.782   5.447 -0.5144  2.0095  0.2036
 2321TIP3   OH228377   4.847   3.387   5.572 -0.4710  0.1230 -0.0374
 2321TIP3    H128378   4.807   3.323   5.630 -2.5170  1.5378  0.2285
 2321TIP3    H228379   4.863   3.463   5.628 -0.3305  0.7109 -0.8563
 2322TIP3   OH228380   1.410   4.587  16.094 -0.6505  0.3206 -0.2923
 2322TIP3    H128381   1.364   4.511  16.131  1.3329 -0.2866  1.1175
 2322TIP3    H228382   1.408   4.572  15.999 -2.6292 -0.0591 -0.2257
 2323TIP3   OH228383   3.767   0.920   2.535 -0.0876  0.7937 -0.0720
 2323TIP3    H128384   3.800   0.848   2.481  2.0481  0.5534  1.4361
 2323TIP3    H228385   3.748   0.990   2.472 -0.2920 -0.3711 -1.3686
 2324TIP3   OH228386   2.312   0.046   0.958 -0.0947 -0.3203 -0.0774
 2324TIP3    H128387   2.239   0.053   0.897 -1.2827  1.1211  1.4299
 2324TIP3    H228388   2.359   0.129   0.949 -0.2922 -0.0874  0.9529
 2325TIP3   OH228389   4.235   5.201  13.865 -0.7556  0.0040  0.1252
 2325TIP3    H128390   4.285   5.283  13.854 -2.9228  1.3519 -0.1814
 2325TIP3    H228391   4.233   5.187  13.959  1.4172 -0.9167  0.0923
 2326TIP3   OH228392   5.417   5.202  16.352  0.2803 -0.0961  0.0567
 2326TIP3    H128393   5.499   5.227  16.394 -0.0787 -0.2651  0.8753
 2326TIP3    H228394   5.381   5.135  16.409 -0.6256  0.2681 -0.0735
 2327TIP3   OH228395   6.026   4.355  14.318  0.0009  0.0891  0.0445
 2327TIP3    H128396   6.028   4.267  14.355  1.3231  0.0436 -0.0870
 2327TIP3    H228397   5.960   4.350  14.249 -1.5603 -0.1731  1.4877
 2328TIP3   OH228398   3.108   4.058  12.271 -0.0499  0.3327  0.4168
 2328TIP3    H128399   3.177   4.055  12.205  1.4227  0.7797  1.8688
 2328TIP3    H228400   3.038   4.109  12.230 -0.4273 -1.7958 -1.8501
 2329TIP3   OH228401   4.888   5.953  12.053  0.2391 -0.5419 -0.5520
 2329TIP3    H128402   4.803   5.950  12.009  0.6715 -0.6178 -1.4170
 2329TIP3    H228403   4.875   6.010  12.128 -1.1281 -2.1842  0.5521
 2330TIP3   OH228404   0.701   1.957   0.363  0.5086  0.0964 -0.0524
 2330TIP3    H128405   0.769   1.968   0.297 -0.3290 -0.0277 -0.9554
 2330TIP3    H228406   0.653   2.039   0.361  0.4301  0.0595  0.3497
 2331TIP3   OH228407   2.178   5.406  11.795  0.1780  0.5860  0.1683
 2331TIP3    H128408   2.148   5.332  11.741  1.8004 -0.0063  0.0164
 2331TIP3    H228409   2.273   5.404  11.786  0.2619  2.7336  0.1485
 2332TIP3   OH228410   2.201   1.870   1.765  0.0641  0.1314  0.0190
 2332TIP3    H128411   2.120   1.832   1.798  0.0839  2.0026  2.5690
 2332TIP3    H228412   2.264   1.859   1.837  0.8648  2.2842 -0.2732
 2333TIP3   OH228413   2.119   1.164  15.254  0.3940  0.3246  0.4426
 2333TIP3    H128414   2.103   1.150  15.347 -0.0549  1.0034  0.4744
 2333TIP3    H228415   2.031   1.172  15.216  0.5794  0.2143 -0.0125
 2334TIP3   OH228416   1.247   3.381  15.457  0.2659 -0.1554  0.4033
 2334TIP3    H128417   1.307   3.396  15.384 -0.7902 -1.5058 -0.8166
 2334TIP3    H228418   1.254   3.287  15.474 -0.6795 -0.1267  0.9830
 2335TIP3   OH228419   0.095   1.108  16.097  0.3459  0.0950  0.3524
 2335TIP3    H128420   0.145   1.150  16.167 -0.2660  0.3418  0.6545
 2335TIP3    H228421   0.014   1.159  16.092  0.4511  0.1715 -0.6450
 2336TIP3   OH228422   0.205   6.462   0.114  0.4032  0.0765 -0.1522
 2336TIP3    H128423   0.266   6.531   0.140  0.7949 -0.7849  1.3176
 2336TIP3    H228424   0.260   6.391   0.081 -0.0022  0.4386 -1.7278
 2337TIP3   OH228425   4.573   2.719  15.759  0.0914  0.5073 -0.6559
 2337TIP3    H128426   4.533   2.801  15.730 -0.9583  0.1065 -0.4066
 2337TIP3    H228427   4.581   2.666  15.680  0.7056  0.8157 -0.8050
 2338TIP3   OH228428   4.630   1.751  12.664 -0.2421 -0.4224 -0.6704
 2338TIP3    H128429   4.644   1.666  12.705  2.6620  0.2580 -0.0422
 2338TIP3    H228430   4.648   1.737  12.571 -1.2224 -0.7590 -0.8239
 2339TIP3   OH228431   1.056   0.574   5.803  0.1688  0.2924  0.3990
 2339TIP3    H128432   1.035   0.574   5.896 -2.0065 -1.4282 -0.0010
 2339TIP3    H228433   0.982   0.618   5.762 -0.3421 -1.5045 -0.7159
 2340TIP3   OH228434   5.220   4.713  15.308  0.6526 -0.3096 -0.3608
 2340TIP3    H128435   5.234   4.807  15.301  0.8957 -0.3877 -0.9405
 2340TIP3    H228436   5.153   4.704  15.376  1.0642  0.2444  0.1286
 2341TIP3   OH228437   1.925   1.628   1.578 -0.3769 -0.0583 -0.3994
 2341TIP3    H128438   1.892   1.687   1.645 -2.9797 -1.8802  0.0920
 2341TIP3    H228439   2.013   1.606   1.606 -1.3429 -0.6493  2.4157
 2342TIP3   OH228440   3.360   2.117  16.151 -0.2685  0.4037  0.6152
 2342TIP3    H128441   3.359   2.021  16.150 -0.8076  0.4095  0.1928
 2342TIP3    H228442   3.274   2.143  16.117  0.5644  1.0310 -1.1287
 2343TIP3   OH228443   1.731   4.370   1.905 -0.4057 -0.1627  0.1379
 2343TIP3    H128444   1.814   4.417   1.899  1.2360 -2.6867  1.3559
 2343TIP3    H228445   1.738   4.299   1.841 -1.1744 -1.0329  0.9805
 2344TIP3   OH228446   3.442   2.545  14.333 -0.0531 -0.7241  0.2710
 2344TIP3    H128447   3.354   2.516  14.309 -0.3671  0.9690 -0.8028
 2344TIP3    H228448   3.428   2.615  14.396  0.4389  0.5689 -1.0156
 2345TIP3   OH228449   2.318   3.990   2.589 -0.1901 -0.0271  0.0911
 2345TIP3    H128450   2.278   4.042   2.659  1.0745  1.9836 -0.5911
 2345TIP3    H228451   2.279   4.024   2.508 -0.6710 -1.4174 -0.2841
 2346TIP3   OH228452   2.492   0.330   5.225 -0.2636 -0.6456 -0.1859
 2346TIP3    H128453   2.407   0.302   5.260 -0.3094 -2.3793 -1.5692
 2346TIP3    H228454   2.555   0.303   5.291 -0.7352  0.4115  0.7294
 2347TIP3   OH228455   0.699   3.255   3.227  1.0781 -0.0534 -0.7727
 2347TIP3    H128456   0.762   3.266   3.298  0.8620  0.7365 -0.6922
 2347TIP3    H228457   0.710   3.332   3.172 -0.3108  0.4683 -0.3575
 2348TIP3   OH228458   3.810   5.526  12.719 -1.1145 -0.1300 -0.1068
 2348TIP3    H128459   3.830   5.457  12.782 -2.2483  1.0121  1.5833
 2348TIP3    H228460   3.859   5.502  12.641  0.6204 -1.4412  1.2989
 2349TIP3   OH228461   2.830   5.121  11.759 -0.0655  0.4617  0.3758
 2349TIP3    H128462   2.844   5.179  11.684 -0.6599 -0.9252 -0.8515
 2349TIP3    H228463   2.911   5.129  11.810  1.5224 -0.5278 -1.8064
 2350TIP3   OH228464   0.000   4.086   1.155  0.5375  0.4513  0.0217
 2350TIP3    H128465  -0.039   4.111   1.239  1.2143 -2.0436  1.1637
 2350TIP3    H228466   0.090   4.118   1.160  0.7543 -0.1990  0.5503
 2351TIP3   OH228467   4.897   4.184   1.235  0.6369  0.2684  0.8293
 2351TIP3    H128468   4.951   4.116   1.194 -1.5331 -0.6667 -0.6893
 2351TIP3    H228469   4.809   4.170   1.198 -0.6952  1.6319  3.2266
 2352TIP3   OH228470   5.197   1.282   2.716 -0.0801 -0.2186 -0.4558
 2352TIP3    H128471   5.162   1.331   2.642 -0.9517 -1.3105 -0.8033
 2352TIP3    H228472   5.169   1.192   2.700  0.4433 -0.6204  0.7725
 2353TIP3   OH228473   5.308   0.339  13.394 -0.5193  1.0149 -0.0685
 2353TIP3    H128474   5.371   0.409  13.410 -0.6118  1.3345 -1.0150
 2353TIP3    H228475   5.295   0.340  13.299  0.2001 -0.9064 -0.2352
 2354TIP3   OH228476   4.301   5.553   5.092  0.1006 -0.7698 -0.8169
 2354TIP3    H128477   4.311   5.630   5.148  1.6077 -2.5228  1.5467
 2354TIP3    H228478   4.207   5.538   5.088 -0.2295  1.1960 -1.4314
 2355TIP3   OH228479   4.441   0.736   0.545  0.3167 -0.1140  0.1284
 2355TIP3    H128480   4.489   0.678   0.485  1.9911 -1.2589  2.4161
 2355TIP3    H228481   4.362   0.687   0.567  1.0019 -0.9198  0.8910
 2356TIP3   OH228482   3.466   2.410  15.476 -0.2479  0.3487 -0.0888
 2356TIP3    H128483   3.508   2.399  15.391 -1.7614  1.6394 -1.0561
 2356TIP3    H228484   3.474   2.324  15.518 -0.2500 -0.5704 -1.8833
 2357TIP3   OH228485   0.633   0.575  13.482  0.3572 -0.1725  0.2094
 2357TIP3    H128486   0.657   0.662  13.512 -1.1320  0.5782 -0.6808
 2357TIP3    H228487   0.614   0.526  13.563  0.6422  0.4827  0.6810
 2358TIP3   OH228488   2.326   3.840  12.287 -0.2264  0.3891 -0.1749
 2358TIP3    H128489   2.381   3.772  12.248 -0.2255 -0.7507  1.7066
 2358TIP3    H228490   2.386   3.889  12.345 -0.5457  1.0861 -0.4214
 2359TIP3   OH228491   3.510   4.865   3.207  0.2213  0.0394  0.5481
 2359TIP3    H128492   3.502   4.867   3.112  2.8015  0.5934  0.2908
 2359TIP3    H228493   3.439   4.806   3.235 -1.0002  0.3590 -1.6131
 2360TIP3   OH228494   2.416   4.919   0.553 -0.0162  0.3734  0.8589
 2360TIP3    H128495   2.356   4.847   0.536 -0.2207  1.0364 -1.4839
 2360TIP3    H228496   2.367   4.998   0.528  1.8677  0.9043 -1.5521
 2361TIP3   OH228497   3.605   0.704   2.778 -0.2226 -0.1783 -0.5437
 2361TIP3    H128498   3.539   0.685   2.711  0.4825  1.4195 -1.7648
 2361TIP3    H228499   3.679   0.647   2.756 -0.6743 -1.0355  0.0632
 2362TIP3   OH228500   6.409   3.387   3.142 -0.1470  0.0174  0.0977
 2362TIP3    H128501   6.474   3.422   3.204  0.5658  0.6159 -0.9594
 2362TIP3    H228502   6.450   3.396   3.056 -1.8842  1.0476 -0.6863
 2363TIP3   OH228503   0.792   5.370   1.012  0.4553 -0.6511 -0.0071
 2363TIP3    H128504   0.794   5.465   1.029  2.5221 -0.5617 -0.4484
 2363TIP3    H228505   0.718   5.339   1.063  0.9863  0.9276  1.8920
 2364TIP3   OH228506   1.234   0.302   5.090  0.4667  0.6618 -0.5617
 2364TIP3    H128507   1.216   0.327   5.180 -0.8018  0.0940 -0.6344
 2364TIP3    H228508   1.170   0.350   5.038 -0.7503 -1.2060 -0.8760
 2365TIP3   OH228509   5.576   2.500  17.458  0.6593 -0.1416 -0.4687
 2365TIP3    H128510   5.505   2.456  17.410  1.3556 -0.9755 -0.7477
 2365TIP3    H228511   5.565   2.592  17.435  1.7112 -0.6150 -3.2926
 2366TIP3   OH228512   4.689   2.459   6.470  0.3450  0.3906 -0.0412
 2366TIP3    H128513   4.707   2.366   6.484  3.0826  1.0713  1.8835
 2366TIP3    H228514   4.616   2.478   6.529  0.9713 -0.2040  0.9563
 2367TIP3   OH228515   0.582   3.090  12.203  0.1596  0.3575  0.2021
 2367TIP3    H128516   0.605   3.151  12.133 -0.8195 -0.9824 -1.3762
 2367TIP3    H228517   0.495   3.118  12.232  0.9336  1.4663  1.5924
 2368TIP3   OH228518   4.002   4.192   2.244 -0.2058  0.0624 -0.1983
 2368TIP3    H128519   3.920   4.227   2.280 -0.6105 -1.2146  0.1802
 2368TIP3    H228520   4.042   4.146   2.317  0.1281 -0.5572 -0.7641
 2369TIP3   OH228521   6.199   6.342  14.327 -0.1435  1.1772 -0.4018
 2369TIP3    H128522   6.285   6.310  14.354 -0.1068  1.1182 -0.5879
 2369TIP3    H228523   6.206   6.353  14.232 -0.4746  0.7659 -0.4750
 2370TIP3   OH228524   0.304   2.278   2.907  0.1242  0.3562  0.4310
 2370TIP3    H128525   0.359   2.243   2.837  1.0288  1.1118  0.7460
 2370TIP3    H228526   0.249   2.343   2.864  0.3892  0.5265  0.3468
 2371TIP3   OH228527   3.301   0.827  14.561  0.6347 -0.4239  0.3642
 2371TIP3    H128528   3.336   0.781  14.485 -0.1903 -0.2994 -0.0970
 2371TIP3    H228529   3.258   0.759  14.613  0.3474 -0.3505  0.2233
 2372TIP3   OH228530   3.287   2.509  15.184  0.2413  0.5274 -0.1112
 2372TIP3    H128531   3.270   2.550  15.099 -0.0469 -0.1428 -0.3819
 2372TIP3    H228532   3.249   2.422  15.177 -1.6959  1.1688  1.4395
 2373TIP3   OH228533   0.129   4.864  12.872 -0.2934 -0.3985 -0.2257
 2373TIP3    H128534   0.113   4.826  12.958 -0.1396 -0.4208 -0.2069
 2373TIP3    H228535   0.112   4.958  12.883  2.3938  0.0895  0.5456
 2374TIP3   OH228536   1.055   4.048   5.861  0.1128  0.6421  0.1058
 2374TIP3    H128537   1.114   4.102   5.913  0.5084 -0.5464  0.9215
 2374TIP3    H228538   1.102   4.034   5.779 -0.6163  2.7213 -0.7507
 2375TIP3   OH228539   2.052   0.227   3.454 -0.2377 -0.0255 -0.1224
 2375TIP3    H128540   2.003   0.304   3.483 -1.3584 -0.1495 -1.5542
 2375TIP3    H228541   1.992   0.154   3.469  0.4111 -0.4993  0.2288
 2376TIP3   OH228542   3.246   1.058  13.347 -0.2323 -0.5299  0.0187
 2376TIP3    H128543   3.223   1.082  13.258 -0.0697 -0.1881  0.0646
 2376TIP3    H228544   3.259   1.142  13.392 -2.8993 -0.6036  1.0741
 2377TIP3   OH228545   4.395   5.400   3.319  0.5551  0.6486 -0.1360
 2377TIP3    H128546   4.388   5.362   3.232  1.6683  1.2438 -0.5151
 2377TIP3    H228547   4.380   5.494   3.306 -1.7893  0.4432  0.7242
 2378TIP3   OH228548   0.587   2.620   3.843 -0.7090  0.3279  0.2300
 2378TIP3    H128549   0.599   2.712   3.870  1.1079 -0.0023  0.6967
 2378TIP3    H228550   0.619   2.618   3.753 -3.8516  0.7759 -1.0142
 2379TIP3   OH228551   0.680   1.338   4.345 -0.3257  0.1399 -0.1886
 2379TIP3    H128552   0.619   1.410   4.361  0.0104  0.4963 -0.4894
 2379TIP3    H228553   0.762   1.366   4.388 -0.4957 -0.5394  0.6187
 2380TIP3   OH228554   4.446   1.818   4.507  0.2291 -0.2206  0.4084
 2380TIP3    H128555   4.467   1.725   4.510  0.2333 -0.3082 -1.2746
 2380TIP3    H228556   4.486   1.849   4.426  1.6230  1.6307  1.6981
 2381TIP3   OH228557   0.010   2.770   0.131 -0.1589 -0.2880  0.3440
 2381TIP3    H128558   0.033   2.853   0.089 -0.3106 -1.0455 -1.3436
 2381TIP3    H228559  -0.003   2.791   0.223 -0.2805  1.5752 -0.0751
 2382TIP3   OH228560   2.681   5.754  17.350  0.0748  0.2008  0.4795
 2382TIP3    H128561   2.770   5.725  17.332 -0.4896 -0.6840 -1.1077
 2382TIP3    H228562   2.688   5.848  17.364  0.9954  0.6051 -2.1327
 2383TIP3   OH228563   2.730   6.631   0.498 -0.4421 -0.0932  0.3684
 2383TIP3    H128564   2.649   6.671   0.530 -0.8327 -0.5437 -0.0466
 2383TIP3    H228565   2.769   6.591   0.576 -1.4554 -1.2977  0.2947
 2384TIP3   OH228566   0.618   1.323  17.248 -0.2296  0.0556  0.0081
 2384TIP3    H128567   0.571   1.331  17.331  0.2635 -0.8416  0.3827
 2384TIP3    H228568   0.654   1.234  17.249  2.3218  1.0100  0.1776
 2385TIP3   OH228569   5.677   4.949  15.480  0.6320 -0.0452  0.0980
 2385TIP3    H128570   5.636   5.035  15.483  0.4652 -0.0040 -1.9023
 2385TIP3    H228571   5.605   4.888  15.471  0.6894 -0.5269  2.3504
 2386TIP3   OH228572   0.162   1.251   2.085 -0.3709  0.5723 -0.0066
 2386TIP3    H128573   0.115   1.330   2.113 -0.8954  0.2035  0.1805
 2386TIP3    H228574   0.127   1.232   1.998  0.6096  1.2071 -0.5534
 2387TIP3   OH228575   5.523   1.093   2.026  0.2291 -0.1669 -0.1180
 2387TIP3    H128576   5.542   1.172   2.077  0.3220 -0.7772  0.8240
 2387TIP3    H228577   5.524   1.022   2.091 -0.2960 -0.8803 -0.8702
 2388TIP3   OH228578   1.263   2.307   3.155  0.0400 -0.3973  0.6145
 2388TIP3    H128579   1.264   2.397   3.123  0.8112 -0.2959  0.8998
 2388TIP3    H228580   1.349   2.296   3.197  0.5604 -1.7505 -0.7453
 2389TIP3   OH228581   5.291   4.279  14.873  0.6494  0.6418  0.4012
 2389TIP3    H128582   5.325   4.228  14.800 -1.4289 -0.3386  0.0565
 2389TIP3    H228583   5.353   4.264  14.944  0.7829 -1.3597 -0.0852
 2390TIP3   OH228584   4.667   2.078  15.078 -0.0988 -0.0675 -0.0764
 2390TIP3    H128585   4.611   2.136  15.129  2.4785 -0.0093  3.0060
 2390TIP3    H228586   4.620   1.995  15.074 -1.5267  0.7069  0.0628
 2391TIP3   OH228587   0.630   5.046   5.412 -0.3633  0.1977 -0.0301
 2391TIP3    H128588   0.555   5.088   5.454  0.6220  0.1218  1.9080
 2391TIP3    H228589   0.678   5.117   5.371 -2.2078  0.0961 -2.6538
 2392TIP3   OH228590   2.473   3.666   4.361  0.4409  0.3756 -0.1877
 2392TIP3    H128591   2.523   3.686   4.281  0.1516  0.8224 -0.2606
 2392TIP3    H228592   2.407   3.736   4.366  0.8677  0.7283  0.7890
 2393TIP3   OH228593   4.229   0.233  11.155 -0.0157 -0.1982 -0.2042
 2393TIP3    H128594   4.202   0.207  11.067  1.1279  0.9273 -0.9214
 2393TIP3    H228595   4.204   0.159  11.211 -1.1796 -0.7232 -1.3905
 2394TIP3   OH228596   1.229   2.449   1.950  0.0182  0.2693  0.0364
 2394TIP3    H128597   1.296   2.420   2.012  0.3337  1.5127  0.3116
 2394TIP3    H228598   1.170   2.375   1.941  0.8599 -0.4853  0.5895
 2395TIP3   OH228599   2.191   1.775   3.771  0.5148 -0.4357  0.4448
 2395TIP3    H128600   2.184   1.722   3.850 -1.2480 -1.9199 -0.6483
 2395TIP3    H228601   2.136   1.731   3.707  1.7859  0.7938 -1.6015
 2396TIP3   OH228602   5.060   5.935  16.458  0.2687  0.5029 -0.5385
 2396TIP3    H128603   5.134   5.949  16.399 -0.0633 -0.0898 -1.1214
 2396TIP3    H228604   5.097   5.888  16.532  0.4317 -0.0475 -0.9615
 2397TIP3   OH228605   4.243   0.773  16.302 -0.4182 -0.1372  0.4089
 2397TIP3    H128606   4.154   0.738  16.294 -0.9528  1.0032  1.0642
 2397TIP3    H228607   4.245   0.846  16.239 -0.1575  0.2294  0.8369
 2398TIP3   OH228608   3.466   1.181  17.436  0.7437  0.5327 -0.0060
 2398TIP3    H128609   3.472   1.086  17.451  0.2420  0.3178 -1.0885
 2398TIP3    H228610   3.492   1.192  17.345 -0.0878  1.3314 -0.1533
 2399TIP3   OH228611   0.631   5.054   6.856 -0.3671  0.1723 -0.6049
 2399TIP3    H128612   0.693   5.119   6.889 -0.5059 -0.1997  0.4391
 2399TIP3    H228613   0.685   4.990   6.810  0.0195 -0.0542  0.1425
 2400TIP3   OH228614   4.419   3.652  17.146 -0.3807 -0.1088  0.5607
 2400TIP3    H128615   4.428   3.742  17.114 -0.9389 -0.0094  0.6672
 2400TIP3    H228616   4.330   3.648  17.181 -0.6832 -0.9586 -0.2600
 2401TIP3   OH228617   3.980   4.504  16.115  0.3070 -0.3638  0.6598
 2401TIP3    H128618   3.890   4.505  16.085  0.5219 -0.1542 -0.0013
 2401TIP3    H228619   3.985   4.431  16.177 -0.2034 -0.6556  0.3540
 2402TIP3   OH228620   5.180   1.220  14.717  1.1837  0.2371  0.2842
 2402TIP3    H128621   5.112   1.267  14.765  1.4243 -0.0575  0.9362
 2402TIP3    H228622   5.133   1.154  14.665  0.9693 -0.0185  0.7934
 2403TIP3   OH228623   0.488   5.546  14.640  0.7244  0.5021 -0.0308
 2403TIP3    H128624   0.409   5.516  14.595  1.0214  0.8633 -0.8166
 2403TIP3    H228625   0.462   5.555  14.732 -0.2792  1.0912 -0.3612
 2404TIP3   OH228626   0.522   2.018  11.174  0.0454  0.4191 -0.0304
 2404TIP3    H128627   0.515   2.069  11.094 -0.7000 -1.3394 -1.1456
 2404TIP3    H228628   0.561   2.078  11.237 -0.5899  2.2736 -1.3101
 2405TIP3   OH228629   6.695   5.797  11.957  0.2229  0.3314 -0.4171
 2405TIP3    H128630   6.647   5.857  11.900  0.6076  0.6646 -0.3953
 2405TIP3    H228631   6.738   5.736  11.897  0.4162  0.5223 -0.4733
 2406TIP3   OH228632   1.944   0.734   2.390  0.3603 -0.2897  0.4397
 2406TIP3    H128633   2.019   0.774   2.345  1.0804 -0.3546  1.5383
 2406TIP3    H228634   1.941   0.645   2.357 -0.8308  0.4009 -1.5136
 2407TIP3   OH228635   5.953   2.252  17.464  0.2182 -0.2841  0.2346
 2407TIP3    H128636   5.864   2.286  17.454 -0.4461 -1.7857  0.7030
 2407TIP3    H228637   5.949   2.163  17.429  2.0256  0.2321 -1.4316
 2408TIP3   OH228638   0.337   0.134   1.888 -0.0543  0.0927  0.2088
 2408TIP3    H128639   0.413   0.150   1.943 -0.4683 -1.6879  1.4051
 2408TIP3    H228640   0.263   0.133   1.949 -1.0589  1.6257 -0.9052
 2409TIP3   OH228641   2.043   4.227   6.919  0.7761  0.0263 -0.1708
 2409TIP3    H128642   2.123   4.255   6.963  1.6569 -1.8896 -0.4609
 2409TIP3    H228643   2.067   4.220   6.827 -0.1214  0.7490 -0.4722
 2410TIP3   OH228644   4.883   5.327  15.713 -0.3850  0.3033 -0.0444
 2410TIP3    H128645   4.909   5.411  15.751  0.6756  0.0846 -0.2576
 2410TIP3    H228646   4.963   5.293  15.672 -0.7654 -0.8607  0.1285
 2411TIP3   OH228647   3.113   6.179  12.625  0.2211  0.0904  0.8879
 2411TIP3    H128648   3.080   6.158  12.712  0.8221  1.0904  1.3899
 2411TIP3    H228649   3.144   6.270  12.633  0.0980  0.2717 -0.4249
 2412TIP3   OH228650   2.621   3.774  15.782 -0.7009 -0.1821  0.3284
 2412TIP3    H128651   2.596   3.688  15.816 -0.8784 -0.5652 -0.7390
 2412TIP3    H228652   2.689   3.804  15.842 -0.9373 -0.8789  0.9602
 2413TIP3   OH228653   4.417   2.252  17.244  0.4053 -0.0188  0.1695
 2413TIP3    H128654   4.351   2.209  17.298 -0.0787 -0.4971 -0.7912
 2413TIP3    H228655   4.368   2.312  17.189  0.9273  0.6678  0.4376
 2414TIP3   OH228656   2.127   1.676   1.185  0.0084  0.6333 -0.4564
 2414TIP3    H128657   2.095   1.766   1.197  0.8036  0.6870  1.9331
 2414TIP3    H228658   2.135   1.665   1.091 -2.5680  2.1804 -0.9368
 2415TIP3   OH228659   4.369   3.423  11.640 -1.0611 -0.2100  0.0328
 2415TIP3    H128660   4.274   3.414  11.648 -1.0392  0.6458  1.9773
 2415TIP3    H228661   4.405   3.351  11.692 -0.6241 -0.6283 -0.8240
 2416TIP3   OH228662   4.348   4.597   2.910  0.0857  0.6407 -0.1665
 2416TIP3    H128663   4.373   4.661   2.976  0.2896 -1.8092  2.3059
 2416TIP3    H228664   4.258   4.574   2.931 -0.4311  0.9995 -1.8302
 2417TIP3   OH228665   2.741   6.607  16.354 -0.0022  0.5756  0.1287
 2417TIP3    H128666   2.756   6.611  16.260 -0.3638 -0.0055  0.0451
 2417TIP3    H228667   2.754   6.515  16.377  0.4651  0.7851  0.7118
 2418TIP3   OH228668   3.860   1.573  10.785 -0.1667 -0.1185 -0.0457
 2418TIP3    H128669   3.765   1.580  10.788 -0.1871 -0.4287  0.1265
 2418TIP3    H228670   3.892   1.646  10.838 -0.2234  1.7890 -2.5078
 2419TIP3   OH228671   4.830   0.497   0.500  0.6792 -0.5277 -0.0334
 2419TIP3    H128672   4.866   0.586   0.497 -1.2633  0.3468  0.3581
 2419TIP3    H228673   4.825   0.470   0.408 -2.2150  1.4067 -0.6077
 2420TIP3   OH228674   1.715   1.336  12.296 -0.0001 -0.1369  0.6072
 2420TIP3    H128675   1.810   1.337  12.313  0.2694 -0.4241 -0.7654
 2420TIP3    H228676   1.686   1.425  12.314  0.2304 -0.3899  2.4878
 2421TIP3   OH228677   1.640   2.777   1.452  0.2036  0.3317 -0.1872
 2421TIP3    H128678   1.660   2.705   1.392 -0.9429 -0.3753  0.2438
 2421TIP3    H228679   1.675   2.855   1.408 -0.6958 -0.1404 -1.8428
 2422TIP3   OH228680   0.943   1.789  15.407 -0.0869  0.4458  0.2450
 2422TIP3    H128681   0.969   1.867  15.456  0.6265  0.0601  0.4908
 2422TIP3    H228682   0.998   1.790  15.329  0.1436  0.0283  0.3990
 2423TIP3   OH228683   2.257   0.255  16.501  0.0922 -0.0503  0.5624
 2423TIP3    H128684   2.276   0.266  16.594 -1.9732  1.7427  0.8597
 2423TIP3    H228685   2.201   0.178  16.497 -0.9971  0.6837  1.0481
 2424TIP3   OH228686   3.177   3.464   3.016 -0.4490 -0.3260  0.1196
 2424TIP3    H128687   3.218   3.455   2.930  1.0425  0.1315  0.7444
 2424TIP3    H228688   3.085   3.444   3.001 -0.0317 -1.3164 -1.3718
 2425TIP3   OH228689   2.614   6.354  12.355 -0.3564 -0.3667 -0.6925
 2425TIP3    H128690   2.653   6.300  12.286  0.1503  0.1853 -0.8383
 2425TIP3    H228691   2.680   6.357  12.424 -0.1284  0.5781 -0.9422
 2426TIP3   OH228692   3.223   0.750  13.141  0.0995 -0.3097  0.1090
 2426TIP3    H128693   3.259   0.768  13.055 -0.7652 -0.4758 -0.2958
 2426TIP3    H228694   3.137   0.713  13.124  0.0938 -0.7539  1.0352
 2427TIP3   OH228695   3.827   4.935  14.077 -0.2179  0.2356  0.0365
 2427TIP3    H128696   3.746   4.908  14.120 -0.0051 -2.7462 -1.1755
 2427TIP3    H228697   3.799   4.997  14.010 -0.8854  2.5421  2.2544
 2428TIP3   OH228698   3.737   0.700  13.564 -0.3110 -0.0094 -0.2881
 2428TIP3    H128699   3.726   0.795  13.562 -1.0553 -0.0129  1.6715
 2428TIP3    H228700   3.827   0.686  13.535  0.0627  1.3711  0.1346
 2429TIP3   OH228701   6.675   6.438   0.281 -0.0197 -0.0761  0.0413
 2429TIP3    H128702   6.743   6.429   0.214  0.0793 -1.7610  0.3193
 2429TIP3    H228703   6.595   6.407   0.239  0.5011 -3.6206  1.3450
 2430TIP3   OH228704   3.840   6.685  13.478  0.3478  0.1035 -0.1538
 2430TIP3    H128705   3.908   6.619  13.467  0.6903  0.3362  0.5104
 2430TIP3    H228706   3.766   6.652  13.428  1.0459 -0.0149 -1.1234
 2431TIP3   OH228707   4.650   3.005  16.044 -0.3416 -0.4883 -0.1722
 2431TIP3    H128708   4.637   2.990  15.950  3.4528  1.0753 -1.1444
 2431TIP3    H228709   4.720   2.944  16.068 -2.3007 -1.9873  2.1557
 2432TIP3   OH228710   2.522   3.391  11.766  0.0399  0.7009 -0.4371
 2432TIP3    H128711   2.549   3.322  11.826  0.9582  0.3286 -1.2546
 2432TIP3    H228712   2.464   3.447  11.818  0.9253  0.4773  0.8365
 2433TIP3   OH228713   2.554   5.137  14.067 -0.0299  0.0858  0.1062
 2433TIP3    H128714   2.590   5.099  13.987 -0.2082  0.8489 -0.3417
 2433TIP3    H228715   2.461   5.114  14.065 -0.2920  1.1392 -0.5330
 2434TIP3   OH228716   1.199   3.007  11.324 -0.1218 -0.6576  0.2763
 2434TIP3    H128717   1.143   3.027  11.249 -0.0446  0.0910  0.4140
 2434TIP3    H228718   1.282   2.979  11.286 -0.1392 -0.4421  0.0803
 2435TIP3   OH228719   1.477   2.533   2.383 -0.3023 -0.2938 -0.0288
 2435TIP3    H128720   1.475   2.618   2.427 -0.2390  0.0110 -0.5936
 2435TIP3    H228721   1.527   2.549   2.303 -1.6389 -0.4748 -0.9309
 2436TIP3   OH228722   6.708   0.304  14.366  0.2709  0.1786  0.1206
 2436TIP3    H128723   6.677   0.275  14.452  0.6697 -3.5569 -0.7888
 2436TIP3    H228724   6.630   0.305  14.311  0.5609 -1.7765 -0.4061
 2437TIP3   OH228725   5.906   0.164  13.816 -0.9323  0.0001 -0.2436
 2437TIP3    H128726   5.912   0.098  13.747  0.9371 -0.1643  0.0253
 2437TIP3    H228727   5.983   0.149  13.870 -2.4781 -0.0758  2.0984
 2438TIP3   OH228728   2.826   1.077   4.127  0.2444  0.0766  0.1382
 2438TIP3    H128729   2.846   0.990   4.162 -0.1305 -0.3638 -0.7085
 2438TIP3    H228730   2.830   1.135   4.203  1.7440 -0.4639  0.5185
 2439TIP3   OH228731   2.122   5.090  11.384 -0.3828  0.3645  0.4176
 2439TIP3    H128732   2.057   5.023  11.363 -0.7602  0.9353 -0.2864
 2439TIP3    H228733   2.201   5.041  11.406 -0.6321 -0.3131 -0.1565
 2440TIP3   OH228734   5.529   1.164  17.505 -0.3776  0.0758  0.2772
 2440TIP3    H128735   5.508   1.097  17.570  1.0740 -0.1143  0.5975
 2440TIP3    H228736   5.599   1.125  17.453  0.1018  1.1314  0.1074
 2441TIP3   OH228737   4.850   5.032  15.177  0.1860 -0.0654  0.5960
 2441TIP3    H128738   4.757   5.011  15.171  0.1930  0.2044 -0.7852
 2441TIP3    H228739   4.861   5.107  15.118  1.3598 -0.3854  0.3827
 2442TIP3   OH228740   5.398   5.905   2.838  0.0258  0.0356 -0.0811
 2442TIP3    H128741   5.309   5.930   2.816 -0.0287 -0.2602 -0.2060
 2442TIP3    H228742   5.434   5.870   2.756  0.5765  1.0390 -0.2875
 2443TIP3   OH228743   3.268   0.615   6.276 -0.0283 -0.2268  0.5818
 2443TIP3    H128744   3.364   0.608   6.281 -0.0202  0.2874  1.4903
 2443TIP3    H228745   3.248   0.693   6.329 -0.7200  1.4898 -2.0292
 2444TIP3   OH228746   5.308   0.432  13.737  0.1429 -0.0983 -0.3202
 2444TIP3    H128747   5.261   0.407  13.816 -1.1579  0.5144 -0.8711
 2444TIP3    H228748   5.344   0.350  13.704 -0.3768 -0.5587  0.2301
 2445TIP3   OH228749   6.541   5.867   1.339  0.0973  0.4213 -0.4876
 2445TIP3    H128750   6.544   5.960   1.358 -0.3006 -0.0835  2.6461
 2445TIP3    H228751   6.449   5.843   1.352  0.4074 -0.5951 -0.0522
 2446TIP3   OH228752   5.860   6.483   1.541  0.1440 -0.5571  0.3389
 2446TIP3    H128753   5.796   6.539   1.499  0.4573 -1.2401 -1.1281
 2446TIP3    H228754   5.808   6.418   1.590 -0.2224  0.3103  1.1239
 2447TIP3   OH228755   3.008   4.827  12.751 -0.2112 -0.5953 -0.0433
 2447TIP3    H128756   3.036   4.736  12.742  0.8998 -0.2871  0.2059
 2447TIP3    H228757   3.086   4.878  12.731 -1.2657  0.3690 -2.0803
 2448TIP3   OH228758   2.284   4.438   3.437  0.5935 -0.2863 -0.2885
 2448TIP3    H128759   2.264   4.359   3.386  0.2221 -0.5921  0.3187
 2448TIP3    H228760   2.287   4.408   3.528 -2.5907  0.8648  0.3311
 2449TIP3   OH228761   3.022   6.545   4.881 -0.1420  0.0031  0.2818
 2449TIP3    H128762   2.951   6.559   4.820 -0.5348  0.7917  0.8977
 2449TIP3    H228763   2.986   6.569   4.966  0.8294  0.3405  0.6169
 2450TIP3   OH228764   2.148   1.684   4.249 -0.0619  0.1607  0.0375
 2450TIP3    H128765   2.201   1.763   4.263 -0.0933  0.0117  1.0202
 2450TIP3    H228766   2.210   1.612   4.258  0.2559  0.0787 -2.1978
 2451TIP3   OH228767   0.456   0.372   5.243 -0.5753 -0.3217 -0.1217
 2451TIP3    H128768   0.545   0.338   5.244 -0.7853 -0.8989  0.7596
 2451TIP3    H228769   0.418   0.341   5.326 -1.2880  0.7118 -0.0433
 2452TIP3   OH228770   4.129   0.077  12.405  0.6834 -0.6600 -0.1341
 2452TIP3    H128771   4.194   0.021  12.364  1.1083 -0.0687 -0.2782
 2452TIP3    H228772   4.062   0.017  12.438  2.4230 -1.4817  2.0965
 2453TIP3   OH228773   6.591   0.402  13.404 -0.4312  0.0627  0.0145
 2453TIP3    H128774   6.495   0.398  13.394 -0.5937 -1.9070  1.7940
 2453TIP3    H228775   6.622   0.423  13.316 -2.5279  1.8997 -0.3848
 2454TIP3   OH228776   3.651   1.755   5.573 -0.2299 -0.4922  0.0212
 2454TIP3    H128777   3.566   1.715   5.556 -1.9911  2.7709  0.3548
 2454TIP3    H228778   3.670   1.807   5.494  0.6326  0.1621  0.6380
 2455TIP3   OH228779   3.398   4.291  12.824 -0.2447 -0.4937 -0.1889
 2455TIP3    H128780   3.400   4.343  12.744  0.2891 -0.6179 -0.2576
 2455TIP3    H228781   3.453   4.339  12.886  1.6909 -1.8142 -0.7836
 2456TIP3   OH228782   6.449   1.562   2.545 -0.1101 -0.2665 -0.0280
 2456TIP3    H128783   6.413   1.640   2.502 -1.5528 -1.2416 -0.7062
 2456TIP3    H228784   6.448   1.583   2.638 -0.4278  0.5481 -0.2045
 2457TIP3   OH228785   6.130   0.975   0.886 -0.1535  0.0145 -0.3549
 2457TIP3    H128786   6.193   0.910   0.855 -0.9195 -0.1426 -1.5987
 2457TIP3    H228787   6.167   1.005   0.969  0.6427 -1.3831 -0.1702
 2458TIP3   OH228788   0.292   6.654  11.399  0.6183 -0.2299 -0.2002
 2458TIP3    H128789   0.380   6.690  11.387  1.5175 -2.4554 -0.6511
 2458TIP3    H228790   0.251   6.664  11.313  0.8391 -0.2432 -0.3088
 2459TIP3   OH228791   5.588   6.690   3.132 -0.3765 -0.0566 -0.0605
 2459TIP3    H128792   5.517   6.666   3.191 -2.3505  0.0285 -2.3029
 2459TIP3    H228793   5.640   6.753   3.183 -1.2321 -0.9409  2.0236
 2460TIP3   OH228794   2.686   5.946   5.964  0.1470  0.5294  0.1689
 2460TIP3    H128795   2.692   6.034   5.928  1.6313  0.7290  0.8433
 2460TIP3    H228796   2.686   5.958   6.059  3.2233 -0.2376  0.3961
 2461TIP3   OH228797   2.590   5.473  17.069 -0.3026  0.1395 -0.1642
 2461TIP3    H128798   2.549   5.551  17.108  0.5300  0.4799  0.0541
 2461TIP3    H228799   2.606   5.415  17.143  0.3594  0.3566 -0.1387
 2462TIP3   OH228800   0.717   3.609  15.095 -0.4444  0.3822 -0.3220
 2462TIP3    H128801   0.693   3.691  15.139  0.5073  0.0074  0.9582
 2462TIP3    H228802   0.711   3.542  15.163  1.6614 -0.1187 -0.5506
 2463TIP3   OH228803   0.372   2.675  14.061 -0.1840 -0.1268  0.0372
 2463TIP3    H128804   0.294   2.658  14.114  0.3493  0.4429  1.0306
 2463TIP3    H228805   0.404   2.760  14.091 -0.1923  0.5147 -1.6343
 2464TIP3   OH228806   2.430   0.486   2.127  0.0761 -0.4842  0.1829
 2464TIP3    H128807   2.432   0.404   2.176 -0.0262 -1.7602 -1.8352
 2464TIP3    H228808   2.459   0.462   2.039 -1.6441  1.2952 -0.9519
 2465TIP3   OH228809   0.784   3.422  14.068 -0.1172 -0.3413 -0.4727
 2465TIP3    H128810   0.751   3.437  13.979  0.4642 -1.0352 -0.8166
 2465TIP3    H228811   0.724   3.358  14.105  1.2180 -2.1960 -1.3693
 2466TIP3   OH228812   3.445   0.488  13.830 -0.0377 -0.8879  0.3152
 2466TIP3    H128813   3.409   0.540  13.757 -0.7698 -0.2566  1.1056
 2466TIP3    H228814   3.530   0.458  13.798  0.2909  0.5937 -0.2758
 2467TIP3   OH228815   5.951   5.629   4.191 -0.6658 -0.6155 -0.7298
 2467TIP3    H128816   5.892   5.582   4.133 -0.1153 -1.3154 -0.7381
 2467TIP3    H228817   6.025   5.569   4.204  0.0705  0.2599 -0.7752
 2468TIP3   OH228818   0.100   6.678  12.548  0.6810 -0.2213  0.8397
 2468TIP3    H128819   0.135   6.620  12.481 -0.7479  0.9129 -0.9901
 2468TIP3    H228820   0.005   6.673  12.537  0.4695  1.2024  1.7175
 2469TIP3   OH228821   4.879   5.860  12.839  0.5519  0.0323  0.1896
 2469TIP3    H128822   4.849   5.769  12.839  0.0031  0.2081  0.1417
 2469TIP3    H228823   4.903   5.877  12.930 -0.4128  0.1754  0.4301
 2470TIP3   OH228824   0.384   0.066   2.796 -0.5214  0.0817 -0.0105
 2470TIP3    H128825   0.407   0.140   2.851  0.0694  1.2993 -1.7979
 2470TIP3    H228826   0.297   0.086   2.763  0.1056  0.6019 -1.4203
 2471TIP3   OH228827   0.952   5.322   5.693  0.0316  0.2227 -0.3363
 2471TIP3    H128828   0.880   5.375   5.659  0.1581  0.4577 -0.2415
 2471TIP3    H228829   0.917   5.281   5.772  0.2808  1.0610  0.2269
 2472TIP3   OH228830   0.415   4.248  11.950  0.1117 -0.6538 -0.3879
 2472TIP3    H128831   0.320   4.263  11.958 -0.2600 -2.9722  0.4794
 2472TIP3    H228832   0.448   4.256  12.039  0.5921 -0.6443 -0.5645
 2473TIP3   OH228833   1.289   0.595  15.775 -0.3528 -0.1369  0.1964
 2473TIP3    H128834   1.246   0.554  15.700 -0.9843  1.4766 -0.3791
 2473TIP3    H228835   1.222   0.652  15.813  1.3172  3.1078 -1.2284
 2474TIP3   OH228836   5.134   5.793  13.948  0.2636  0.7048 -0.2441
 2474TIP3    H128837   5.216   5.842  13.955  1.5501 -1.2804 -0.2986
 2474TIP3    H228838   5.104   5.809  13.859  1.6287  0.0140 -0.8663
 2475TIP3   OH228839   3.710   0.984  13.487  0.3477  0.3906 -0.0967
 2475TIP3    H128840   3.670   0.960  13.403  1.2787  0.1164 -0.4787
 2475TIP3    H228841   3.685   1.076  13.500  0.4806  0.5385 -0.8457
 2476TIP3   OH228842   0.698   4.258  16.458  0.6516 -0.6026  0.6194
 2476TIP3    H128843   0.742   4.208  16.526  2.3570  0.2032  0.1778
 2476TIP3    H228844   0.687   4.196  16.386 -0.3982 -1.2270  1.2927
 2477TIP3   OH228845   2.662   4.321  16.189 -0.0443  0.0395  0.1093
 2477TIP3    H128846   2.736   4.349  16.242 -0.4670  2.2475 -0.3877
 2477TIP3    H228847   2.685   4.346  16.100 -0.6379 -0.8784 -0.3205
 2478TIP3   OH228848   0.427   3.851  13.379  0.0347  0.3160  0.1442
 2478TIP3    H128849   0.334   3.839  13.360  0.4546  0.0745 -2.0808
 2478TIP3    H228850   0.464   3.762  13.371  0.4666  0.4189  0.9496
 2479TIP3   OH228851   1.862   4.319  12.921 -0.0211 -0.6375 -0.3450
 2479TIP3    H128852   1.813   4.275  12.851 -0.5774 -0.9773  0.2545
 2479TIP3    H228853   1.935   4.361  12.875 -0.6390 -0.4544 -1.2064
 2480TIP3   OH228854   2.753   6.101   1.879 -0.1901  0.1517  0.1858
 2480TIP3    H128855   2.737   6.050   1.958 -0.5551  0.1938  0.1422
 2480TIP3    H228856   2.848   6.101   1.869 -0.1005  0.6272  0.9424
 2481TIP3   OH228857   1.629   1.647   1.944 -0.2818  0.5583 -0.2500
 2481TIP3    H128858   1.670   1.560   1.951  0.0967  0.7842  0.5254
 2481TIP3    H228859   1.625   1.678   2.035  0.2707  1.6652 -0.5920
 2482TIP3   OH228860   4.164   0.939   1.784 -0.1720  0.2944 -0.3241
 2482TIP3    H128861   4.253   0.924   1.754 -0.6082  0.4444 -1.8091
 2482TIP3    H228862   4.109   0.906   1.712 -1.3964 -1.9068  1.4742
 2483TIP3   OH228863   1.119   5.861  12.670 -0.8369 -0.1938 -0.6511
 2483TIP3    H128864   1.188   5.927  12.663 -1.1306  0.3718  1.2616
 2483TIP3    H228865   1.044   5.909  12.706 -0.9926 -1.5897  1.0130
 2484TIP3   OH228866   0.992   6.595  15.850 -0.6251  0.1092  0.4944
 2484TIP3    H128867   0.904   6.571  15.820 -0.6895 -1.0868  1.5550
 2484TIP3    H228868   0.980   6.622  15.941  0.0875 -0.0273  0.6313
 2485TIP3   OH228869   2.438   5.014  17.082  0.5847 -0.4227  0.3884
 2485TIP3    H128870   2.514   5.021  17.024 -0.4133  0.2796 -0.8838
 2485TIP3    H228871   2.448   4.928  17.123  1.2582 -1.0046 -0.9178
 2486TIP3   OH228872   2.544   0.833  15.778 -0.1905  0.6338  0.0310
 2486TIP3    H128873   2.560   0.813  15.686 -1.1364  0.9435 -0.2125
 2486TIP3    H228874   2.517   0.924  15.779 -1.1920  0.3462  0.4869
 2487TIP3   OH228875   4.347   0.951  14.930  0.3323  0.4051  0.1368
 2487TIP3    H128876   4.395   1.033  14.917  1.4458 -0.4133 -1.1145
 2487TIP3    H228877   4.390   0.910  15.004 -1.4019  1.7401  1.9904
 2488TIP3   OH228878   3.235   0.194  16.440 -0.0825  0.3949 -0.4220
 2488TIP3    H128879   3.152   0.180  16.486  1.2135 -0.6808  1.7664
 2488TIP3    H228880   3.237   0.127  16.372  0.6366 -2.3296  2.0867
 2489TIP3   OH228881   5.738   3.900  16.886 -0.1683 -0.4891 -0.3023
 2489TIP3    H128882   5.791   3.895  16.806  1.8408  1.9071  0.7417
 2489TIP3    H228883   5.774   3.832  16.943  0.5965 -0.0521 -0.2576
 2490TIP3   OH228884   1.060   5.587  14.870  0.0533 -0.2333  0.3920
 2490TIP3    H128885   1.015   5.551  14.947 -0.0806 -0.5434  0.1690
 2490TIP3    H228886   1.057   5.681  14.883 -1.7352 -0.1772 -0.2176
 2491TIP3   OH228887   6.693   2.495  15.298  0.4539  0.3153  0.0284
 2491TIP3    H128888   6.683   2.438  15.222  2.1897 -0.4234  0.2970
 2491TIP3    H228889   6.668   2.582  15.267 -0.7953 -0.3293 -0.8096
 2492TIP3   OH228890   4.279   2.798  16.405 -0.4231  0.0591  0.2268
 2492TIP3    H128891   4.309   2.707  16.407  1.3938  0.6123 -0.2094
 2492TIP3    H228892   4.359   2.849  16.390 -1.7691  1.5341 -2.7109
 2493TIP3   OH228893   6.284   1.563  14.969 -0.0327 -0.0702 -0.1802
 2493TIP3    H128894   6.336   1.605  14.901 -1.2184  1.0810 -0.4336
 2493TIP3    H228895   6.202   1.613  14.970 -0.4398 -0.7113  1.3858
 2494TIP3   OH228896   0.875   1.162   5.677 -0.1497 -0.0417  0.6116
 2494TIP3    H128897   0.832   1.104   5.740 -1.5878 -0.3406 -0.6117
 2494TIP3    H228898   0.821   1.158   5.599  2.4199 -0.9060 -1.2379
 2495TIP3   OH228899   1.507   3.944   5.422  0.3810  0.7912  0.0053
 2495TIP3    H128900   1.549   3.859   5.435 -0.8355 -0.0132 -1.0334
 2495TIP3    H228901   1.542   3.975   5.338  0.2377  0.9310 -0.0019
 2496TIP3   OH228902   1.926   6.018   0.091  0.8496  0.1135 -0.4105
 2496TIP3    H128903   1.913   5.941   0.035  1.1108  0.4425 -0.9282
 2496TIP3    H228904   1.938   6.091   0.030 -0.4933  0.7683  0.0650
 2497TIP3   OH228905   2.782   5.292  14.088  0.0127  0.8517 -0.1030
 2497TIP3    H128906   2.774   5.276  13.994  1.8466 -2.1997  0.1248
 2497TIP3    H228907   2.702   5.255  14.126  0.7192 -0.9546 -0.2700
 2498TIP3   OH228908   3.243   0.708  11.149 -0.4599  0.5628 -0.4617
 2498TIP3    H128909   3.321   0.763  11.146 -0.3291  0.4885  1.0795
 2498TIP3    H228910   3.276   0.619  11.162 -0.7380  0.2571 -1.6461
 2499TIP3   OH228911   3.095   4.552   2.504  0.2760 -0.2499  0.1281
 2499TIP3    H128912   3.131   4.591   2.425  0.4191  1.7302  1.1308
 2499TIP3    H228913   3.165   4.557   2.569 -0.1043 -1.0957  0.6330
 2500TIP3   OH228914   2.358   2.194  13.033  0.1526 -0.7453  0.0346
 2500TIP3    H128915   2.449   2.218  13.048 -0.0713  0.0076  0.2311
 2500TIP3    H228916   2.308   2.256  13.086 -0.4145 -2.7673  2.0082
 2501TIP3   OH228917   4.559   1.348  14.966 -0.2478  0.0377 -0.3276
 2501TIP3    H128918   4.468   1.325  14.948  0.3073 -0.8127 -2.2864
 2501TIP3    H228919   4.564   1.442  14.947 -0.4867 -0.1483 -1.4093
 2502TIP3   OH228920   5.955   5.240  16.839 -0.0905 -0.3212 -0.4649
 2502TIP3    H128921   6.034   5.281  16.803 -0.6966  1.0939 -0.2562
 2502TIP3    H228922   5.973   5.146  16.836  1.9162 -0.0126  0.2992
 2503TIP3   OH228923   0.296   5.286   0.183 -0.1003  0.0356  0.3120
 2503TIP3    H128924   0.318   5.286   0.276 -0.0789  2.1679  0.3514
 2503TIP3    H228925   0.274   5.195   0.163  3.3919 -1.2649  1.5576
 2504TIP3   OH228926   2.406   2.421   5.723 -0.0156  0.3650 -0.4232
 2504TIP3    H128927   2.314   2.409   5.748  0.3257 -0.2778  0.6247
 2504TIP3    H228928   2.455   2.383   5.796  1.0806 -1.2638 -1.9136
 2505TIP3   OH228929   2.167   1.041  14.540  0.9321  0.6063 -0.0900
 2505TIP3    H128930   2.184   1.097  14.465  0.6174  0.6489 -0.1310
 2505TIP3    H228931   2.108   0.973  14.506  1.8802 -0.1680 -0.2229
 2506TIP3   OH228932   4.256   2.030   1.310  0.0256  0.5898 -0.6493
 2506TIP3    H128933   4.330   2.079   1.274  1.5448 -1.5198 -0.5577
 2506TIP3    H228934   4.281   2.012   1.400  0.1710 -1.5500 -1.0844
 2507TIP3   OH228935   5.645   1.143  14.385 -0.9319  0.3667 -0.6332
 2507TIP3    H128936   5.556   1.143  14.422 -0.9981 -0.1740 -0.7826
 2507TIP3    H228937   5.696   1.196  14.446 -1.0518 -0.4875  0.2232
 2508TIP3   OH228938   6.395   4.164   4.283 -0.2205 -0.2628 -0.1208
 2508TIP3    H128939   6.377   4.246   4.330  4.9021 -0.7153  3.5433
 2508TIP3    H228940   6.446   4.191   4.207  0.2780  0.0800  0.3216
 2509TIP3   OH228941   5.375   0.691  13.583 -0.3302  0.6711  0.3284
 2509TIP3    H128942   5.346   0.692  13.491  0.4898 -1.6323 -0.0362
 2509TIP3    H228943   5.367   0.599  13.609  1.0269  0.9922  2.0436
 2510TIP3   OH228944   1.677   6.222   1.736 -0.0802 -0.1726 -0.3455
 2510TIP3    H128945   1.669   6.317   1.737  1.7630  0.0728 -1.9680
 2510TIP3    H228946   1.715   6.202   1.650 -1.5512 -2.5025 -0.5622
 2511TIP3   OH228947   0.999   6.615   0.671  0.0396  0.0708  0.3350
 2511TIP3    H128948   0.945   6.648   0.600  0.7196 -0.3352 -0.3833
 2511TIP3    H228949   0.945   6.627   0.750 -0.7496  0.4421 -0.2484
 2512TIP3   OH228950   5.574   0.707  10.932  0.2617 -0.0089  0.6768
 2512TIP3    H128951   5.550   0.623  10.891  1.7934 -0.6895  1.1175
 2512TIP3    H228952   5.592   0.685  11.023 -1.5109  1.2203  1.3843
 2513TIP3   OH228953   0.227   0.850  17.512  0.3713  0.2047  0.5105
 2513TIP3    H128954   0.145   0.881  17.551  0.2993  1.2089 -0.3960
 2513TIP3    H228955   0.207   0.841  17.419  0.6760 -1.6810  0.5831
 2514TIP3   OH228956   2.335   3.962  17.085  0.2918  0.5130  0.6155
 2514TIP3    H128957   2.314   3.988  16.996 -0.1291  1.5425  1.0050
 2514TIP3    H228958   2.250   3.949  17.127  0.4450  1.5312  1.2847
 2515TIP3   OH228959   6.603   6.045   6.094 -0.3818  0.2092  0.2030
 2515TIP3    H128960   6.529   5.985   6.096  0.4383 -0.8426  0.3864
 2515TIP3    H228961   6.600   6.085   6.007 -0.2334 -1.0611 -0.4151
 2516TIP3   OH228962   3.111   1.216   2.719 -0.0330 -0.1565 -0.0215
 2516TIP3    H128963   3.062   1.207   2.801 -1.1034 -1.7815 -0.7836
 2516TIP3    H228964   3.135   1.127   2.696  1.1586  0.3865 -0.9637
 2517TIP3   OH228965   2.389   4.323   1.685 -0.0067  0.3237  0.1692
 2517TIP3    H128966   2.355   4.375   1.758 -1.0807 -1.9921  1.4303
 2517TIP3    H228967   2.471   4.286   1.719  0.0117  0.0608 -0.1572
 2518TIP3   OH228968   4.168   2.570  17.582  0.1589  0.2020  0.5542
 2518TIP3    H128969   4.151   2.516  17.659 -2.6402 -0.3928 -0.3776
 2518TIP3    H228970   4.258   2.549  17.557 -0.4302 -3.2198  0.8855
 2519TIP3   OH228971   5.552   5.591  12.343 -0.0176  0.2321  0.5381
 2519TIP3    H128972   5.503   5.578  12.425 -2.4360  0.6405 -0.7531
 2519TIP3    H228973   5.609   5.665  12.362 -0.5030  0.3028  1.8803
 2520TIP3   OH228974   5.560   5.030   6.691  0.4064 -0.0471 -0.1292
 2520TIP3    H128975   5.640   4.986   6.664  0.3980  0.3830 -0.8630
 2520TIP3    H228976   5.581   5.069   6.776  0.5397 -1.0999  0.3378
 2521TIP3   OH228977   5.639   1.160  11.107  0.4048 -0.3837 -0.4811
 2521TIP3    H128978   5.560   1.109  11.088  0.4195 -0.1571 -1.1899
 2521TIP3    H228979   5.613   1.251  11.091  0.4582 -0.1842  0.4963
 2522TIP3   OH228980   2.512   1.966  16.316 -0.2327 -0.0431 -0.0407
 2522TIP3    H128981   2.483   1.987  16.405 -1.1460  1.4034 -0.6350
 2522TIP3    H228982   2.456   1.893  16.289 -0.8930  0.4041  0.0950
 2523TIP3   OH228983   3.589   4.751   3.701 -0.0667 -0.6932 -0.2206
 2523TIP3    H128984   3.658   4.687   3.681  0.1228 -0.6440  0.2545
 2523TIP3    H228985   3.508   4.701   3.698  0.0411 -0.8658 -0.2665
 2524TIP3   OH228986   4.009   1.331  16.639  0.1946 -0.1165  0.5699
 2524TIP3    H128987   3.966   1.368  16.562 -0.6386  1.5097  1.7553
 2524TIP3    H228988   4.103   1.343  16.622  0.1547 -1.8872 -1.1667
 2525TIP3   OH228989   2.924   0.571   2.317 -0.6085 -0.8409  0.0646
 2525TIP3    H128990   2.835   0.548   2.343 -0.9457  0.2073 -0.1248
 2525TIP3    H228991   2.970   0.487   2.311 -1.4144 -1.3428  0.7663
 2526TIP3   OH228992   1.678   4.367   4.940 -0.7177  0.8724  0.0880
 2526TIP3    H128993   1.730   4.441   4.907  0.0417 -0.3168 -1.5019
 2526TIP3    H228994   1.642   4.326   4.862  0.7288 -1.7607  0.6779
 2527TIP3   OH228995   0.633   4.630   3.343  0.0714  0.4091 -0.4365
 2527TIP3    H128996   0.646   4.724   3.349 -2.4042  0.7949 -0.1848
 2527TIP3    H228997   0.564   4.610   3.406  1.5470 -1.8507  0.6203
 2528TIP3   OH228998   3.092   3.429  17.487  0.2432  0.2261  0.4450
 2528TIP3    H128999   3.000   3.408  17.473  0.2732  0.3755  0.0200
 2528TIP3    H229000   3.103   3.426  17.582 -0.1190 -0.1242  0.4790
 2529TIP3   OH229001   1.908   5.991   0.727 -0.1402  0.7728  0.3341
 2529TIP3    H129002   1.993   5.954   0.702 -0.4553 -0.0803  0.4846
 2529TIP3    H229003   1.927   6.042   0.805  0.8771  3.5930 -1.6236
 2530TIP3   OH229004   2.958   1.144  17.176 -0.1183 -0.6650 -0.0362
 2530TIP3    H129005   2.866   1.121  17.181  0.0315 -1.4831 -0.9519
 2530TIP3    H229006   2.985   1.154  17.268 -1.1827 -0.0672  0.2270
 2531TIP3   OH229007   3.741   0.257  15.718 -0.1695 -0.0964 -0.6157
 2531TIP3    H129008   3.651   0.287  15.726 -0.0378 -0.0786  1.0209
 2531TIP3    H229009   3.791   0.336  15.697 -0.3547  0.1431 -0.1670
 2532TIP3   OH229010   4.491   6.448   5.235  0.1308  0.0777  0.2209
 2532TIP3    H129011   4.507   6.449   5.330  1.1024 -0.5282  0.0755
 2532TIP3    H229012   4.456   6.361   5.218  1.6833 -0.4956 -0.2227
 2533TIP3   OH229013   2.613   3.900  11.605  0.4796 -0.0020  0.5873
 2533TIP3    H129014   2.604   3.825  11.663 -1.3583 -1.0253 -0.9311
 2533TIP3    H229015   2.685   3.876  11.546  0.6888 -0.0340  0.8525
 2534TIP3   OH229016   1.756   0.159  16.404  0.2371 -0.0950  0.9036
 2534TIP3    H129017   1.750   0.243  16.449  0.4560  0.3377  0.1440
 2534TIP3    H229018   1.795   0.180  16.319 -1.2021 -0.7099  0.0460
 2535TIP3   OH229019   0.499   4.356   4.667  0.7631  0.2086  0.0822
 2535TIP3    H129020   0.503   4.286   4.732  2.5434  0.2353  0.0533
 2535TIP3    H229021   0.466   4.314   4.588 -1.4451  0.1757  0.9473
 2536TIP3   OH229022   2.062   0.929   1.209  0.5990  0.2586 -0.1113
 2536TIP3    H129023   2.142   0.878   1.197 -0.3171 -1.3235  0.3239
 2536TIP3    H229024   2.087   0.999   1.269  1.9458  0.5269 -0.9290
 2537TIP3   OH229025   3.273   0.392  14.739 -0.1241 -0.3661  0.2683
 2537TIP3    H129026   3.361   0.406  14.776  0.1084 -0.9502 -0.0468
 2537TIP3    H229027   3.289   0.379  14.646 -0.5116 -0.8665  0.2744
 2538TIP3   OH229028   6.076   6.304  13.262  0.0115  0.2660  0.1835
 2538TIP3    H129029   6.096   6.296  13.169  1.7247  2.1444  0.3192
 2538TIP3    H229030   5.983   6.282  13.269 -0.7990  2.4433 -2.3605
 2539TIP3   OH229031   3.123   2.221   5.514  0.0528  0.0276  0.7297
 2539TIP3    H129032   3.062   2.274   5.566 -0.9245 -0.0697 -0.2681
 2539TIP3    H229033   3.159   2.283   5.450  0.0828 -0.1814  0.5438
 2540TIP3   OH229034   4.978   1.164   1.875 -0.2710 -0.3004 -0.0783
 2540TIP3    H129035   5.009   1.137   1.788  0.4485  0.4430 -0.0632
 2540TIP3    H229036   4.949   1.083   1.916 -0.0640 -0.7501 -0.7942
 2541TIP3   OH229037   5.269   0.884   3.136 -0.1818 -0.1281  0.0070
 2541TIP3    H129038   5.207   0.877   3.209 -0.6112  1.8521 -0.1240
 2541TIP3    H229039   5.354   0.896   3.178 -0.3211  0.2333  0.1889
 2542TIP3   OH229040   6.066   4.132   0.187  0.2882 -0.2365 -0.3805
 2542TIP3    H129041   6.021   4.087   0.258 -0.9439 -0.0810 -1.0210
 2542TIP3    H229042   6.157   4.104   0.193  0.0245 -0.8850  0.7240
 2543TIP3   OH229043   2.456   1.863   3.805  0.0476 -0.0242  0.9288
 2543TIP3    H129044   2.503   1.788   3.840  1.9076  0.6810  0.1023
 2543TIP3    H229045   2.379   1.826   3.762  0.0913 -1.2846  1.8835
 2544TIP3   OH229046   4.224   5.550  13.317  0.4113 -0.5659 -0.0107
 2544TIP3    H129047   4.187   5.589  13.395 -2.0403 -2.5753 -0.0283
 2544TIP3    H229048   4.163   5.574  13.247  0.6593 -1.6263 -0.6158
 2545TIP3   OH229049   1.929   2.684   2.298  0.0725  0.3989  0.0152
 2545TIP3    H129050   1.875   2.742   2.352 -0.1222 -1.1379  1.5677
 2545TIP3    H229051   2.017   2.720   2.304 -0.3748  1.7392 -0.8433
 2546TIP3   OH229052   3.679   4.816   6.325  0.6672  0.0451 -0.9029
 2546TIP3    H129053   3.639   4.779   6.247  1.3043 -1.3172 -0.6320
 2546TIP3    H229054   3.769   4.781   6.324  1.1382  1.1767 -0.3203
 2547TIP3   OH229055   2.589   4.813   4.088  0.2474 -0.1070 -0.0824
 2547TIP3    H129056   2.646   4.822   4.012  0.8168  0.8785  0.4511
 2547TIP3    H229057   2.634   4.750   4.144  1.3097  1.3258  0.7473
 2548TIP3   OH229058   0.506   2.268   4.412 -0.1201  0.3981  0.0370
 2548TIP3    H129059   0.576   2.284   4.348 -0.9851  1.7883 -0.6200
 2548TIP3    H229060   0.541   2.200   4.470  1.0258 -0.3005 -1.4064
 2549TIP3   OH229061   4.343   4.965   2.867  0.0387 -0.3065  0.1075
 2549TIP3    H129062   4.268   4.918   2.902 -0.5729  1.2698  0.9895
 2549TIP3    H229063   4.309   5.050   2.842  1.1097 -0.2871 -1.4940
 2550TIP3   OH229064   3.018   0.093  14.992 -0.0616 -0.4608  0.6662
 2550TIP3    H129065   3.008   0.171  14.938 -0.2970  0.1838  1.6174
 2550TIP3    H229066   2.929   0.072  15.020 -0.0113 -1.1246  0.3603
 2551TIP3   OH229067   1.242   4.801   4.120 -0.1835 -0.2497 -0.4649
 2551TIP3    H129068   1.152   4.824   4.141  0.0117 -0.7458  1.0250
 2551TIP3    H229069   1.237   4.760   4.033 -1.5392 -1.1931  0.0228
 2552TIP3   OH229070   1.044   2.258   5.369  0.2944 -0.0921 -0.2924
 2552TIP3    H129071   1.130   2.230   5.337  1.7795  1.4935  1.9654
 2552TIP3    H229072   1.031   2.206   5.448  0.5391  1.5981  0.9062
 2553TIP3   OH229073   4.400   2.474   2.580 -0.2094  0.4292  0.4574
 2553TIP3    H129074   4.346   2.538   2.627 -0.2968 -0.5783  1.7923
 2553TIP3    H229075   4.474   2.458   2.639 -0.5529 -1.2078  0.4958
 2554TIP3   OH229076   1.750   0.119  17.315  0.1776  0.3619  0.5106
 2554TIP3    H129077   1.736   0.083  17.403  0.5280 -2.6149 -0.5452
 2554TIP3    H229078   1.838   0.157  17.319 -0.1508  1.0436  1.6652
 2555TIP3   OH229079   0.382   2.608   1.829  0.2130  0.1372  0.3533
 2555TIP3    H129080   0.357   2.677   1.767 -0.6425  0.3513  0.9175
 2555TIP3    H229081   0.404   2.655   1.909 -1.2594 -0.2621  1.0287
 2556TIP3   OH229082   1.936   3.463   3.946  0.3428 -0.1848 -0.0554
 2556TIP3    H129083   1.855   3.511   3.927 -0.1377 -0.3108  1.5554
 2556TIP3    H229084   1.907   3.373   3.962  1.0557 -0.6922 -1.4333
 2557TIP3   OH229085   2.784   0.281  15.661 -0.6753 -0.4365  0.4944
 2557TIP3    H129086   2.761   0.368  15.628 -1.0116 -0.4135  0.7743
 2557TIP3    H229087   2.866   0.258  15.617 -1.2871 -0.5557 -0.6174
 2558TIP3   OH229088   0.297   5.337  16.751 -0.2678 -0.0008 -0.0820
 2558TIP3    H129089   0.393   5.333  16.744 -0.1572  0.0722  1.1571
 2558TIP3    H229090   0.266   5.264  16.698  0.5048 -0.2936 -0.1423
 2559TIP3   OH229091   4.261   5.148  15.297 -0.3387  0.0022 -0.2882
 2559TIP3    H129092   4.356   5.143  15.291 -0.4395 -0.2200 -2.5315
 2559TIP3    H229093   4.244   5.233  15.337  0.7842 -0.5106  1.3990
 2560TIP3   OH229094   4.844   5.228   2.799 -0.4970 -0.1173 -0.0209
 2560TIP3    H129095   4.862   5.158   2.736 -1.3842  0.0784 -0.5149
 2560TIP3    H229096   4.921   5.230   2.856  0.5391 -0.0224 -1.3591
 2561TIP3   OH229097   5.196   2.944   3.061  0.1464  0.0381  0.3486
 2561TIP3    H129098   5.174   3.035   3.045 -0.5900 -0.4499 -1.8259
 2561TIP3    H229099   5.290   2.939   3.049  0.2369  0.5506  0.8072
 2562TIP3   OH229100   3.595   2.428  17.088  0.3386 -0.4880 -0.6534
 2562TIP3    H129101   3.675   2.392  17.049  1.6433  2.0848 -0.5766
 2562TIP3    H229102   3.615   2.433  17.182  0.5450  1.1594 -0.7702
 2563TIP3   OH229103   1.000   2.624  12.791  0.2481 -0.1394 -0.1889
 2563TIP3    H129104   1.000   2.567  12.714  1.3707 -0.2168 -0.1476
 2563TIP3    H229105   0.955   2.573  12.858 -0.7847 -0.0518 -0.7886
 2564TIP3   OH229106   1.260   0.574  10.983  0.0037 -0.1898 -0.2003
 2564TIP3    H129107   1.355   0.581  10.968  0.6608 -4.5614  0.3883
 2564TIP3    H229108   1.228   0.522  10.910 -1.4833 -0.6542  0.7444
 2565TIP3   OH229109   5.319   6.171   5.030 -0.3228  0.1487  0.6862
 2565TIP3    H129110   5.383   6.181   5.101  1.5698  2.4040 -1.1732
 2565TIP3    H229111   5.254   6.240   5.047 -1.9730 -1.6406  2.1330
 2566TIP3   OH229112   4.711   2.345  13.722  0.1021  0.2477  0.4755
 2566TIP3    H129113   4.619   2.347  13.695  0.3022  0.4815 -0.2125
 2566TIP3    H229114   4.720   2.421  13.779 -0.2536 -0.0785  0.9823
 2567TIP3   OH229115   0.014   1.110  13.862 -0.1684  0.4609 -0.2814
 2567TIP3    H129116   0.088   1.051  13.873 -1.4032 -1.1443 -0.0897
 2567TIP3    H229117   0.052   1.198  13.863  1.7166 -0.3116 -0.3285
 2568TIP3   OH229118   6.594   1.208  12.650  0.3196  0.2112  0.7499
 2568TIP3    H129119   6.646   1.288  12.645 -0.7938  0.9094 -3.4906
 2568TIP3    H229120   6.658   1.137  12.656  1.4102  1.2606  2.0558
 2569TIP3   OH229121   4.982   3.083  11.525  0.0842 -0.3007 -0.2388
 2569TIP3    H129122   4.941   3.034  11.454  2.5385 -2.0093 -0.6145
 2569TIP3    H229123   4.999   3.017  11.592 -1.1956  1.0790  1.5527
 2570TIP3   OH229124   5.486   6.312  14.892  0.4537  0.5707 -0.1781
 2570TIP3    H129125   5.414   6.372  14.872  1.1960  1.7815  0.5927
 2570TIP3    H229126   5.563   6.353  14.853  0.7099 -0.8625 -1.2530
 2571TIP3   OH229127   5.922   4.911   5.190  0.9634  0.0257  0.0446
 2571TIP3    H129128   5.890   4.820   5.187 -0.8951  0.6634 -0.8412
 2571TIP3    H229129   5.881   4.948   5.268  2.4078 -0.0916  0.8998
 2572TIP3   OH229130   6.407   4.197  17.356  0.3788 -0.2832  0.2698
 2572TIP3    H129131   6.440   4.137  17.422 -0.5877  1.1623  2.1581
 2572TIP3    H229132   6.315   4.173  17.345  0.0733  0.5865  0.7898
 2573TIP3   OH229133   1.566   3.507  17.136  0.2564 -0.3985  0.0145
 2573TIP3    H129134   1.570   3.496  17.231 -2.7818 -0.7108  0.1940
 2573TIP3    H229135   1.615   3.433  17.101  0.6430 -0.7811  1.3172
 2574TIP3   OH229136   6.476   2.453   5.822 -0.3194 -0.1276 -0.6302
 2574TIP3    H129137   6.435   2.394   5.759 -0.0219  0.3226 -1.2526
 2574TIP3    H229138   6.405   2.481   5.879 -0.9339  0.7759 -1.7987
 2575TIP3   OH229139   4.415   4.964  12.825  0.2799 -0.1315 -0.4602
 2575TIP3    H129140   4.449   4.898  12.765  1.0098 -1.2188  1.0734
 2575TIP3    H229141   4.469   4.954  12.904 -2.3323 -0.5919  1.3868
 2576TIP3   OH229142   0.468   4.206   4.908  0.2502  0.2116 -0.3162
 2576TIP3    H129143   0.424   4.255   4.977 -0.3529  0.5758 -0.9587
 2576TIP3    H229144   0.557   4.241   4.907 -0.0572  0.9931 -0.4864
 2577TIP3   OH229145   2.139   1.163   2.118 -0.2616  0.2141 -0.1907
 2577TIP3    H129146   2.205   1.094   2.121 -1.7886 -1.4224 -1.7601
 2577TIP3    H229147   2.058   1.120   2.145 -0.9446  1.8947  0.6067
 2578TIP3   OH229148   6.501   6.689   3.836 -0.3648 -0.2996 -0.3309
 2578TIP3    H129149   6.570   6.732   3.887 -0.1850  0.6551 -1.3516
 2578TIP3    H229150   6.522   6.707   3.745 -1.5279 -0.6749 -0.7034
 2579TIP3   OH229151   4.060   0.623   5.004 -0.1400  0.6630 -0.0334
 2579TIP3    H129152   3.994   0.632   4.936 -0.3311 -0.1912  0.0232
 2579TIP3    H229153   4.104   0.708   5.008 -0.8677  1.0578 -0.4501
 2580TIP3   OH229154   0.936   6.691  16.660  0.2824 -0.1360  0.1466
 2580TIP3    H129155   0.962   6.698  16.568  0.4132  2.5319  0.3243
 2580TIP3    H229156   0.897   6.603  16.667  0.4294 -0.4765 -2.3940
 2581TIP3   OH229157   2.558   2.664  11.401  0.5084  0.1708  0.6874
 2581TIP3    H129158   2.516   2.615  11.472 -0.7857  1.4972  0.9060
 2581TIP3    H229159   2.548   2.608  11.324 -0.3322 -0.2081  1.0535
 2582TIP3   OH229160   2.924   4.638  14.026 -0.1741  0.5607  0.2666
 2582TIP3    H129161   2.939   4.554  14.070 -0.7625  0.3294  0.0404
 2582TIP3    H229162   2.930   4.617  13.933 -1.1978  0.5773  0.1809
 2583TIP3   OH229163   2.394   3.489   5.014  0.3682  0.4084  0.3633
 2583TIP3    H129164   2.380   3.395   5.004 -0.4063  0.4579  0.8928
 2583TIP3    H229165   2.389   3.524   4.925 -0.8973  0.1437  0.3090
 2584TIP3   OH229166   0.211   2.175   4.797 -0.1488  0.0300  0.5788
 2584TIP3    H129167   0.235   2.230   4.871 -0.0881  1.1192 -0.2171
 2584TIP3    H229168   0.253   2.217   4.721  0.1452 -1.2872 -0.0220
 2585TIP3   OH229169   5.173   0.617   4.690 -0.6062 -0.1915  0.3488
 2585TIP3    H129170   5.179   0.675   4.614 -1.3773 -1.1285 -0.4506
 2585TIP3    H229171   5.178   0.677   4.765  1.9441  0.5966 -0.3478
 2586TIP3   OH229172   3.196   1.062  15.013  0.1707 -0.6319 -0.2643
 2586TIP3    H129173   3.237   1.031  15.093  2.7582  0.3804 -1.1115
 2586TIP3    H229174   3.257   1.038  14.943 -0.2492  1.6267 -1.5150
 2587TIP3   OH229175   5.276   6.013  16.837 -0.2176 -0.1027  0.2790
 2587TIP3    H129176   5.349   6.066  16.870 -0.3467 -0.2719  0.8518
 2587TIP3    H229177   5.317   5.929  16.812 -0.1492 -0.0440  0.1910
 2588TIP3   OH229178   2.363   1.606   6.688 -0.2316 -0.1792 -0.0198
 2588TIP3    H129179   2.297   1.536   6.687  0.1050 -0.4996 -1.5241
 2588TIP3    H229180   2.447   1.560   6.687  0.0084  0.1676 -2.3412
 2589TIP3   OH229181   3.031   0.567  13.486 -0.6127  0.1143  0.4042
 2589TIP3    H129182   2.959   0.587  13.427  1.0870 -0.3475 -2.0068
 2589TIP3    H229183   3.065   0.652  13.513 -1.7079  0.3285  1.1566
 2590TIP3   OH229184   3.823   1.666   2.500  0.0519 -0.0141  0.2251
 2590TIP3    H129185   3.883   1.700   2.566  1.4151 -0.3964 -0.7872
 2590TIP3    H229186   3.809   1.739   2.440  1.3788 -0.5903 -0.8266
 2591TIP3   OH229187   1.558   6.520   4.955  0.5909  0.1503  0.2210
 2591TIP3    H129188   1.628   6.580   4.979 -0.1879  0.1896  2.7807
 2591TIP3    H229189   1.602   6.437   4.937  1.4196  0.6200  0.0394
 2592TIP3   OH229190   2.740   0.887   0.824 -0.4758  0.1521 -0.0442
 2592TIP3    H129191   2.816   0.830   0.835 -0.9290 -0.3502  0.5277
 2592TIP3    H229192   2.666   0.836   0.858 -0.7000  1.5734  1.7884
 2593TIP3   OH229193   6.230   6.662  12.522 -0.0694  0.0493 -0.0586
 2593TIP3    H129194   6.263   6.620  12.442 -0.8704 -0.7833  0.0280
 2593TIP3    H229195   6.257   6.753  12.514  1.5662 -0.4252 -0.3521
 2594TIP3   OH229196   3.711   5.418   1.973  0.1303  0.5367 -0.5963
 2594TIP3    H129197   3.728   5.371   2.055  1.3615 -0.7957 -1.5762
 2594TIP3    H229198   3.635   5.372   1.935 -0.6569  1.3696 -0.0668
 2595TIP3   OH229199   0.254   2.040  16.566 -0.2531  0.2688  0.1876
 2595TIP3    H129200   0.188   2.061  16.500 -0.6345  0.1179  0.5228
 2595TIP3    H229201   0.330   2.094  16.542 -0.0946 -0.3954 -0.8702
 2596TIP3   OH229202   2.654   5.903   6.770  0.1757  0.2249 -0.2203
 2596TIP3    H129203   2.663   5.809   6.780  0.4482  0.3434  0.8479
 2596TIP3    H229204   2.561   5.920   6.780 -0.0646 -0.0506 -1.7677
 2597TIP3   OH229205   1.114   5.034  17.216  0.3622 -0.0143  0.2453
 2597TIP3    H129206   1.077   4.975  17.150  2.3275  0.0277 -0.9931
 2597TIP3    H229207   1.056   5.109  17.217 -1.3069 -1.2517  0.6860
 2598TIP3   OH229208   3.882   5.994   3.127  0.2167 -0.3972 -0.8437
 2598TIP3    H129209   3.904   6.087   3.136 -0.4454 -0.3394  0.4403
 2598TIP3    H229210   3.791   5.994   3.097  0.6775 -0.6393 -2.2896
 2599TIP3   OH229211   5.277   2.453  15.089  0.0375  0.1971 -0.1110
 2599TIP3    H129212   5.264   2.409  15.006  3.2019 -0.2320 -0.4935
 2599TIP3    H229213   5.260   2.546  15.071  1.3257  0.2034 -1.4565
 2600TIP3   OH229214   3.824   6.406  17.526 -0.0200  0.1646  0.4601
 2600TIP3    H129215   3.773   6.441  17.599 -0.4067  0.5339  0.0192
 2600TIP3    H229216   3.883   6.476  17.501  0.0948  0.0480  0.4005
 2601TIP3   OH229217   6.154   2.630   2.681  0.6031  0.5644  0.1012
 2601TIP3    H129218   6.095   2.642   2.756  0.7176 -0.0394  0.2870
 2601TIP3    H229219   6.241   2.619   2.720  0.3340 -2.4561  0.0760
 2602TIP3   OH229220   2.277   3.003   4.241  0.5621  0.5395  0.0195
 2602TIP3    H129221   2.318   3.089   4.235 -2.2852  1.9354 -1.4656
 2602TIP3    H229222   2.222   2.997   4.163 -0.4042 -2.0576  0.7931
 2603TIP3   OH229223   5.967   0.415  12.030  0.0461 -0.1807  0.2428
 2603TIP3    H129224   6.029   0.488  12.036 -0.0823  0.0321 -0.7366
 2603TIP3    H229225   5.881   0.455  12.042  0.0761 -0.4336  1.3330
 2604TIP3   OH229226   0.425   2.036  13.359 -0.1410 -0.3784  0.4399
 2604TIP3    H129227   0.481   1.961  13.379  0.7134  0.0505 -0.2911
 2604TIP3    H229228   0.401   2.025  13.267  0.5803  0.5980  0.1146
 2605TIP3   OH229229   5.753   4.630   2.464 -0.2232  0.5013  0.1439
 2605TIP3    H129230   5.725   4.660   2.550 -1.1086  0.7647 -0.2337
 2605TIP3    H229231   5.841   4.667   2.453 -1.3856  3.2812 -0.4503
 2606TIP3   OH229232   2.535   5.091  14.356 -0.2141 -0.1202  0.0243
 2606TIP3    H129233   2.448   5.072  14.320  0.4413 -1.4993 -0.9118
 2606TIP3    H229234   2.585   5.124  14.282  0.0088  0.9073  0.6169
 2607TIP3   OH229235   3.121   1.097   6.309 -0.1575  0.1056 -0.3035
 2607TIP3    H129236   3.163   1.146   6.379  0.2041 -0.0984 -0.3768
 2607TIP3    H229237   3.089   1.017   6.351  1.6310 -0.8656 -0.7065
 2608TIP3   OH229238   2.879   0.366   0.910 -0.1177 -0.0502  0.1761
 2608TIP3    H129239   2.962   0.330   0.939  1.3413  2.2042 -0.8914
 2608TIP3    H229240   2.843   0.300   0.850 -0.3275 -2.0994  2.4219
 2609TIP3   OH229241   6.662   0.626   6.206 -0.6177 -0.4163  0.3874
 2609TIP3    H129242   6.744   0.675   6.214 -0.4535 -0.6264  0.0268
 2609TIP3    H229243   6.689   0.534   6.208 -0.7249 -0.4883 -0.8234
 2610TIP3   OH229244   6.073   2.272   2.341 -0.8056 -0.2656 -0.2679
 2610TIP3    H129245   6.063   2.259   2.435  0.8000 -0.6041 -0.1016
 2610TIP3    H229246   6.157   2.231   2.320  0.3747  2.3933 -1.2844
 2611TIP3   OH229247   2.100   6.661  11.515  0.1561 -0.2649  0.6186
 2611TIP3    H129248   2.184   6.679  11.557 -0.3334  0.4718  1.3179
 2611TIP3    H229249   2.052   6.743  11.523 -1.4881 -1.3046  2.2666
 2612TIP3   OH229250   4.458   0.387  15.164 -0.2499 -0.1137 -0.0866
 2612TIP3    H129251   4.372   0.385  15.206 -1.0227 -1.6151 -1.6460
 2612TIP3    H229252   4.520   0.390  15.237 -1.5746  1.8114  1.0713
 2613TIP3   OH229253   6.269   0.407  17.131  0.7501 -0.0100  0.3413
 2613TIP3    H129254   6.207   0.422  17.203  0.5495 -0.9674  0.3800
 2613TIP3    H229255   6.283   0.494  17.094 -1.3566  0.1353 -0.2738
 2614TIP3   OH229256   4.515   6.665   3.460 -0.1249  0.4788  0.4072
 2614TIP3    H129257   4.443   6.628   3.511 -1.6735  0.3665 -1.7454
 2614TIP3    H229258   4.566   6.589   3.431  0.0433  0.4601  0.7470
 2615TIP3   OH229259   0.345   4.206   4.500  0.0447 -0.1862 -0.8013
 2615TIP3    H129260   0.339   4.146   4.426  2.9917  0.7785 -1.9829
 2615TIP3    H229261   0.323   4.152   4.576 -1.2688 -1.6757 -2.1690
 2616TIP3   OH229262   5.661   3.086   3.537 -0.4039 -0.0395 -0.2229
 2616TIP3    H129263   5.586   3.143   3.554  1.5263  1.9393  2.7863
 2616TIP3    H229264   5.728   3.145   3.503  1.3050 -0.5947  1.9439
 2617TIP3   OH229265   6.310   6.532   6.261  0.2610 -0.2952 -0.7863
 2617TIP3    H129266   6.295   6.529   6.166  0.0971 -0.9308 -0.7430
 2617TIP3    H229267   6.320   6.440   6.287 -2.5596 -0.3747  0.2643
 2618TIP3   OH229268   4.697   4.052  16.937  0.0818  0.2436  0.6117
 2618TIP3    H129269   4.687   3.958  16.952  0.3978  0.3419  1.4618
 2618TIP3    H229270   4.663   4.065  16.848 -0.9369 -0.5061  0.8650
 2619TIP3   OH229271   2.322   5.233   4.985  0.0149 -0.3433  0.2081
 2619TIP3    H129272   2.399   5.197   4.943  0.1635  0.2495 -0.0410
 2619TIP3    H229273   2.355   5.303   5.041 -0.4473  0.8654 -0.9682
 2620TIP3   OH229274   6.053   3.189  16.949  0.3202 -0.0006 -0.5980
 2620TIP3    H129275   6.107   3.113  16.925  0.0767 -0.1495 -0.6888
 2620TIP3    H229276   5.977   3.151  16.993  0.8535  0.2873  0.5997
 2621TIP3   OH229277   5.487   5.002   5.438 -0.5996 -0.2279 -0.2768
 2621TIP3    H129278   5.426   5.016   5.510  1.9576 -0.6727  2.1955
 2621TIP3    H229279   5.473   4.910   5.413 -0.6709 -0.4688  0.5874
 2622TIP3   OH229280   5.479   3.938   2.894 -0.1813 -0.1473 -0.3595
 2622TIP3    H129281   5.442   4.021   2.923  1.0839  0.4449 -0.3874
 2622TIP3    H229282   5.484   3.885   2.974 -0.2938  0.0788 -0.2017
 2623TIP3   OH229283   6.237   1.631   2.370  0.5009 -0.8096 -0.0693
 2623TIP3    H129284   6.274   1.553   2.410 -1.5445 -1.1225  1.3530
 2623TIP3    H229285   6.174   1.598   2.306  0.7533 -0.2825 -0.6116
 2624TIP3   OH229286   6.221   1.344   2.422 -0.6839 -0.0941 -0.8400
 2624TIP3    H129287   6.283   1.272   2.415 -0.6090 -0.1330  0.1217
 2624TIP3    H229288   6.145   1.315   2.373 -1.0444 -1.2584  0.3709
 2625TIP3   OH229289   1.953   2.603   1.399  0.1792 -0.2458  0.4823
 2625TIP3    H129290   1.912   2.625   1.483  0.4614  0.5781  0.4128
 2625TIP3    H229291   1.880   2.571   1.345  0.1987 -1.9759  1.4190
 2626TIP3   OH229292   3.344   1.861  11.392 -0.3861  0.2238  0.4935
 2626TIP3    H129293   3.413   1.875  11.327 -1.3974  1.4265 -0.3623
 2626TIP3    H229294   3.319   1.770  11.381  1.2493 -0.3335  1.0423
 2627TIP3   OH229295   1.621   4.850   5.963  0.2853 -0.1034 -0.2079
 2627TIP3    H129296   1.566   4.897   6.026  0.9751 -0.5555  0.7523
 2627TIP3    H229297   1.573   4.857   5.880 -0.4504  0.8364  0.2695
 2628TIP3   OH229298   3.494   6.426  17.195 -0.7066 -0.4138  0.3677
 2628TIP3    H129299   3.401   6.445  17.206 -0.5630 -0.4223  1.8464
 2628TIP3    H229300   3.517   6.372  17.270  0.6063  0.0325  0.3287
 2629TIP3   OH229301   1.232   1.356  14.492 -0.1606 -0.2081 -0.6434
 2629TIP3    H129302   1.230   1.266  14.458 -1.1445  0.2079 -1.7506
 2629TIP3    H229303   1.144   1.390  14.473  0.6417  1.4540 -1.5521
 2630TIP3   OH229304   5.113   4.347  11.982 -0.2230 -0.3356  0.7356
 2630TIP3    H129305   5.148   4.257  11.982 -0.8359 -0.5789  0.5999
 2630TIP3    H229306   5.036   4.343  12.039  2.0627  1.0568  4.2101
 2631TIP3   OH229307   0.892   4.901  14.238  0.1049  0.6666 -0.3318
 2631TIP3    H129308   0.820   4.961  14.253  0.6623  1.4010 -0.5002
 2631TIP3    H229309   0.892   4.888  14.143  1.2678  2.1035 -0.5793
 2632TIP3   OH229310   2.642   6.626   3.337  0.2353  0.5696 -0.2372
 2632TIP3    H129311   2.610   6.692   3.276 -0.3806 -1.0635 -1.7596
 2632TIP3    H229312   2.564   6.575   3.360  0.9340 -0.5100 -0.2242
 2633TIP3   OH229313   3.993   2.804  14.993  0.2099  0.4427  0.1714
 2633TIP3    H129314   3.914   2.830  14.946  0.6786 -0.2976 -1.0655
 2633TIP3    H229315   4.064   2.845  14.945  0.6469  0.3929  0.7659
 2634TIP3   OH229316   5.907   2.298  15.647 -0.0672 -0.1450  0.2514
 2634TIP3    H129317   5.917   2.232  15.578  1.6506  0.2874  0.0572
 2634TIP3    H229318   5.837   2.263  15.702 -1.3063 -0.6500 -1.5254
 2635TIP3   OH229319   3.784   6.553  16.171  0.0684 -0.0769 -0.4857
 2635TIP3    H129320   3.806   6.541  16.263 -1.8426  0.9629  0.1452
 2635TIP3    H229321   3.813   6.641  16.150  1.0922 -0.5353 -1.1040
 2636TIP3   OH229322   3.835   5.300  15.286 -0.6828  0.5104 -0.0297
 2636TIP3    H129323   3.779   5.331  15.357 -1.2819 -1.4229  0.4027
 2636TIP3    H229324   3.923   5.299  15.324 -0.7757  0.8765  0.2016
 2637TIP3   OH229325   1.884   2.625  15.306 -0.7385 -0.3168 -0.1126
 2637TIP3    H129326   1.938   2.547  15.293  0.5361  0.5294 -0.0096
 2637TIP3    H229327   1.897   2.677  15.227 -1.4565 -0.1144 -0.1080
 2638TIP3   OH229328   0.415   3.574   2.522 -0.1042  0.3005  0.1322
 2638TIP3    H129329   0.498   3.598   2.481 -0.3553 -0.1362 -0.6371
 2638TIP3    H229330   0.356   3.556   2.450 -0.1445 -1.9128  0.6402
 2639TIP3   OH229331   0.095   3.568   0.234 -0.3949  0.2022 -0.2693
 2639TIP3    H129332   0.107   3.601   0.323  0.1985 -0.2994 -0.1547
 2639TIP3    H229333   0.162   3.500   0.225  0.9728  1.6416 -1.8005
 2640TIP3   OH229334   1.197   4.176   4.558 -0.0747 -0.1540 -0.2489
 2640TIP3    H129335   1.240   4.256   4.528 -1.7647  1.4720  1.4380
 2640TIP3    H229336   1.148   4.145   4.482  1.0141  0.0597 -1.0692
 2641TIP3   OH229337   1.780   6.585   2.372 -0.4079 -0.1467 -0.4296
 2641TIP3    H129338   1.822   6.647   2.313 -2.4795  1.6407 -0.1513
 2641TIP3    H229339   1.716   6.539   2.318 -0.1611 -0.7330 -0.2324
 2642TIP3   OH229340   3.554   4.924  12.328 -0.2175  0.1173 -0.1808
 2642TIP3    H129341   3.607   4.921  12.249 -0.8128 -1.1060 -0.5640
 2642TIP3    H229342   3.471   4.884  12.302 -1.0451  1.2769  0.6098
 2643TIP3   OH229343   0.999   0.221   3.966 -0.5137 -0.6553 -0.2238
 2643TIP3    H129344   0.968   0.167   4.039 -3.9576  0.6155 -0.5861
 2643TIP3    H229345   1.043   0.295   4.009 -1.1435 -0.6995  0.5185
 2644TIP3   OH229346   1.391   1.823  13.860 -0.4146  0.1809 -0.3711
 2644TIP3    H129347   1.367   1.882  13.930 -0.1361  1.6999 -1.5107
 2644TIP3    H229348   1.485   1.834  13.849 -0.1610 -1.2566  0.0633
 2645TIP3   OH229349   6.638   6.713  15.749 -0.3497 -0.2051  0.5050
 2645TIP3    H129350   6.563   6.772  15.757  0.1384  0.4114  0.5985
 2645TIP3    H229351   6.639   6.663  15.831  0.2033  0.8195  1.1385
 2646TIP3   OH229352   6.218   3.631  13.406 -0.0558 -0.5474 -0.4226
 2646TIP3    H129353   6.183   3.670  13.326  0.2327  0.3231 -0.1321
 2646TIP3    H229354   6.212   3.701  13.471  1.9025 -0.4518 -0.2793
 2647TIP3   OH229355   5.751   5.762  16.325  0.0356 -0.2450 -0.1319
 2647TIP3    H129356   5.687   5.783  16.258  0.4633 -0.8375 -0.7367
 2647TIP3    H229357   5.713   5.688  16.373  0.7161 -1.3416 -1.1992
 2648TIP3   OH229358   3.060   2.017   1.571 -0.2773 -0.0283  0.1028
 2648TIP3    H129359   3.132   1.953   1.577 -1.3445 -1.2673  0.1826
 2648TIP3    H229360   2.981   1.965   1.584 -1.2723  1.1148 -1.1000
 2649TIP3   OH229361   4.386   3.379   1.482 -0.5830  0.2888  0.0600
 2649TIP3    H129362   4.344   3.303   1.442 -1.5458  0.9008 -0.1173
 2649TIP3    H229363   4.313   3.432   1.516  0.0955  0.9075  0.5832
 2650TIP3   OH229364   5.884   0.378  14.120 -0.1340 -0.3431  0.3000
 2650TIP3    H129365   5.907   0.289  14.093 -0.2793 -0.4787  0.6236
 2650TIP3    H229366   5.944   0.434  14.071 -0.8584 -0.5390 -0.8698
 2651TIP3   OH229367   1.318   5.059  14.832 -0.2385  0.0060 -0.2493
 2651TIP3    H129368   1.329   5.105  14.748  2.0051  0.5743  0.2864
 2651TIP3    H229369   1.351   5.121  14.897 -0.9351 -0.8544  0.9454
 2652TIP3   OH229370   4.135   3.032  16.137  0.0409 -0.3311  0.5884
 2652TIP3    H129371   4.164   2.943  16.153 -0.2479 -0.4627  0.3813
 2652TIP3    H229372   4.186   3.085  16.198  1.3859 -0.4471 -0.3966
 2653TIP3   OH229373   4.978   4.447  13.847 -0.2415  0.0974  0.4785
 2653TIP3    H129374   5.024   4.368  13.821 -2.1209 -1.2365  0.9932
 2653TIP3    H229375   4.898   4.448  13.793 -1.0731  0.6846  1.6682
 2654TIP3   OH229376   4.487   3.646  11.545 -0.1326 -0.3054  0.2134
 2654TIP3    H129377   4.487   3.632  11.450 -0.3673 -0.7648  0.2779
 2654TIP3    H229378   4.435   3.574  11.579 -1.4979  0.7974  0.5597
 2655TIP3   OH229379   0.942   4.837   5.171 -0.4011 -0.3518  0.2248
 2655TIP3    H129380   0.849   4.835   5.194 -0.7140 -1.3714 -0.9455
 2655TIP3    H229381   0.968   4.928   5.180 -1.3803 -0.1452  1.0964
 2656TIP3   OH229382   2.111   3.119  14.393  0.3884  0.1230 -0.0106
 2656TIP3    H129383   2.158   3.135  14.311  0.0140 -1.2571 -0.5247
 2656TIP3    H229384   2.018   3.122  14.368  0.1982  1.6976  0.7731
 2657TIP3   OH229385   4.662   0.074   1.339 -0.1338 -0.9218 -0.3867
 2657TIP3    H129386   4.669   0.163   1.375  0.4259 -0.7747 -0.8534
 2657TIP3    H229387   4.700   0.019   1.407 -2.6359 -1.1168  0.9978
 2658TIP3   OH229388   3.587   1.490   4.384 -0.1824  0.5433  0.5031
 2658TIP3    H129389   3.578   1.526   4.295  1.8137 -0.3222 -0.1022
 2658TIP3    H229390   3.615   1.400   4.370  1.4255  0.7757  2.0165
 2659TIP3   OH229391   3.789   2.547   2.776  0.1859  0.1034 -0.8080
 2659TIP3    H129392   3.772   2.453   2.790 -2.0874  0.3773 -1.3562
 2659TIP3    H229393   3.820   2.552   2.686  0.8727 -0.1651 -0.5937
 2660TIP3   OH229394   2.114   2.384   1.312 -0.1439 -0.3836  0.0571
 2660TIP3    H129395   2.075   2.461   1.354  1.6083  0.8548 -0.4423
 2660TIP3    H229396   2.040   2.331   1.284 -1.4723  1.8192 -0.8145
 2661TIP3   OH229397   0.915   4.839  16.168  0.1652 -0.0469 -0.4279
 2661TIP3    H129398   0.934   4.800  16.082 -1.0178  0.2771 -0.8542
 2661TIP3    H229399   0.860   4.915  16.148 -1.1010 -0.6388  0.7022
 2662TIP3   OH229400   2.005   3.636  14.334 -0.3881  0.2084  0.2207
 2662TIP3    H129401   2.083   3.643  14.279 -0.4152 -0.2891  0.1178
 2662TIP3    H229402   2.040   3.630  14.423 -0.0614 -3.5220  0.0240
 2663TIP3   OH229403   6.214   3.029  15.422  1.2957  0.2555 -0.4607
 2663TIP3    H129404   6.275   3.084  15.373  0.9501  0.7249 -0.3670
 2663TIP3    H229405   6.145   3.089  15.451  0.3033 -0.4233 -1.3506
 2664TIP3   OH229406   2.658   2.213   3.127  0.6294 -0.2838  0.1531
 2664TIP3    H129407   2.672   2.181   3.216  0.7171 -0.2791  0.1413
 2664TIP3    H229408   2.636   2.135   3.076 -0.4829 -0.1362  0.3980
 2665TIP3   OH229409   4.385   1.748  14.519 -0.2588  0.3777  0.2543
 2665TIP3    H129410   4.361   1.671  14.469 -0.1604 -1.5858  2.9743
 2665TIP3    H229411   4.319   1.813  14.497 -1.0635 -0.8840 -1.2415
 2666TIP3   OH229412   3.725   4.949  17.020 -0.1546 -0.0967 -0.4681
 2666TIP3    H129413   3.756   4.859  17.009  0.2220  0.0217 -0.3818
 2666TIP3    H229414   3.674   4.947  17.100 -2.3198 -0.8080 -1.7850
 2667TIP3   OH229415   1.190   5.500  15.987 -0.0645  0.0816  0.1043
 2667TIP3    H129416   1.256   5.440  15.953  0.3772  1.0181 -0.7716
 2667TIP3    H229417   1.223   5.587  15.963 -1.5926  0.5763 -0.3207
 2668TIP3   OH229418   1.709   4.347  15.706  0.6142 -0.7404 -0.4523
 2668TIP3    H129419   1.682   4.256  15.709  0.3067 -0.6433 -0.2951
 2668TIP3    H229420   1.715   4.374  15.797  0.9012 -0.6594 -0.4939
 2669TIP3   OH229421   6.034   3.442  16.812  0.3880  0.1346 -0.1258
 2669TIP3    H129422   6.112   3.488  16.843 -0.2609  0.4629  1.0649
 2669TIP3    H229423   6.039   3.356  16.856  1.1390 -0.6526 -1.6607
 2670TIP3   OH229424   1.443   3.486   4.649  0.7614 -0.5918  0.0391
 2670TIP3    H129425   1.522   3.438   4.624  1.3674  0.4430 -0.0960
 2670TIP3    H229426   1.450   3.495   4.744 -0.0298 -1.9103  0.2441
 2671TIP3   OH229427   4.257   6.025   3.613 -0.1670  0.2350 -0.0328
 2671TIP3    H129428   4.304   5.944   3.594 -1.3235 -1.3316  3.0703
 2671TIP3    H229429   4.194   6.034   3.541  0.3912 -1.2905 -0.7490
 2672TIP3   OH229430   1.529   2.125   1.282  0.4240  0.0498 -0.2222
 2672TIP3    H129431   1.617   2.101   1.311  1.6206  1.2784 -2.5411
 2672TIP3    H229432   1.495   2.046   1.240  0.7835 -0.1604 -0.1208
 2673TIP3   OH229433   2.913   6.223   1.004  0.3101  0.2998 -0.1797
 2673TIP3    H129434   2.873   6.234   1.090  1.7885  1.4639  0.4127
 2673TIP3    H229435   2.927   6.313   0.973  2.6080 -0.0288 -0.2431
 2674TIP3   OH229436   1.305   6.603   1.272 -0.1529  0.0654  0.1956
 2674TIP3    H129437   1.326   6.665   1.202 -0.9681  0.2777  0.1200
 2674TIP3    H229438   1.360   6.630   1.346 -0.1594  0.5911  0.0141
 2675TIP3   OH229439   3.578   6.573  16.371 -0.3049  0.5365  0.1506
 2675TIP3    H129440   3.596   6.484  16.342  0.8830  0.3424  1.3803
 2675TIP3    H229441   3.575   6.624  16.290  0.9538 -0.3090 -0.4666
 2676TIP3   OH229442   1.578   1.369   3.904 -0.4353 -0.1608  0.9712
 2676TIP3    H129443   1.665   1.368   3.944  0.2943  1.3683 -0.4700
 2676TIP3    H229444   1.578   1.296   3.842  0.3059  0.5896  0.0629
 2677TIP3   OH229445   1.105   0.055  16.891  0.0952  0.1111 -0.1662
 2677TIP3    H129446   1.040   0.085  16.955  0.9078 -2.3116  1.9409
 2677TIP3    H229447   1.053   0.013  16.823 -0.6733 -0.3951  0.7046
 2678TIP3   OH229448   2.200   3.610   5.699 -1.0583 -0.6087 -0.3602
 2678TIP3    H129449   2.129   3.614   5.635 -1.7015 -0.9932  0.3175
 2678TIP3    H229450   2.234   3.700   5.703 -2.8234  0.0703  0.7628
 2679TIP3   OH229451   6.634   6.009  11.744 -0.2387  0.3527  0.2488
 2679TIP3    H129452   6.657   6.095  11.778  0.4851 -0.4152  1.7789
 2679TIP3    H229453   6.559   6.026  11.686  0.4201  2.0989 -0.1660
 2680TIP3   OH229454   3.637   4.798   2.945  0.4536  0.0233  0.0543
 2680TIP3    H129455   3.648   4.854   2.869  0.6084  0.0883  0.1243
 2680TIP3    H229456   3.719   4.806   2.994 -0.2402  1.2877  1.0845
 2681TIP3   OH229457   3.737   2.211  16.501  0.7589  0.1068  0.0031
 2681TIP3    H129458   3.781   2.282  16.548 -0.2119  0.5743  0.2433
 2681TIP3    H229459   3.661   2.253  16.461 -0.3470 -0.9538  0.9043
 2682TIP3   OH229460   3.573   3.505   1.832  0.4007  0.5419 -0.5291
 2682TIP3    H129461   3.531   3.427   1.868 -0.9718  0.8204 -1.4484
 2682TIP3    H229462   3.606   3.551   1.909  0.5112 -0.5306  0.0961
 2683TIP3   OH229463   3.771   2.726   2.012 -0.2506  0.1245 -0.0580
 2683TIP3    H129464   3.795   2.634   2.018 -0.8869 -0.0988 -0.7859
 2683TIP3    H229465   3.678   2.729   2.038 -0.4799  0.4239 -0.8661
 2684TIP3   OH229466   2.869   0.699  12.688 -0.0182 -0.2232  0.1189
 2684TIP3    H129467   2.954   0.658  12.676  0.8167  1.5032 -0.1483
 2684TIP3    H229468   2.830   0.652  12.762  0.9619 -1.3322 -0.0426
 2685TIP3   OH229469   1.567   5.799   2.589 -0.1845  0.1826 -0.1924
 2685TIP3    H129470   1.506   5.861   2.550 -1.2737  0.6977  2.1012
 2685TIP3    H229471   1.575   5.828   2.680  3.2153 -0.1301 -0.2669
 2686TIP3   OH229472   2.170   4.892   5.417 -0.2933  0.0259 -0.1482
 2686TIP3    H129473   2.151   4.986   5.409  1.4507  0.6292  1.8968
 2686TIP3    H229474   2.128   4.866   5.499  1.0673 -0.4173  0.4342
 2687TIP3   OH229475   5.824   6.089  16.988 -0.1342 -0.2178  0.0045
 2687TIP3    H129476   5.878   6.024  16.943 -0.8561  0.3637 -1.8248
 2687TIP3    H229477   5.755   6.111  16.925 -0.6127  1.4229  1.0144
 2688TIP3   OH229478   6.235   0.231  12.724  0.3360  0.0910  0.0395
 2688TIP3    H129479   6.215   0.324  12.736  0.1631 -0.0859  1.2042
 2688TIP3    H229480   6.193   0.187  12.798  2.1491 -0.6707  0.6969
 2689TIP3   OH229481   0.990   6.142  11.460 -0.2354 -0.2059 -0.0990
 2689TIP3    H129482   1.049   6.145  11.535 -0.1840 -1.3814 -0.0652
 2689TIP3    H229483   0.921   6.205  11.481  1.5286  2.0482 -0.6482
 2690TIP3   OH229484   4.746   1.038  14.389 -0.1138  1.2549  0.7508
 2690TIP3    H129485   4.775   1.091  14.315  0.6467  0.8557  0.7505
 2690TIP3    H229486   4.665   0.997  14.359  0.9892 -0.1450 -0.4734
 2691TIP3   OH229487   3.420   6.484   5.467 -0.4119  0.3335  0.2089
 2691TIP3    H129488   3.491   6.541   5.497  1.3629 -0.9856 -1.2946
 2691TIP3    H229489   3.406   6.508   5.376 -2.4604  1.0495  0.6530
 2692TIP3   OH229490   5.831   3.310  16.097  0.0534  0.3036  0.1943
 2692TIP3    H129491   5.803   3.222  16.074  1.1634  0.1348 -0.5844
 2692TIP3    H229492   5.774   3.367  16.046 -1.8473  0.1459  1.9887
 2693TIP3   OH229493   6.630   3.851   4.811  0.2324 -0.3222  0.1318
 2693TIP3    H129494   6.628   3.770   4.761  1.5079 -0.9553  1.0232
 2693TIP3    H229495   6.609   3.920   4.748 -2.8865 -1.4639 -0.2442
 2694TIP3   OH229496   0.429   5.728  13.357 -0.4550  0.3630  0.3125
 2694TIP3    H129497   0.463   5.674  13.427 -0.5909 -0.8312 -0.5145
 2694TIP3    H229498   0.369   5.671  13.309  0.1126  0.9372 -1.1424
 2695TIP3   OH229499   1.351   1.029   4.034  0.1930  0.6988  0.0763
 2695TIP3    H129500   1.331   1.027   3.941  2.1314 -1.3892 -0.3843
 2695TIP3    H229501   1.299   0.958   4.072 -0.0509  1.0834  0.4834
 2696TIP3   OH229502   1.785   3.626   1.588 -0.0402  0.0309 -0.1315
 2696TIP3    H129503   1.777   3.573   1.667 -0.0794  1.3761  0.7834
 2696TIP3    H229504   1.703   3.675   1.582  0.6809  1.2897  0.0093
 2697TIP3   OH229505   2.044   0.833   1.639  0.1107  0.2624  0.1992
 2697TIP3    H129506   2.066   0.924   1.658  0.9676  0.4863 -1.7199
 2697TIP3    H229507   1.951   0.834   1.617  0.6884  1.1961 -2.5351
 2698TIP3   OH229508   1.423   0.672  16.791 -0.0575  0.1601 -0.1858
 2698TIP3    H129509   1.389   0.677  16.702 -1.9837 -1.6360  0.3904
 2698TIP3    H229510   1.435   0.764  16.817 -0.6406  0.7323 -1.8323
 2699TIP3   OH229511   2.852   3.157  12.438 -0.4396 -0.3239 -0.2309
 2699TIP3    H129512   2.938   3.160  12.479  1.0492 -2.7230 -2.7479
 2699TIP3    H229513   2.795   3.117  12.504  1.8472 -4.1465 -0.2370
 2700TIP3   OH229514   0.162   0.789  16.502  0.3271  0.3702  0.6575
 2700TIP3    H129515   0.162   0.885  16.496 -0.6584  0.3549  0.2971
 2700TIP3    H229516   0.072   0.766  16.525  0.5586 -0.4755  0.7562
 2701TIP3   OH229517   2.451   5.374  11.793 -0.0540 -0.1244  0.3675
 2701TIP3    H129518   2.468   5.280  11.783  1.5343  0.0737  1.0114
 2701TIP3    H229519   2.521   5.406  11.849  1.1566  1.9741 -2.1199
 2702TIP3   OH229520   0.973   3.255   4.294  0.4543  0.6051 -0.1991
 2702TIP3    H129521   0.898   3.295   4.250 -0.2470 -1.0180 -0.5696
 2702TIP3    H229522   0.976   3.297   4.380  1.8111  3.7907 -1.6682
 2703TIP3   OH229523   1.233   0.091   2.215  0.2375  0.3976 -0.1459
 2703TIP3    H129524   1.290   0.015   2.226  0.3278  0.6057  0.9413
 2703TIP3    H229525   1.246   0.143   2.295  0.4180  1.7196 -1.0142
 2704TIP3   OH229526   4.906   5.812   6.709 -0.1407 -0.1247  0.0116
 2704TIP3    H129527   4.822   5.796   6.753  1.0959 -1.2434  2.1057
 2704TIP3    H229528   4.952   5.872   6.766  1.0569 -0.6608 -0.3654
 2705TIP3   OH229529   4.612   3.966   4.643 -0.0609 -0.2274 -0.7398
 2705TIP3    H129530   4.533   3.983   4.592 -0.0582  0.7331 -0.4405
 2705TIP3    H229531   4.589   3.990   4.733 -0.2165 -2.3724 -0.1671
 2706TIP3   OH229532   2.035   4.508   4.784  0.6701  0.1897  0.0250
 2706TIP3    H129533   1.939   4.507   4.783  0.5240 -0.7666  3.3208
 2706TIP3    H229534   2.058   4.599   4.800  0.2803  0.3078 -0.0676
 2707TIP3   OH229535   5.575   1.441   4.783 -0.6252  0.2212  0.0740
 2707TIP3    H129536   5.522   1.420   4.860  0.5149  1.0648  1.1232
 2707TIP3    H229537   5.661   1.464   4.818  0.1426 -0.0646 -1.5131
 2708TIP3   OH229538   3.290   4.583  15.420 -0.4333 -0.0229 -0.1854
 2708TIP3    H129539   3.346   4.616  15.490 -0.7279 -0.7397  0.3890
 2708TIP3    H229540   3.319   4.632  15.342  2.0327 -1.4224 -0.2560
 2709TIP3   OH229541   4.791   1.638  17.541 -0.4907 -0.7312 -0.0074
 2709TIP3    H129542   4.699   1.620  17.560 -0.0696 -1.8622  1.0742
 2709TIP3    H229543   4.835   1.626  17.625  0.8819 -1.8154 -0.8522
 2710TIP3   OH229544   6.369   5.489  17.181  0.0792 -0.9200  0.0117
 2710TIP3    H129545   6.450   5.531  17.207 -0.0737 -0.9162  0.4884
 2710TIP3    H229546   6.300   5.543  17.220 -0.2284  0.1397 -1.9013
 2711TIP3   OH229547   2.720   3.043   4.417  0.0270  0.1784  0.0684
 2711TIP3    H129548   2.680   3.130   4.423  0.0623  0.3477 -1.6834
 2711TIP3    H229549   2.811   3.056   4.440  0.3330  0.8800 -1.4406
 2712TIP3   OH229550   0.873   1.493   0.477 -0.0071 -0.1942 -0.2372
 2712TIP3    H129551   0.837   1.426   0.420 -0.2356  0.1552 -0.5076
 2712TIP3    H229552   0.824   1.572   0.456 -0.4140 -0.1603  0.7588
 2713TIP3   OH229553   2.692   1.106   3.437  0.1494 -0.5157  0.1446
 2713TIP3    H129554   2.787   1.119   3.433  0.2586 -1.3619 -0.4431
 2713TIP3    H229555   2.679   1.016   3.405 -0.9685  0.0880 -1.2282
 2714TIP3   OH229556   2.571   1.812  14.361  0.0384 -0.0384  0.5393
 2714TIP3    H129557   2.645   1.860  14.325  1.4137 -1.8165  0.8497
 2714TIP3    H229558   2.577   1.827  14.456 -1.3144  1.5463  0.4113
 2715TIP3   OH229559   4.692   3.835  17.453  0.8723 -0.1205  0.0674
 2715TIP3    H129560   4.662   3.749  17.484 -0.4405  0.6449  0.9912
 2715TIP3    H229561   4.770   3.853  17.506  2.5032 -1.6610 -1.6358
 2716TIP3   OH229562   6.309   6.573  16.857  0.1139  0.0370 -0.2939
 2716TIP3    H129563   6.245   6.643  16.848 -0.1046 -0.2783 -1.3381
 2716TIP3    H229564   6.393   6.612  16.830  0.4384  0.5327  1.3552
 2717TIP3   OH229565   4.625   3.632  13.941 -0.7310  0.1255 -0.7425
 2717TIP3    H129566   4.559   3.674  13.997  1.4400  1.7659  0.7881
 2717TIP3    H229567   4.580   3.556  13.904 -3.0597  0.3852  1.2491
 2718TIP3   OH229568   2.960   1.579   4.186  0.8918  0.8070 -0.3070
 2718TIP3    H129569   2.999   1.498   4.152  0.7741  0.1464  1.0569
 2718TIP3    H229570   2.955   1.637   4.110 -0.0890 -0.8698 -1.5850
 2719TIP3   OH229571   6.713   4.984   2.434  0.2654  0.0778 -0.2334
 2719TIP3    H129572   6.637   4.996   2.492  0.7455  0.0389  0.4124
 2719TIP3    H229573   6.675   4.978   2.346 -0.5234 -0.5177  0.1366
 2720TIP3   OH229574   2.697   1.815  13.106 -0.6383 -0.1697  0.0912
 2720TIP3    H129575   2.766   1.880  13.119 -0.5938 -0.3471  0.8298
 2720TIP3    H229576   2.726   1.740  13.158 -0.1314 -1.2129 -1.6215
 2721TIP3   OH229577   1.738   1.775  13.624 -0.0461  0.5072  0.2093
 2721TIP3    H129578   1.824   1.764  13.582  0.1443  0.6003  0.5738
 2721TIP3    H229579   1.677   1.733  13.563  0.4059 -0.6505  0.5301
 2722TIP3   OH229580   2.066   1.998   1.385  0.0833 -0.4221  0.5871
 2722TIP3    H129581   2.137   1.947   1.424  0.5187  0.2694  0.7116
 2722TIP3    H229582   2.079   1.989   1.290  0.0507 -0.6871  0.6074
 2723TIP3   OH229583   0.080   4.810  12.620 -0.0839  0.0334  0.1219
 2723TIP3    H129584   0.141   4.737  12.606 -0.9865 -0.6597 -0.3088
 2723TIP3    H229585   0.092   4.834  12.711  0.3067 -0.5899  0.2452
 2724TIP3   OH229586   6.710   5.249  11.752  0.4180 -0.0876 -0.1330
 2724TIP3    H129587   6.670   5.304  11.685  1.0627 -0.0032 -0.4558
 2724TIP3    H229588   6.639   5.192  11.781 -0.0123  0.2619 -0.4795
 2725TIP3   OH229589   4.252   1.960   5.379  0.0599  0.0698 -0.6784
 2725TIP3    H129590   4.275   1.880   5.426  1.0603  0.0712 -1.1420
 2725TIP3    H229591   4.211   1.929   5.298 -1.7070  0.0677  0.1709
 2726TIP3   OH229592   6.615   5.507   3.464  0.1174  0.2890 -0.0558
 2726TIP3    H129593   6.649   5.434   3.412  0.9340  1.5922 -1.4523
 2726TIP3    H229594   6.602   5.577   3.401 -0.6895  1.3490  1.2357
 2727TIP3   OH229595   4.060   4.390   3.603  0.5118  0.3389  0.0391
 2727TIP3    H129596   4.097   4.376   3.516 -0.6875  0.3256 -0.4906
 2727TIP3    H229597   3.989   4.326   3.610 -1.4652  2.3799 -0.2456
 2728TIP3   OH229598   4.647   4.472  12.565  0.0124 -0.1671 -0.1664
 2728TIP3    H129599   4.645   4.384  12.529 -1.4798 -0.5759  0.8211
 2728TIP3    H229600   4.564   4.481  12.612  1.1931  0.8784  1.8530
 2729TIP3   OH229601   4.913   6.540  13.143  0.5229 -0.0848  0.0596
 2729TIP3    H129602   4.857   6.590  13.202  2.0185  0.7400  0.8533
 2729TIP3    H229603   4.911   6.588  13.060  0.1913  0.0223  0.1318
 2730TIP3   OH229604   4.209   1.404   6.271 -0.5072 -0.0942  0.2761
 2730TIP3    H129605   4.236   1.481   6.322  3.2849 -1.0546 -0.0068
 2730TIP3    H229606   4.200   1.334   6.335  1.0444 -0.5359  0.0462
 2731TIP3   OH229607   2.597   4.546   6.421 -0.2362 -0.5132 -0.2971
 2731TIP3    H129608   2.661   4.556   6.350  1.1845  1.2845  1.1462
 2731TIP3    H229609   2.647   4.510   6.494 -1.3027 -0.7937  0.3164
 2732TIP3   OH229610   4.574   0.221   2.203  0.1917  0.1682 -0.3293
 2732TIP3    H129611   4.508   0.249   2.266  0.5769  0.6863 -0.1469
 2732TIP3    H229612   4.628   0.158   2.250  1.0850  1.2842  0.2038
 2733TIP3   OH229613   6.061   4.045  15.824 -0.3195 -0.0226  0.3357
 2733TIP3    H129614   5.977   4.012  15.856 -0.2376 -0.8205 -0.2464
 2733TIP3    H229615   6.037   4.103  15.751 -0.3437 -0.7817 -0.2731
 2734TIP3   OH229616   2.766   2.592  16.060 -0.2009 -0.3479  0.2313
 2734TIP3    H129617   2.834   2.659  16.058 -1.1717  0.6457 -0.7582
 2734TIP3    H229618   2.718   2.603  15.978 -1.8483 -0.7076  1.1036
 2735TIP3   OH229619   6.644   0.822   1.592 -0.1034  0.4021  0.0964
 2735TIP3    H129620   6.655   0.734   1.629  0.4603  0.6301  0.4786
 2735TIP3    H229621   6.584   0.866   1.653 -1.1477 -0.0135 -0.6054
 2736TIP3   OH229622   6.023   2.610   4.190  0.1460  0.5301 -0.0578
 2736TIP3    H129623   6.010   2.560   4.271  0.8202  1.8199  0.9013
 2736TIP3    H229624   5.937   2.647   4.170 -0.3440 -0.9481 -0.7535
 2737TIP3   OH229625   6.180   6.286   1.359 -0.7338  0.3042 -0.1774
 2737TIP3    H129626   6.274   6.288   1.340 -0.7941 -0.1412 -0.5405
 2737TIP3    H229627   6.161   6.374   1.392 -0.7342  1.3914 -2.7746
 2738TIP3   OH229628   2.049   1.620  14.915  0.0082  0.2390  0.3229
 2738TIP3    H129629   2.051   1.525  14.927  1.2246  0.4057  1.6398
 2738TIP3    H229630   2.137   1.642  14.885 -0.3653  0.9334 -0.2866
 2739TIP3   OH229631   1.304   5.976   0.664  0.2925 -0.2607 -0.2942
 2739TIP3    H129632   1.349   6.037   0.722 -0.0427  0.0693 -0.3762
 2739TIP3    H229633   1.317   6.011   0.577  0.1647 -0.3505 -0.3497
 2740TIP3   OH229634   4.070   1.680  17.238  0.4260 -0.2726  0.1238
 2740TIP3    H129635   3.976   1.683  17.256  0.5707  0.8627  0.7607
 2740TIP3    H229636   4.079   1.723  17.153  0.5506  1.3876  0.9409
 2741TIP3   OH229637   2.689   5.524   4.438  0.5069  0.0925 -0.2698
 2741TIP3    H129638   2.758   5.572   4.484  0.1876 -0.9427  1.3863
 2741TIP3    H229639   2.720   5.434   4.435 -0.8274 -0.4405  0.7026
 2742TIP3   OH229640   1.860   3.304   0.156 -0.1798 -0.5365 -0.0668
 2742TIP3    H129641   1.929   3.278   0.218 -0.1518  0.6335  0.4301
 2742TIP3    H229642   1.854   3.231   0.094  1.1486 -0.8835  0.1826
 2743TIP3   OH229643   1.382   1.582  17.196  0.3570  0.2465 -0.3284
 2743TIP3    H129644   1.415   1.521  17.130  0.2928 -0.7114  0.4989
 2743TIP3    H229645   1.442   1.573  17.270 -1.7941 -1.7191  1.3107
 2744TIP3   OH229646   1.162   4.083  17.470 -0.1542  0.2064 -0.1508
 2744TIP3    H129647   1.140   4.149  17.536  0.0185  0.3347 -0.2222
 2744TIP3    H229648   1.157   4.129  17.387 -0.7070 -0.0402 -0.2592
 2745TIP3   OH229649   1.555   4.484  14.589  0.3066  0.0092  0.0556
 2745TIP3    H129650   1.469   4.524  14.605 -0.4115 -0.1125 -2.8870
 2745TIP3    H229651   1.617   4.556  14.602 -0.3213  0.3430  1.3129
 2746TIP3   OH229652   4.949   1.391  13.318 -0.1409 -0.5879  0.2519
 2746TIP3    H129653   4.871   1.359  13.363 -0.1158 -0.5588  0.3171
 2746TIP3    H229654   4.945   1.351  13.231  0.4397 -1.6250  0.6817
 2747TIP3   OH229655   3.965   1.046  13.217 -0.0175  0.6063  0.0696
 2747TIP3    H129656   4.041   0.995  13.244  0.1560  0.3821 -0.8103
 2747TIP3    H229657   3.950   1.107  13.290 -0.1828 -0.6248  1.1038
 2748TIP3   OH229658   1.678   2.404   1.057  0.0025  0.3066 -0.3758
 2748TIP3    H129659   1.642   2.335   1.002 -2.2828  0.1409  1.1654
 2748TIP3    H229660   1.695   2.477   0.997 -0.6286 -0.4849 -1.5526
 2749TIP3   OH229661   0.431   0.273  14.723  0.0892  0.1797  0.1810
 2749TIP3    H129662   0.509   0.253  14.672  0.1744  1.7589 -0.3595
 2749TIP3    H229663   0.460   0.270  14.814  0.2771 -1.2311  0.0918
 2750TIP3   OH229664   1.056   2.816   0.074 -0.1529  0.1095 -0.5884
 2750TIP3    H129665   1.148   2.795   0.092 -0.2582  0.1152 -0.0363
 2750TIP3    H229666   1.007   2.764   0.137 -0.3960  2.3886  1.2265
 2751TIP3   OH229667   2.871   2.168  17.077  0.1564  0.0205  0.6037
 2751TIP3    H129668   2.923   2.246  17.055 -1.1720  1.0464  0.9559
 2751TIP3    H229669   2.896   2.103  17.011  0.5316  1.1064 -0.3645
 2752TIP3   OH229670   2.049   0.473   3.037  0.1131  0.0062 -0.0964
 2752TIP3    H129671   1.974   0.418   3.060 -0.5896  0.7221 -0.6483
 2752TIP3    H229672   2.019   0.526   2.963  0.5821  1.5569  0.7874
 2753TIP3   OH229673   1.987   5.579   4.018  0.5609  0.4551 -0.1314
 2753TIP3    H129674   2.009   5.672   4.009  2.2047  0.0862 -0.1248
 2753TIP3    H229675   2.065   5.538   4.054 -0.4021 -0.8306  0.6055
 2754TIP3   OH229676   6.518   5.344  12.885 -0.4273  0.0414  0.1088
 2754TIP3    H129677   6.495   5.309  12.971 -0.3544 -1.1081 -0.3137
 2754TIP3    H229678   6.437   5.340  12.835  0.0499 -1.6106 -0.6013
 2755TIP3   OH229679   1.289   5.267  14.345  0.1539 -0.1112 -0.2974
 2755TIP3    H129680   1.357   5.207  14.315  1.3929  0.2829  1.5419
 2755TIP3    H229681   1.334   5.351  14.357  0.6594 -0.7622  5.0693
 2756TIP3   OH229682   0.606   1.168   0.466  0.0283 -0.0130  0.0706
 2756TIP3    H129683   0.612   1.097   0.402 -1.8765  0.7857 -1.0746
 2756TIP3    H229684   0.555   1.131   0.538  0.7243 -0.3991  0.3675
 2757TIP3   OH229685   0.281   5.987  12.242  0.8196 -0.2045 -0.4465
 2757TIP3    H129686   0.230   5.906  12.252 -0.9396  0.9721  0.5609
 2757TIP3    H229687   0.327   5.996  12.325 -0.9760  1.0761  0.4817
 2758TIP3   OH229688   2.180   4.193   0.467  0.8733 -0.0927 -0.3990
 2758TIP3    H129689   2.243   4.155   0.528  0.1450 -2.0460 -0.8103
 2758TIP3    H229690   2.110   4.227   0.523  0.0348 -2.1939 -0.0846
 2759TIP3   OH229691   2.373   0.534   1.078 -0.2080 -0.1316 -0.0998
 2759TIP3    H129692   2.383   0.465   1.012  0.3932 -0.3107  0.1697
 2759TIP3    H229693   2.453   0.528   1.130 -0.6110  0.1095  0.5514
 2760TIP3   OH229694   3.127   0.606   3.450 -0.0194 -0.0150  0.0353
 2760TIP3    H129695   3.084   0.540   3.504 -0.5398 -1.4536 -2.0120
 2760TIP3    H229696   3.219   0.579   3.447 -0.1250 -0.3498 -0.3389
 2761TIP3   OH229697   3.573   2.334   1.258  0.3418 -0.4983 -0.1867
 2761TIP3    H129698   3.585   2.297   1.170  0.6062 -0.8350 -0.0122
 2761TIP3    H229699   3.613   2.269   1.316 -0.4225 -0.6077  0.2358
 2762TIP3   OH229700   1.602   1.368  15.640 -0.0746 -0.2400 -0.2927
 2762TIP3    H129701   1.523   1.397  15.593  0.1858 -1.2671 -1.4089
 2762TIP3    H229702   1.609   1.429  15.714 -1.2996  0.5464 -0.7842
 2763TIP3   OH229703   4.668   0.410   4.535 -0.7525  0.3062  0.0757
 2763TIP3    H129704   4.638   0.494   4.500 -0.4081 -0.0516 -1.1184
 2763TIP3    H229705   4.604   0.389   4.604 -0.7644  1.5903  0.4894
 2764TIP3   OH229706   4.499   0.773   0.027 -0.2936 -0.1077  0.2373
 2764TIP3    H129707   4.512   0.844  -0.036 -1.7399  0.7655  0.8942
 2764TIP3    H229708   4.495   0.694  -0.028  2.0140  0.1629 -0.4469
 2765TIP3   OH229709   1.835   0.028  15.837 -0.2931  0.2138  0.2071
 2765TIP3    H129710   1.852  -0.045  15.896  0.2291  0.2540  0.1096
 2765TIP3    H229711   1.766   0.078  15.881 -0.1824  0.0302  0.5982
 2766TIP3   OH229712   1.923   4.197  17.009  0.3890 -0.1228  0.3172
 2766TIP3    H129713   1.844   4.209  17.062  1.1533  0.7091  1.3236
 2766TIP3    H229714   1.943   4.104  17.017 -0.0880 -0.2047  0.6395
 2767TIP3   OH229715   3.860   3.608  17.405 -0.1963  0.0461  0.1446
 2767TIP3    H129716   3.818   3.569  17.482 -1.2501  0.1101 -0.3777
 2767TIP3    H229717   3.946   3.636  17.436 -0.2093 -0.8431  1.0458
 2768TIP3   OH229718   3.798   3.073   1.662 -0.0039 -0.0564 -0.3154
 2768TIP3    H129719   3.787   3.123   1.581  1.5111  1.4248  0.3210
 2768TIP3    H229720   3.787   3.138   1.731  1.5633 -0.6780  0.5640
 2769TIP3   OH229721   1.384   2.822   5.787  0.3494 -0.1635 -0.2779
 2769TIP3    H129722   1.407   2.750   5.729  0.6129 -1.1725  1.0255
 2769TIP3    H229723   1.324   2.783   5.851  1.0100  0.5915  0.8440
 2770TIP3   OH229724   3.533   5.269   0.149 -0.2731 -0.0324 -0.2400
 2770TIP3    H129725   3.507   5.323   0.074 -2.0228 -0.6016 -0.1079
 2770TIP3    H229726   3.601   5.319   0.193 -0.6289  1.2500 -1.0973
 2771TIP3   OH229727   1.845   6.443  16.858 -0.3155  0.1820 -0.3208
 2771TIP3    H129728   1.751   6.444  16.843 -0.3267  0.5586 -0.2439
 2771TIP3    H229729   1.883   6.434  16.771 -0.3808  2.3199 -0.6445
 2772TIP3   OH229730   4.838   4.291   5.017  0.0791  0.2838  0.2649
 2772TIP3    H129731   4.765   4.318   4.961 -0.0210  1.5594  0.9763
 2772TIP3    H229732   4.913   4.341   4.983  0.7774 -1.4184 -0.8089
 2773TIP3   OH229733   3.759   4.632  15.100  0.1984 -0.5690 -0.1829
 2773TIP3    H129734   3.719   4.618  15.186 -1.0940 -0.6732 -0.7762
 2773TIP3    H229735   3.840   4.680  15.118 -0.8494  0.8268  0.9709
 2774TIP3   OH229736   2.124   5.076   1.518  0.7829  0.3182  0.6229
 2774TIP3    H129737   2.155   5.125   1.594  2.2873  1.2592 -0.5507
 2774TIP3    H229738   2.181   4.999   1.514 -0.0646 -0.3629  1.0920
 2775TIP3   OH229739   3.758   1.333  13.244 -0.4287 -0.8292 -0.1708
 2775TIP3    H129740   3.776   1.426  13.239 -1.6583 -0.4150  1.8172
 2775TIP3    H229741   3.729   1.308  13.157 -0.1720  0.6630 -0.6996
 2776TIP3   OH229742   2.478   3.736  13.938 -0.1955 -0.1816 -0.1399
 2776TIP3    H129743   2.414   3.788  13.888  0.0406 -0.5480 -0.8317
 2776TIP3    H229744   2.523   3.683  13.872 -2.2626 -3.3336  0.7468
 2777TIP3   OH229745   3.947   4.504   6.722  0.1332 -0.2330  0.2083
 2777TIP3    H129746   3.945   4.409   6.722  0.9081 -0.3257 -2.8470
 2777TIP3    H229747   4.039   4.527   6.707 -0.3203  0.9357 -0.9993
 2778TIP3   OH229748   1.916   3.394   3.123  0.8672  0.7402  0.1609
 2778TIP3    H129749   1.972   3.346   3.062 -0.1375  0.4948 -0.5974
 2778TIP3    H229750   1.905   3.334   3.197  0.5360  0.2434 -0.2831
 2779TIP3   OH229751   3.134   4.914  16.883 -0.5713  0.0989 -0.0794
 2779TIP3    H129752   3.188   4.920  16.804 -1.8861  0.5411 -0.9679
 2779TIP3    H229753   3.193   4.877  16.949  0.2712 -1.2382 -1.5109
 2780TIP3   OH229754   0.132   0.449  11.277 -0.2756 -0.2769 -0.7129
 2780TIP3    H129755   0.205   0.506  11.251 -0.0062  0.5119  1.5855
 2780TIP3    H229756   0.079   0.503  11.335 -0.1834 -2.2154  1.3044
 2781TIP3   OH229757   4.098   1.342   5.129  0.0048 -0.4499  0.5363
 2781TIP3    H129758   4.033   1.411   5.141  0.6297  0.3712 -0.6158
 2781TIP3    H229759   4.088   1.286   5.206 -2.0374 -0.3499  0.3881
 2782TIP3   OH229760   0.208   5.590   5.061  0.9237 -0.1854 -0.2682
 2782TIP3    H129761   0.225   5.647   5.136  0.7323 -3.1425  2.2188
 2782TIP3    H229762   0.294   5.578   5.020  1.4736 -0.2130  0.8442
 2783TIP3   OH229763   4.516   1.105  13.479 -0.6734 -0.2393 -0.8827
 2783TIP3    H129764   4.421   1.110  13.489 -0.6299  0.7613 -0.9102
 2783TIP3    H229765   4.544   1.049  13.552 -1.0835  1.2214  0.4488
 2784TIP3   OH229766   4.413   3.352  13.265  0.1167  0.4718  0.5449
 2784TIP3    H129767   4.370   3.299  13.197 -1.7690  0.4776  1.6661
 2784TIP3    H229768   4.394   3.442  13.241 -0.5544  0.4741  1.0543
 2785TIP3   OH229769   3.951   4.438  14.056 -0.7596 -0.3965  0.6604
 2785TIP3    H129770   3.884   4.490  14.012  0.0873  0.6210  0.5318
 2785TIP3    H229771   4.029   4.495  14.057  0.0488 -1.4735  0.9625
 2786TIP3   OH229772   3.943   4.599  17.286  0.1958 -0.8808  0.2742
 2786TIP3    H129773   4.003   4.632  17.219  0.3636  0.8189  1.2230
 2786TIP3    H229774   3.889   4.674  17.310  1.0006 -1.0618  2.9675
 2787TIP3   OH229775   3.623   6.682   0.493 -0.4493  0.5339  0.0565
 2787TIP3    H129776   3.590   6.768   0.468 -0.1086  1.4715  2.4957
 2787TIP3    H229777   3.718   6.693   0.497 -0.3511 -0.1512 -0.2427
 2788TIP3   OH229778   6.441   4.664  17.016 -0.5420  0.5978 -0.1981
 2788TIP3    H129779   6.359   4.662  17.065  0.6295 -0.1410  1.8805
 2788TIP3    H229780   6.474   4.574  17.020  1.2210  1.2226  0.6375
 2789TIP3   OH229781   4.121   3.894  15.506  0.0012 -0.1784  0.1371
 2789TIP3    H129782   4.172   3.971  15.481  0.4175 -0.2022  0.8808
 2789TIP3    H229783   4.140   3.882  15.599  0.5569 -1.6478 -0.1426
 2790TIP3   OH229784   6.411   0.570   1.325 -0.1227 -1.0233 -0.2240
 2790TIP3    H129785   6.506   0.575   1.322  0.2540 -3.1261  2.8168
 2790TIP3    H229786   6.387   0.615   1.406 -1.6863 -0.8291 -0.7566
 2791TIP3   OH229787   2.754   2.297  14.864  0.1688 -0.8812  0.0513
 2791TIP3    H129788   2.717   2.213  14.836  0.6890 -0.8639 -0.7204
 2791TIP3    H229789   2.824   2.315  14.800  0.4794 -0.1700  0.5804
 2792TIP3   OH229790   2.750   0.835  11.913  0.5196  0.2030 -0.3091
 2792TIP3    H129791   2.823   0.892  11.888  0.8614 -0.5344 -1.0051
 2792TIP3    H229792   2.736   0.778  11.838 -0.8918  0.4377 -0.2458
 2793TIP3   OH229793   1.561   2.150  13.780 -0.1777  0.1319 -0.2452
 2793TIP3    H129794   1.594   2.236  13.806 -0.3221 -0.8490  3.8553
 2793TIP3    H229795   1.486   2.135  13.838 -2.1459 -1.5633 -2.9864
 2794TIP3   OH229796   0.114   1.730  14.613 -0.0416 -0.2527 -0.4732
 2794TIP3    H129797   0.160   1.776  14.683  3.7583  0.8405 -3.2976
 2794TIP3    H229798   0.067   1.798  14.566  1.1206 -0.1171 -1.4968
 2795TIP3   OH229799   0.022   5.611   5.626 -0.8039 -0.4782 -0.3616
 2795TIP3    H129800   0.109   5.611   5.665 -0.0264  2.1161 -1.8720
 2795TIP3    H229801  -0.022   5.687   5.663 -2.5121 -1.7385  0.3805
 2796TIP3   OH229802   5.684   2.035  13.638 -0.3156  0.5452 -0.1794
 2796TIP3    H129803   5.703   2.052  13.545  0.0925  2.0512  0.1628
 2796TIP3    H229804   5.645   2.116  13.670 -1.9126 -0.4817  0.6087
 2797TIP3   OH229805   4.909   2.723   2.385 -0.1388 -0.1746  0.4089
 2797TIP3    H129806   4.825   2.745   2.344 -0.3923  0.2708  1.1345
 2797TIP3    H229807   4.901   2.630   2.406 -1.3283  0.2944  2.3578
 2798TIP3   OH229808   3.433   0.835  12.303 -0.1928  0.1352  0.0037
 2798TIP3    H129809   3.464   0.925  12.296 -1.5124  0.7803  1.6328
 2798TIP3    H229810   3.480   0.800  12.379  0.8948 -0.8296 -1.0925
 2799TIP3   OH229811   2.707   4.288  13.905  0.0079  0.4369  0.1697
 2799TIP3    H129812   2.681   4.367  13.858  0.8797  1.2927  1.0676
 2799TIP3    H229813   2.625   4.243  13.925 -0.4047  0.1961 -1.8608
 2800TIP3   OH229814   5.118   4.883   4.541 -0.3408 -0.1305  0.0203
 2800TIP3    H129815   5.160   4.931   4.612 -1.1829  1.0315 -0.2140
 2800TIP3    H229816   5.171   4.805   4.528 -0.5466 -0.7122  2.3649
 2801TIP3   OH229817   1.616   2.774  14.985  0.0854  0.6442  0.2812
 2801TIP3    H129818   1.593   2.684  15.007 -0.0290  0.9495  1.5004
 2801TIP3    H229819   1.712   2.775  14.984  0.1324  0.0554 -1.8562
 2802TIP3   OH229820   4.201   3.119  11.533  0.5621 -0.5482  0.3750
 2802TIP3    H129821   4.176   3.194  11.587  1.5569  1.5685 -1.8922
 2802TIP3    H229822   4.152   3.131  11.452  1.7052 -1.6475 -0.5158
 2803TIP3   OH229823   3.194   0.397  12.281  0.1240  0.3853 -0.3564
 2803TIP3    H129824   3.150   0.355  12.355  0.0573  0.8649 -0.1176
 2803TIP3    H229825   3.271   0.439  12.320 -0.0289  0.8238 -0.5194
 2804TIP3   OH229826   1.568   4.626   6.159 -0.1353 -0.0726  0.5078
 2804TIP3    H129827   1.477   4.630   6.190 -0.4351 -1.1684 -0.1759
 2804TIP3    H229828   1.572   4.693   6.090 -0.2852  0.3158  0.8728
 2805TIP3   OH229829   5.901   3.881  13.180 -0.6599 -0.0613  0.1847
 2805TIP3    H129830   5.813   3.895  13.146 -0.2065  0.5849 -0.7772
 2805TIP3    H229831   5.959   3.916  13.112  0.2790  2.6567  2.1909
 2806TIP3   OH229832   1.159   4.155  16.345 -0.2840  0.2482 -0.4706
 2806TIP3    H129833   1.198   4.076  16.383 -0.7894  0.5807  0.7920
 2806TIP3    H229834   1.079   4.169  16.396 -0.5201  1.2226 -1.0846
 2807TIP3   OH229835   6.584   4.457  12.736  0.1661 -0.0892  0.2317
 2807TIP3    H129836   6.553   4.448  12.826 -1.6415 -0.7627 -0.4138
 2807TIP3    H229837   6.536   4.390  12.687  2.7773 -1.3028 -0.8696
 2808TIP3   OH229838   0.595   3.945   4.294 -0.2072  0.2928 -0.2630
 2808TIP3    H129839   0.656   3.999   4.344  0.3038  1.6968 -2.2960
 2808TIP3    H229840   0.646   3.867   4.271 -0.1477  0.0782  0.5853
 2809TIP3   OH229841   4.843   4.739   4.345 -0.0423  0.2007 -0.4293
 2809TIP3    H129842   4.883   4.655   4.366 -2.1014 -1.3873 -2.2713
 2809TIP3    H229843   4.789   4.760   4.421  0.5428 -0.0951  0.0760
 2810TIP3   OH229844   0.929   6.578  13.170 -0.2465 -0.5410  0.0049
 2810TIP3    H129845   0.891   6.500  13.130  1.6806 -0.4005 -2.3311
 2810TIP3    H229846   0.887   6.651  13.126 -1.0131 -0.2653  1.1646
 2811TIP3   OH229847   1.150   1.364   0.358  0.5038  0.4004 -0.4021
 2811TIP3    H129848   1.237   1.378   0.321  1.4940  1.1831  2.0128
 2811TIP3    H229849   1.093   1.424   0.309  1.6294  1.0611 -0.9477
 2812TIP3   OH229850   4.685   4.309  12.847 -0.1227  0.2880 -0.3055
 2812TIP3    H129851   4.607   4.364  12.838  0.0366  0.7866  1.0843
 2812TIP3    H229852   4.699   4.273  12.759 -2.3157 -0.3997 -0.4239
 2813TIP3   OH229853   5.584   0.469  12.972 -0.1727  0.9018 -0.1516
 2813TIP3    H129854   5.491   0.490  12.963 -1.1673 -3.1928 -1.1032
 2813TIP3    H229855   5.591   0.423  13.055  0.7582  0.1604 -0.6148
 2814TIP3   OH229856   1.175   1.118  13.416  0.0620 -0.6415  0.4063
 2814TIP3    H129857   1.113   1.096  13.485 -0.1319 -0.7215  0.2104
 2814TIP3    H229858   1.155   1.209  13.395 -2.5494 -1.6403 -2.2003
 2815TIP3   OH229859   3.706   5.719  12.122  0.2199  0.6725  0.0295
 2815TIP3    H129860   3.695   5.811  12.146 -1.4919 -0.0420  2.4271
 2815TIP3    H229861   3.749   5.680  12.199  0.3314 -0.6621 -0.6832
 2816TIP3   OH229862   1.227   5.663  17.541  0.1231 -0.1334  0.5491
 2816TIP3    H129863   1.234   5.664  17.637  0.3491 -1.0061  0.5523
 2816TIP3    H229864   1.179   5.582  17.522 -3.6568  1.9857  0.1376
 2817TIP3   OH229865   4.370   0.529   3.003 -0.2860  0.0389 -0.5576
 2817TIP3    H129866   4.422   0.511   2.925 -0.2073 -1.9061 -0.1073
 2817TIP3    H229867   4.411   0.475   3.071 -2.4146 -0.9565  0.0011
 2818TIP3   OH229868   1.807   1.658   4.874 -0.2149  0.0672  0.3496
 2818TIP3    H129869   1.742   1.590   4.858  0.0595  0.0570 -0.7315
 2818TIP3    H229870   1.805   1.712   4.795 -2.3929  2.9715  2.1614
 2819TIP3   OH229871   3.131   0.926  17.606 -0.5670  0.8185  0.2392
 2819TIP3    H129872   3.126   0.989  17.535 -0.4311  2.6204  1.7705
 2819TIP3    H229873   3.215   0.882  17.594 -0.1327  1.7527 -0.1797
 2820TIP3   OH229874   4.490   1.532   4.555 -0.0715  0.3938  0.2032
 2820TIP3    H129875   4.459   1.448   4.589  0.4164  0.3918  0.6559
 2820TIP3    H229876   4.585   1.530   4.567 -0.2308  1.8260  2.1114
 2821TIP3   OH229877   1.673   4.758  17.501  0.2792  0.1952  0.2517
 2821TIP3    H129878   1.659   4.758  17.406  0.2896 -0.5908  0.2424
 2821TIP3    H229879   1.697   4.848  17.522  2.2021 -0.0149 -0.7854
 2822TIP3   OH229880   2.383   4.941   1.530  0.9612  0.1525  0.6817
 2822TIP3    H129881   2.334   4.863   1.555 -0.8103  0.5834 -1.1399
 2822TIP3    H229882   2.371   5.002   1.603  1.1673 -0.7701  1.4961
 2823TIP3   OH229883   3.161   4.913  15.312  0.9585 -0.1149 -0.6241
 2823TIP3    H129884   3.143   4.843  15.376  0.9004 -0.2012 -0.7354
 2823TIP3    H229885   3.096   4.899  15.243  1.2953 -0.2789 -0.9082
 2824TIP3   OH229886   2.966   5.531   4.515  0.1195  0.1313  0.1263
 2824TIP3    H129887   3.010   5.615   4.502  0.3529 -0.1543 -1.0810
 2824TIP3    H229888   2.982   5.510   4.607  0.1344  1.3569  0.4197
 2825TIP3   OH229889   5.392   0.280   4.970  0.0341  0.3205 -0.1154
 2825TIP3    H129890   5.404   0.186   4.987  1.3418  0.4035 -0.5032
 2825TIP3    H229891   5.426   0.293   4.881 -0.5505  1.0888 -0.2368
 2826TIP3   OH229892   4.523   1.205  12.145 -0.3844  0.5691  0.1036
 2826TIP3    H129893   4.572   1.126  12.166 -0.2373  0.7217  0.3405
 2826TIP3    H229894   4.464   1.218  12.220  0.5409  1.4340  0.7092
 2827TIP3   OH229895   1.365   6.220  16.943 -0.5886 -0.4544 -1.5423
 2827TIP3    H129896   1.287   6.273  16.961  0.5007  1.1672 -1.3761
 2827TIP3    H229897   1.429   6.250  17.007  0.4797 -1.0803 -2.2967
 2828TIP3   OH229898   2.999   0.175  17.521  0.6081 -0.0606  0.0441
 2828TIP3    H129899   2.999   0.083  17.548 -0.2409 -0.3933 -1.0039
 2828TIP3    H229900   2.988   0.172  17.426 -0.6735  1.1353  0.1198
 2829TIP3   OH229901   0.820   2.312   5.186 -0.3712  0.0742 -0.3880
 2829TIP3    H129902   0.767   2.359   5.249 -0.2776  0.6639 -0.7405
 2829TIP3    H229903   0.893   2.277   5.236 -2.0414 -2.4282  0.5112
 2830TIP3   OH229904   6.515   0.501   3.702 -0.1789  0.4104  0.1321
 2830TIP3    H129905   6.530   0.406   3.706 -0.6189  0.1414 -2.6057
 2830TIP3    H229906   6.446   0.517   3.766 -0.5649 -1.2407  0.1754
 2831TIP3   OH229907   1.675   6.645   0.192  0.1420  0.0992  0.5151
 2831TIP3    H129908   1.762   6.653   0.154 -0.0306 -4.0736 -1.2670
 2831TIP3    H229909   1.676   6.561   0.238 -3.3301 -0.9169 -0.9420
 2832TIP3   OH229910   5.731   2.551  12.972  0.0530  0.1578 -0.3604
 2832TIP3    H129911   5.805   2.596  12.932  0.1620 -0.0449 -0.3886
 2832TIP3    H229912   5.752   2.458  12.963  0.0222  0.1079  0.0606
 2833TIP3   OH229913   4.654   2.146   3.910 -0.5267  0.4002 -0.2493
 2833TIP3    H129914   4.646   2.062   3.866  0.4163 -0.0668  0.4474
 2833TIP3    H229915   4.584   2.145   3.976 -1.2765  0.6726 -1.0228
 2834TIP3   OH229916   4.834   1.016  13.020 -0.1207 -0.2211  0.5766
 2834TIP3    H129917   4.844   1.012  13.115 -0.4961 -1.8996  0.5764
 2834TIP3    H229918   4.743   1.045  13.007 -0.7802 -2.0255  0.8010
 2835TIP3   OH229919   1.411   6.400   4.554  0.0805 -0.8156  0.6070
 2835TIP3    H129920   1.451   6.353   4.628  1.2990  0.1506  0.6130
 2835TIP3    H229921   1.483   6.454   4.519 -1.3236  1.3869  0.9152
 2836TIP3   OH229922   2.844   5.029   2.768 -0.2950 -0.1603  0.0048
 2836TIP3    H129923   2.908   4.980   2.717  0.7281 -0.7892  1.8040
 2836TIP3    H229924   2.769   5.038   2.709  0.5326 -1.4899 -1.3381
 2837TIP3   OH229925   4.642   2.159  17.105 -0.0141  0.5085  0.3060
 2837TIP3    H129926   4.641   2.083  17.163 -0.0470  0.4575  0.2380
 2837TIP3    H229927   4.575   2.218  17.142 -1.2438 -0.2431 -0.6285
 2838TIP3   OH229928   3.447   3.925   4.556  0.2458 -0.5496 -0.0433
 2838TIP3    H129929   3.419   3.962   4.639 -1.1524 -0.4528 -0.5300
 2838TIP3    H229930   3.519   3.866   4.579  1.5536  1.3287  0.9097
 2839TIP3   OH229931   5.138   3.229   2.590 -0.0563  0.2933 -0.5078
 2839TIP3    H129932   5.095   3.149   2.561 -0.6595  1.0121 -1.6835
 2839TIP3    H229933   5.169   3.209   2.678 -1.0579 -0.9060 -0.3958
 2840TIP3   OH229934   2.932   6.335   2.692 -0.0269 -0.0839  0.0983
 2840TIP3    H129935   2.940   6.296   2.779  1.7244 -2.1593 -0.9086
 2840TIP3    H229936   2.887   6.268   2.640  2.8146 -0.8536 -1.6098
 2841TIP3   OH229937   4.963   6.013  13.315 -0.1999  0.4391 -0.1067
 2841TIP3    H129938   4.961   5.945  13.247 -1.5153  0.4527 -0.1075
 2841TIP3    H229939   4.921   6.089  13.274 -0.0014  0.8039  0.3611
 2842TIP3   OH229940   5.005   0.560   3.246 -0.3925 -0.3851  0.3601
 2842TIP3    H129941   4.919   0.519   3.234 -0.2820 -0.8360  1.0580
 2842TIP3    H229942   5.042   0.564   3.158 -0.9901 -0.4935  0.0992
 2843TIP3   OH229943   2.019   5.180  13.477  0.1918  0.6508  0.5452
 2843TIP3    H129944   2.064   5.256  13.515 -0.2416  1.0930  0.1686
 2843TIP3    H229945   2.090   5.129  13.437  0.8944 -0.5617  3.1125
 2844TIP3   OH229946   1.550   6.559   3.630  0.4889  0.1310  0.1591
 2844TIP3    H129947   1.602   6.606   3.696  0.4894 -1.8650  1.6815
 2844TIP3    H229948   1.466   6.544   3.673 -1.4320  3.0590 -2.1644
 2845TIP3   OH229949   3.320   6.524  16.812  0.2202  0.6501  0.1506
 2845TIP3    H129950   3.282   6.604  16.849  0.0899  1.3237 -1.3562
 2845TIP3    H229951   3.414   6.535  16.824  0.1635  0.6886  0.5910
 2846TIP3   OH229952   1.911   3.841  16.159 -0.2112  0.0033  0.4337
 2846TIP3    H129953   1.820   3.814  16.149 -0.0482 -0.2443 -0.4757
 2846TIP3    H229954   1.921   3.857  16.253 -1.2781  0.3672  0.4983
 2847TIP3   OH229955   1.397   4.783   1.044 -0.2413  0.1757 -0.6008
 2847TIP3    H129956   1.408   4.692   1.016 -0.2573  0.2386 -0.8132
 2847TIP3    H229957   1.327   4.816   0.988  0.6814  0.7200 -1.4651
 2848TIP3   OH229958   4.869   1.263   2.750 -0.3042 -0.1991 -0.1011
 2848TIP3    H129959   4.798   1.236   2.808 -2.7840  1.8243 -1.9328
 2848TIP3    H229960   4.938   1.294   2.809 -0.4712 -3.0905  1.7778
 2849TIP3   OH229961   4.290   1.328  16.236 -0.1425  0.2263 -0.2213
 2849TIP3    H129962   4.321   1.379  16.161  3.0722 -2.0109 -0.6499
 2849TIP3    H229963   4.253   1.249  16.198  0.2208 -0.3001  0.4861
 2850TIP3   OH229964   6.028   0.836   1.194  0.4357 -0.0505  0.4137
 2850TIP3    H129965   5.959   0.900   1.175 -2.4160 -3.4890 -2.3797
 2850TIP3    H229966   6.098   0.857   1.133 -0.6394  0.2748 -0.7643
 2851TIP3   OH229967   1.659   0.670  12.079 -0.2108 -0.4041 -0.5551
 2851TIP3    H129968   1.731   0.655  12.140  0.7342 -0.1862 -1.5870
 2851TIP3    H229969   1.594   0.604  12.102 -0.4583  0.4604  1.5148
 2852TIP3   OH229970   5.505   1.184   5.909 -0.4153  0.4682  0.6198
 2852TIP3    H129971   5.493   1.229   5.992 -1.2321 -1.6199  1.7191
 2852TIP3    H229972   5.428   1.128   5.901 -0.9725  1.5058 -2.1972
 2853TIP3   OH229973   5.233   0.016   0.050 -0.1612  0.4654 -0.0423
 2853TIP3    H129974   5.220  -0.051  -0.017 -0.8700  0.0476  0.4936
 2853TIP3    H229975   5.278   0.088   0.005 -2.0012  0.8578 -1.3488
 2854TIP3   OH229976   2.374   5.452  13.249  0.1334 -0.2359  0.2848
 2854TIP3    H129977   2.455   5.438  13.298 -0.1077  0.5098  0.9191
 2854TIP3    H229978   2.307   5.465  13.317 -0.2074  0.8385 -0.2311
 2855TIP3   OH229979   1.674   0.876   3.453  0.2905 -0.4835 -0.7928
 2855TIP3    H129980   1.648   0.962   3.420  1.1078 -0.2737 -0.9166
 2855TIP3    H229981   1.651   0.815   3.383  0.7497 -0.2166 -1.1817
 2856TIP3   OH229982   1.093   6.103   6.304  0.0101 -0.2258 -0.0392
 2856TIP3    H129983   1.037   6.026   6.310  0.9590 -0.9163  0.1285
 2856TIP3    H229984   1.176   6.077   6.345  1.4963 -0.2195 -2.7650
 2857TIP3   OH229985   0.761   1.565   1.471  0.3520  0.8019  0.0705
 2857TIP3    H129986   0.712   1.566   1.389  0.3572  0.1771  0.0562
 2857TIP3    H229987   0.704   1.516   1.532  1.4398 -0.9609 -0.2601
 2858TIP3   OH229988   5.640   5.540  12.668  0.5768 -0.7685  0.1517
 2858TIP3    H129989   5.573   5.545  12.599  3.1666 -0.5227 -2.5679
 2858TIP3    H229990   5.592   5.557  12.749 -2.5550 -0.1969 -1.6419
 2859TIP3   OH229991   0.614   1.801   1.833  0.5615 -0.1124  0.3374
 2859TIP3    H129992   0.647   1.812   1.744  0.2858 -1.8906 -0.0315
 2859TIP3    H229993   0.634   1.883   1.877  0.9164  0.7103 -1.2987
 2860TIP3   OH229994   3.890   4.253   4.523 -0.9357 -0.7526 -0.2716
 2860TIP3    H129995   3.915   4.342   4.497 -0.5737 -1.3966 -2.3617
 2860TIP3    H229996   3.948   4.232   4.596 -0.8085  0.6120  0.0442
 2861TIP3   OH229997   6.449   2.172   1.822  0.8245  0.5060  0.7765
 2861TIP3    H129998   6.395   2.250   1.806  0.0526 -0.2151 -0.3572
 2861TIP3    H229999   6.486   2.151   1.736 -1.5033 -2.1375  0.2503
 2862TIP3   OH230000   4.296   4.170   1.346  0.6263  0.0297 -0.4283
 2862TIP3    H130001   4.387   4.143   1.333  0.7952  0.6057 -0.4804
 2862TIP3    H230002   4.249   4.132   1.272  1.1703  1.3367 -1.4837
 2863TIP3   OH230003   1.811   0.720   5.366  0.1657 -0.7052 -0.0793
 2863TIP3    H130004   1.720   0.737   5.388  0.1616 -1.7569  0.8069
 2863TIP3    H230005   1.847   0.805   5.343 -1.4855 -0.4856 -2.2260
 2864TIP3   OH230006   5.403   1.079  16.521 -0.0184 -0.2705 -0.8424
 2864TIP3    H130007   5.442   1.134  16.452 -0.6467 -0.2560 -1.1908
 2864TIP3    H230008   5.327   1.129  16.551  0.4017 -0.1571  0.0464
 2865TIP3   OH230009   3.854   4.091  15.827 -0.0514 -0.3264 -0.0701
 2865TIP3    H130010   3.930   4.069  15.881  1.4510  1.1008 -1.4670
 2865TIP3    H230011   3.844   4.186  15.837 -0.1508 -0.1267 -1.7138
 2866TIP3   OH230012   5.433   3.287   1.060 -0.1282  0.1434 -0.3774
 2866TIP3    H130013   5.426   3.292   1.155  0.2657 -1.0290 -0.2758
 2866TIP3    H230014   5.386   3.208   1.036 -1.0962  0.9603 -1.2737
 2867TIP3   OH230015   3.390   1.900  15.934 -0.0049  0.5993  0.1085
 2867TIP3    H130016   3.429   1.812  15.932 -1.9067 -0.2778 -0.3877
 2867TIP3    H230017   3.302   1.886  15.968 -0.5437  2.2374 -0.5349
 2868TIP3   OH230018   4.940   2.596   4.689 -0.6830 -0.1973  0.1055
 2868TIP3    H130019   4.899   2.558   4.611 -1.8744 -0.2671  0.7374
 2868TIP3    H230020   4.909   2.687   4.689 -1.7986 -0.5497  1.1943
 2869TIP3   OH230021   1.967   1.752  14.645  0.4728 -0.2101 -0.3905
 2869TIP3    H130022   1.964   1.695  14.722  3.6447  0.6913  0.5738
 2869TIP3    H230023   1.996   1.694  14.574 -1.1581 -0.7535 -0.6665
 2870TIP3   OH230024   2.171   1.944  13.061  0.0420  0.3177  0.5052
 2870TIP3    H130025   2.152   1.999  12.985  2.7768 -1.9191 -2.0402
 2870TIP3    H230026   2.266   1.950  13.073 -0.0109 -1.2837  2.2261
 2871TIP3   OH230027   1.241   5.811   3.796  0.2675 -0.5809 -0.3594
 2871TIP3    H130028   1.218   5.903   3.781  0.0474 -0.8878 -2.1427
 2871TIP3    H230029   1.301   5.813   3.870 -0.6164  0.8747  0.3715
 2872TIP3   OH230030   2.927   3.945   6.075 -0.1202 -0.3642  0.5246
 2872TIP3    H130031   2.835   3.932   6.052  0.3296 -1.4020 -0.7987
 2872TIP3    H230032   2.971   3.954   5.990  1.1878 -1.2958  1.0867
 2873TIP3   OH230033   2.037   0.185   2.011  0.1490 -0.3402  0.3517
 2873TIP3    H130034   2.093   0.111   2.035  0.9712  0.0417 -0.3051
 2873TIP3    H230035   2.045   0.191   1.916  1.0121  1.2793  0.4921
 2874TIP3   OH230036   2.343   3.012   0.879 -0.4786 -0.1385  0.7278
 2874TIP3    H130037   2.328   3.026   0.786 -0.7890  2.3237  1.0717
 2874TIP3    H230038   2.420   3.065   0.899 -0.6378 -0.3325  1.9245
 2875TIP3   OH230039   3.187   3.005   4.754 -0.3224 -0.4752 -0.3375
 2875TIP3    H130040   3.188   2.990   4.848 -1.9996  1.4013  0.0349
 2875TIP3    H230041   3.130   2.937   4.719 -0.4905 -0.5705  0.1252
 2876TIP3   OH230042   1.109   0.681  12.605  0.1589  0.1559 -0.9593
 2876TIP3    H130043   1.016   0.676  12.585  0.6755 -3.0332 -3.5755
 2876TIP3    H230044   1.113   0.687  12.701 -2.7606 -1.3230 -0.6240
 2877TIP3   OH230045   2.290   0.826   3.931  0.0637 -0.2047 -0.3451
 2877TIP3    H130046   2.382   0.832   3.956 -0.7104  4.9218  2.4883
 2877TIP3    H230047   2.290   0.836   3.836  2.4053 -0.0982 -0.3820
 2878TIP3   OH230048   1.996   6.605  14.019 -0.4996  0.2214 -0.3944
 2878TIP3    H130049   1.903   6.609  13.998 -0.5644  0.4482 -0.0827
 2878TIP3    H230050   2.040   6.622  13.936 -0.7255 -0.5679 -0.6873
 2879TIP3   OH230051   1.417   5.604   2.484 -0.1345  0.0391  0.0493
 2879TIP3    H130052   1.397   5.582   2.575 -0.1751  0.3352  0.1135
 2879TIP3    H230053   1.500   5.652   2.489 -0.0881 -0.0274 -0.0791
 2880TIP3   OH230054   0.150   1.324  14.245 -0.3194 -0.2100 -0.1248
 2880TIP3    H130055   0.158   1.389  14.316  1.7716 -0.6279  0.1042
 2880TIP3    H230056   0.191   1.245  14.281 -1.4199 -1.1986 -0.9678
 2881TIP3   OH230057   5.021   6.358  14.824 -0.4422 -0.0463  0.3643
 2881TIP3    H130058   4.980   6.330  14.742 -0.9525  1.6217  0.0152
 2881TIP3    H230059   5.064   6.279  14.857  0.4997 -0.5756 -1.9292
 2882TIP3   OH230060   3.932   0.364   4.006  0.3315  0.5982  0.1819
 2882TIP3    H130061   3.970   0.450   3.986 -1.5827  1.6496  0.8465
 2882TIP3    H230062   3.979   0.336   4.085  1.2801  0.8024 -0.2880
 2883TIP3   OH230063   0.460   1.331  13.297 -0.3585 -0.0060 -0.6600
 2883TIP3    H130064   0.414   1.314  13.379 -1.2691  0.4476 -1.0634
 2883TIP3    H230065   0.402   1.298  13.229  1.1878 -2.0940 -1.0856
 2884TIP3   OH230066   6.116   2.621  16.735  0.0293 -0.2967 -0.1876
 2884TIP3    H130067   6.169   2.558  16.686  0.3750  0.2977 -0.5790
 2884TIP3    H230068   6.178   2.667  16.791 -0.0362  0.5317 -0.7825
 2885TIP3   OH230069   1.894   5.985   4.697  0.0266  0.7378 -0.0993
 2885TIP3    H130070   1.883   5.932   4.618  0.1743 -0.1620  0.4716
 2885TIP3    H230071   1.855   5.933   4.767  1.1476  0.8758  0.6572
 2886TIP3   OH230072   0.671   4.824  15.238 -0.2480  0.0281 -0.2828
 2886TIP3    H130073   0.713   4.910  15.242 -1.1570  0.5478 -1.2920
 2886TIP3    H230074   0.660   4.799  15.330  2.3031 -0.1934  0.0190
 2887TIP3   OH230075   5.058   4.814  16.542 -0.0409  0.3895  0.0874
 2887TIP3    H130076   4.984   4.818  16.603 -0.5523 -1.1336 -0.3962
 2887TIP3    H230077   5.019   4.787  16.459  0.7729  1.6560 -0.7262
 2888TIP3   OH230078   4.570   3.777  15.544  0.3095 -0.0783 -0.0628
 2888TIP3    H130079   4.573   3.726  15.463 -2.5989  1.6246 -1.4266
 2888TIP3    H230080   4.585   3.713  15.613 -0.7241 -2.3512 -1.7894
 2889TIP3   OH230081   2.751   2.534  16.473 -0.1128 -0.1982  0.3673
 2889TIP3    H130082   2.685   2.490  16.420 -3.4335  2.8127  1.5771
 2889TIP3    H230083   2.751   2.624  16.442  0.5698  0.7887  2.9293
 2890TIP3   OH230084   0.167   0.534   3.304  0.5457 -0.0135  0.3659
 2890TIP3    H130085   0.076   0.522   3.278  0.4700  0.3812  0.4468
 2890TIP3    H230086   0.163   0.548   3.399  0.8414 -1.7156  0.6643
 2891TIP3   OH230087   4.486   2.403  12.057 -0.0435  0.6882  0.7197
 2891TIP3    H130088   4.426   2.345  12.105 -0.7075 -0.9437 -1.8865
 2891TIP3    H230089   4.567   2.403  12.109 -1.3247  0.7035  2.8526
 2892TIP3   OH230090   6.204   1.667   5.623 -0.2636  0.8628  0.0780
 2892TIP3    H130091   6.291   1.654   5.661  0.3364  0.6063 -1.3221
 2892TIP3    H230092   6.172   1.579   5.603  0.0963  1.0294 -1.3864
 2893TIP3   OH230093   5.119   2.991   4.770 -0.2972  0.3146 -0.2384
 2893TIP3    H130094   5.203   2.946   4.757 -1.4517 -2.1771  0.2872
 2893TIP3    H230095   5.122   3.025   4.859 -0.4386 -1.2444  0.3868
 2894TIP3   OH230096   3.381   4.797  12.605  0.3584  0.6038  0.3216
 2894TIP3    H130097   3.339   4.867  12.656  0.8850  2.3285 -1.4809
 2894TIP3    H230098   3.390   4.834  12.517 -0.4335 -2.1950 -1.0489
 2895TIP3   OH230099   2.304   1.971   3.097  0.0718 -0.0313  0.0376
 2895TIP3    H130100   2.309   2.036   3.167  0.1305 -0.2107  0.2035
 2895TIP3    H230101   2.285   2.021   3.018  1.5635  0.3439 -0.1098
 2896TIP3   OH230102   5.090   2.990  15.626  0.4781 -0.1299  0.2233
 2896TIP3    H130103   5.131   3.007  15.541 -0.1601 -0.3121 -0.1276
 2896TIP3    H230104   5.110   3.067  15.678 -0.9986  1.0161 -0.8202
 2897TIP3   OH230105   6.584   6.145   1.340 -0.5095  0.5549  0.0610
 2897TIP3    H130106   6.578   6.196   1.260  0.3645  1.0839  0.3156
 2897TIP3    H230107   6.529   6.192   1.403 -1.0668  0.2279 -0.1733
 2898TIP3   OH230108   0.958   1.847   6.797 -0.5513 -0.1630  0.1836
 2898TIP3    H130109   0.888   1.848   6.731 -0.6548 -0.1938  0.2912
 2898TIP3    H230110   0.916   1.811   6.875 -0.3776 -0.3135  0.2096
 2899TIP3   OH230111   3.393   0.580   6.885 -0.0421 -0.3590 -0.5544
 2899TIP3    H130112   3.480   0.546   6.862  0.3787  0.7470 -0.6143
 2899TIP3    H230113   3.363   0.625   6.806 -0.5858 -0.5560 -0.4633
 2900TIP3   OH230114   0.285   4.481   3.094  0.3780 -0.0049  0.0254
 2900TIP3    H130115   0.241   4.556   3.134 -0.6972 -0.3034 -0.5665
 2900TIP3    H230116   0.264   4.407   3.152 -2.2148 -0.6899 -1.6355
 2901TIP3   OH230117   3.006   2.456  16.390 -0.0697 -0.6728  0.0692
 2901TIP3    H130118   2.921   2.451  16.435  0.0579 -1.6490  0.2371
 2901TIP3    H230119   3.026   2.365  16.369  0.3902 -0.3329 -1.0114
 2902TIP3   OH230120   0.074   3.345  13.720 -0.2189  0.5278  0.1120
 2902TIP3    H130121   0.104   3.325  13.809 -0.3637 -0.0478  0.0338
 2902TIP3    H230122  -0.019   3.361  13.729  0.1901  3.2095  0.5046
 2903TIP3   OH230123   6.104   4.835   6.301  0.8019  0.7153  0.5752
 2903TIP3    H130124   6.055   4.903   6.347 -2.8488 -1.8406  0.9483
 2903TIP3    H230125   6.135   4.777   6.371 -0.1041 -0.3282  0.1555
 2904TIP3   OH230126   6.655   4.711  15.952  0.6939 -0.1777 -0.1515
 2904TIP3    H130127   6.661   4.627  15.999  0.5958  0.3630  0.8710
 2904TIP3    H230128   6.655   4.777  16.022 -1.2123  0.5898 -0.8008
 2905TIP3   OH230129   2.164   2.227  17.105 -0.0081 -0.2084 -0.1084
 2905TIP3    H130130   2.131   2.159  17.164  0.3537  0.5788  1.0353
 2905TIP3    H230131   2.258   2.228  17.120 -0.1922  1.7559  1.2547
 2906TIP3   OH230132   0.767   0.388   2.385 -0.0725 -0.2967 -0.2164
 2906TIP3    H130133   0.690   0.333   2.400  0.9453 -1.9540 -0.9141
 2906TIP3    H230134   0.768   0.447   2.461 -1.3400 -1.0366  0.4232
 2907TIP3   OH230135   0.318   1.755   4.888  0.3131  0.4799 -0.1624
 2907TIP3    H130136   0.238   1.806   4.875  0.0561  0.4659  1.1430
 2907TIP3    H230137   0.296   1.667   4.858  0.0275  0.6106 -0.3370
 2908TIP3   OH230138   6.200   3.168  16.403  0.4020  0.0170  0.5856
 2908TIP3    H130139   6.274   3.108  16.398  1.4859  1.3302 -0.0511
 2908TIP3    H230140   6.240   3.255  16.395 -1.2979  0.7215 -0.9493
 2909TIP3   OH230141   0.998   0.387  12.348 -0.3559  0.5136 -0.3625
 2909TIP3    H130142   1.043   0.411  12.267 -2.2484  0.8267 -1.3842
 2909TIP3    H230143   0.921   0.338  12.319 -1.2633  0.9186  1.2334
 2910TIP3   OH230144   5.338   1.725   5.074  0.1665  0.5498 -0.1943
 2910TIP3    H130145   5.273   1.786   5.106  1.7337  2.0766  0.2057
 2910TIP3    H230146   5.405   1.780   5.034  0.9851 -0.9900 -1.0354
 2911TIP3   OH230147   5.957   2.655   3.661 -0.1858  0.5928 -0.3732
 2911TIP3    H130148   5.972   2.648   3.755 -0.5648 -2.6832 -0.4316
 2911TIP3    H230149   5.981   2.569   3.626 -0.5240  1.5314 -3.2174
 2912TIP3   OH230150   5.206   0.422   4.390  0.0835  0.1055  0.2214
 2912TIP3    H130151   5.213   0.513   4.419  0.2150  0.2819 -0.3455
 2912TIP3    H230152   5.280   0.378   4.432 -0.6392 -0.0044  1.4264
 2913TIP3   OH230153   0.994   3.672   6.507  0.1117 -0.3533  0.2224
 2913TIP3    H130154   0.979   3.748   6.564  2.6035  1.3097 -1.1611
 2913TIP3    H230155   0.907   3.634   6.495 -1.0120  1.3577  2.2043
 2914TIP3   OH230156   1.408   5.817  13.021  0.1879 -0.1884  0.2215
 2914TIP3    H130157   1.488   5.765  13.028 -0.4311 -0.9502  2.3493
 2914TIP3    H230158   1.338   5.753  13.010 -0.2646  0.4298 -0.7242
 2915TIP3   OH230159   3.059   1.826  11.673  0.2916 -0.4414 -0.0983
 2915TIP3    H130160   3.153   1.816  11.686  0.1421  0.0391  1.5626
 2915TIP3    H230161   3.037   1.908  11.716 -0.9311 -0.6628 -0.2574
 2916TIP3   OH230162   3.538   4.761  14.649 -0.3074  0.1804 -0.2975
 2916TIP3    H130163   3.451   4.788  14.679 -0.3985  0.8248 -1.0929
 2916TIP3    H230164   3.587   4.744  14.730 -1.5510 -1.5013  0.1451
 2917TIP3   OH230165   0.049   4.195  14.474  0.0267 -0.1468  0.4579
 2917TIP3    H130166   0.050   4.249  14.552  0.0875 -1.3232  1.2968
 2917TIP3    H230167  -0.006   4.243  14.412  0.0491  0.8445  1.1757
 2918TIP3   OH230168   2.994   0.775   2.114  0.6307  0.2295 -0.0433
 2918TIP3    H130169   2.977   0.733   2.198  0.2220 -2.4282 -1.3687
 2918TIP3    H230170   3.083   0.750   2.091  1.3088  2.2043  0.2345
 2919TIP3   OH230171   1.009   6.160   3.429 -0.2702  0.0810 -0.6067
 2919TIP3    H130172   0.952   6.125   3.361  0.8933  1.1399 -2.1997
 2919TIP3    H230173   0.967   6.240   3.458 -0.4132 -0.0036 -0.5817
 2920TIP3   OH230174   3.246   2.383  14.252  0.5259  0.1776 -0.7017
 2920TIP3    H130175   3.275   2.296  14.280  0.6522  0.0743 -1.1458
 2920TIP3    H230176   3.262   2.384  14.158  1.4722  1.0430 -0.5555
 2921TIP3   OH230177   0.062   3.024  12.291 -0.2969 -0.0490 -0.2840
 2921TIP3    H130178   0.023   2.937  12.287 -0.0723 -0.1402 -0.5503
 2921TIP3    H230179   0.113   3.024  12.373  2.5609 -1.4197 -1.9216
 2922TIP3   OH230180   0.709   6.498  13.755 -0.1337  0.4213  0.6421
 2922TIP3    H130181   0.715   6.449  13.837  0.4190  0.5451  0.6841
 2922TIP3    H230182   0.774   6.458  13.698  0.1014  0.8919  0.5688
 2923TIP3   OH230183   5.137   1.985   4.858  0.2009 -0.0529 -0.2435
 2923TIP3    H130184   5.231   1.974   4.876  0.3195 -0.8601 -1.2478
 2923TIP3    H230185   5.093   1.941   4.930  0.6247 -0.7853 -0.4234
 2924TIP3   OH230186   3.348   2.161   1.467  0.3853 -0.0645  0.2411
 2924TIP3    H130187   3.258   2.178   1.494  0.8958 -1.1225  2.9639
 2924TIP3    H230188   3.398   2.233   1.506  1.0177 -1.0067  1.2338
 2925TIP3   OH230189   5.177   2.079   3.816 -0.0690  0.7158  0.0975
 2925TIP3    H130190   5.094   2.036   3.838  0.6452 -0.3709  0.6947
 2925TIP3    H230191   5.195   2.136   3.891 -1.0413  2.1959 -0.7154
 2926TIP3   OH230192   0.408   6.446   5.749 -0.4571  0.9348  0.3783
 2926TIP3    H130193   0.318   6.452   5.715 -0.6289 -1.6821  0.1398
 2926TIP3    H230194   0.462   6.444   5.670 -0.6479 -2.3167  0.1835
 2927TIP3   OH230195   1.873   5.322   2.814  0.2408  0.2997 -0.0432
 2927TIP3    H130196   1.880   5.413   2.842 -2.3778  0.5595  0.0050
 2927TIP3    H230197   1.884   5.324   2.719 -0.1207  0.6974 -0.0746
 2928TIP3   OH230198   4.047   0.768  16.523  0.2740  0.2839 -0.1279
 2928TIP3    H130199   3.962   0.790  16.561 -0.4551 -0.2450 -1.3910
 2928TIP3    H230200   4.066   0.680  16.556  0.1543  0.2571 -0.1300
 2929TIP3   OH230201   0.175   5.209   1.857 -0.1746 -0.2342 -0.4390
 2929TIP3    H130202   0.170   5.202   1.953 -0.8130 -1.9367 -0.5718
 2929TIP3    H230203   0.088   5.242   1.832 -0.1089 -0.0737 -0.4557
 2930TIP3   OH230204   1.000   1.470   0.117  0.8639 -0.2951 -0.6721
 2930TIP3    H130205   1.085   1.496   0.084  0.9260  0.5944  0.1512
 2930TIP3    H230206   0.949   1.551   0.121  0.3986 -0.6096  0.0292
 2931TIP3   OH230207   2.998   4.798   1.243  0.7678 -0.0520 -0.1540
 2931TIP3    H130208   3.037   4.710   1.237 -0.5389 -0.8125  1.6628
 2931TIP3    H230209   2.984   4.824   1.152  1.4801 -1.5711 -0.7436
 2932TIP3   OH230210   3.704   5.844   5.495  0.0352  0.8579  0.1843
 2932TIP3    H130211   3.628   5.793   5.522  1.6504 -2.1918 -0.5316
 2932TIP3    H230212   3.699   5.924   5.547 -2.7460  0.0438  1.3414
 2933TIP3   OH230213   2.028   3.631  16.664  0.0970 -0.1641  0.0852
 2933TIP3    H130214   1.982   3.569  16.721  0.0455  0.9730  1.3249
 2933TIP3    H230215   2.005   3.717  16.698  1.1603  0.5131 -0.8310
 2934TIP3   OH230216   4.506   5.935  15.591  0.2518 -0.1520  0.9318
 2934TIP3    H130217   4.571   5.976  15.647  0.7992 -1.8673  1.6320
 2934TIP3    H230218   4.487   6.000  15.524  0.5305  1.4641  2.3804
 2935TIP3   OH230219   6.455   0.012   5.882  0.6079 -0.4262 -0.0403
 2935TIP3    H130220   6.360   0.008   5.888  0.6709 -1.2759  0.5392
 2935TIP3    H230221   6.473   0.088   5.826 -0.3521  0.8565  1.3450
 2936TIP3   OH230222   4.153   2.200   0.263  0.2204  0.2484  0.2509
 2936TIP3    H130223   4.112   2.123   0.221  1.1251 -0.3688  0.4639
 2936TIP3    H230224   4.166   2.173   0.354 -1.5555  1.5165  0.9376
 2937TIP3   OH230225   6.337   2.961   1.072 -0.0046  0.4384 -0.3033
 2937TIP3    H130226   6.370   2.897   1.135 -0.0866  1.0924  0.4182
 2937TIP3    H230227   6.400   3.033   1.075  0.6356 -0.0213 -1.8428
 2938TIP3   OH230228   0.898   6.680   0.942 -0.5809  0.1258 -0.4096
 2938TIP3    H130229   0.957   6.633   1.001 -1.8997 -1.5063 -0.3203
 2938TIP3    H230230   0.919   6.772   0.955 -0.9739 -0.1265  2.8048
 2939TIP3   OH230231   3.969   5.859  12.092 -0.5888  0.2413  0.0157
 2939TIP3    H130232   3.977   5.829  12.002  0.4402 -0.3694  0.3031
 2939TIP3    H230233   3.950   5.780  12.143  0.1570  0.3764  0.5137
 2940TIP3   OH230234   1.209   3.227   1.248 -0.4357  0.5839  0.3481
 2940TIP3    H130235   1.267   3.157   1.278 -0.5510  0.7973  1.1101
 2940TIP3    H230236   1.262   3.278   1.187 -0.1148  0.2541  0.3448
 2941TIP3   OH230237   3.560   1.194  14.672 -0.0473 -0.5638  0.3308
 2941TIP3    H130238   3.566   1.287  14.654  0.2425 -0.7659 -0.6496
 2941TIP3    H230239   3.594   1.184  14.762 -1.7182  0.4827  1.1169
 2942TIP3   OH230240   2.728   0.590  13.502  0.0887  0.3253  0.0362
 2942TIP3    H130241   2.683   0.553  13.577  1.5917  0.7879  1.2099
 2942TIP3    H230242   2.748   0.680  13.528  0.0497  0.7008 -1.1804
 2943TIP3   OH230243   1.306   3.058  11.659  0.0199  0.0600  0.0045
 2943TIP3    H130244   1.242   3.090  11.722 -1.4931 -0.7254 -1.0682
 2943TIP3    H230245   1.382   3.115  11.672 -1.4733  2.1418  0.2245
 2944TIP3   OH230246   5.412   5.566   4.562  0.3477  0.4446  0.2756
 2944TIP3    H130247   5.382   5.642   4.612  1.3859  1.1252 -0.0983
 2944TIP3    H230248   5.505   5.584   4.543  1.2959 -1.9092  2.0894
 2945TIP3   OH230249   3.077   0.094  12.880 -0.6909 -0.1057 -0.3318
 2945TIP3    H130250   2.985   0.113  12.862 -0.8780 -1.8161 -1.3688
 2945TIP3    H230251   3.074   0.018  12.938  0.0568 -1.2175 -1.6953
 2946TIP3   OH230252   5.287   5.645  11.438 -0.2635  0.0235 -0.3291
 2946TIP3    H130253   5.316   5.586  11.369 -1.6999 -0.7638 -0.2875
 2946TIP3    H230254   5.281   5.731  11.396 -0.8275 -0.3897 -1.1162
 2947TIP3   OH230255   0.730   0.327  14.210  0.7107 -0.1837  0.5728
 2947TIP3    H130256   0.775   0.243  14.221  0.3511 -0.3084  1.0868
 2947TIP3    H230257   0.661   0.327  14.275 -1.3864 -0.8912 -1.5103
 2948TIP3   OH230258   4.386   1.343   4.080 -0.2793 -0.2567 -0.0197
 2948TIP3    H130259   4.309   1.390   4.049  0.2322  0.2236 -0.5811
 2948TIP3    H230260   4.357   1.301   4.161 -0.2437  2.5575  1.5791
 2949TIP3   OH230261   1.393   3.857   5.805  0.5993 -0.1946 -0.2727
 2949TIP3    H130262   1.472   3.818   5.842  1.5790  0.9822 -1.0373
 2949TIP3    H230263   1.373   3.931   5.863  0.0281 -0.5116 -0.0585
 2950TIP3   OH230264   3.032   3.594   3.899  0.2558 -0.5078 -0.0808
 2950TIP3    H130265   2.958   3.652   3.882  1.0762  0.0951 -2.0226
 2950TIP3    H230266   3.099   3.651   3.937  0.8528 -0.2567 -1.4365
 2951TIP3   OH230267   1.768   4.930   0.896 -0.0592  0.1467  0.4505
 2951TIP3    H130268   1.823   4.859   0.928 -2.1907 -2.1237 -0.5950
 2951TIP3    H230269   1.707   4.948   0.968 -1.3661 -1.1905 -0.2549
 2952TIP3   OH230270   3.230   5.114  15.974  0.1609  0.1266 -0.2141
 2952TIP3    H130271   3.157   5.099  16.034  0.6642 -0.5388  0.2436
 2952TIP3    H230272   3.223   5.042  15.910  0.0325  0.4383 -0.5541
 2953TIP3   OH230273   0.880   3.474  10.984  0.5524  0.2900 -0.3322
 2953TIP3    H130274   0.788   3.448  10.983  0.2340  1.1404  1.9127
 2953TIP3    H230275   0.929   3.393  10.999  0.1218 -0.0434 -0.7095
 2954TIP3   OH230276   5.045   4.549  15.453  0.4453  0.2108  0.2231
 2954TIP3    H130277   5.026   4.467  15.500 -0.2370  1.0996  1.5514
 2954TIP3    H230278   4.967   4.564  15.400  0.5011  0.0885  0.1053
 2955TIP3   OH230279   0.443   0.564  11.834 -0.0735  0.3347  0.3534
 2955TIP3    H130280   0.487   0.513  11.766 -0.0572 -0.0529  0.6479
 2955TIP3    H230281   0.349   0.550  11.817 -0.0705 -0.6043  1.0173
 2956TIP3   OH230282   2.641   0.146  12.009  0.5164 -0.1554  0.1666
 2956TIP3    H130283   2.681   0.173  11.926 -1.1164  0.9772 -0.2949
 2956TIP3    H230284   2.666   0.054  12.019  1.8520  0.0606 -0.8904
 2957TIP3   OH230285   3.886   4.035  13.019 -0.1342  0.5214  0.1958
 2957TIP3    H130286   3.942   4.108  12.990  1.3277  0.3994  2.4580
 2957TIP3    H230287   3.797   4.067  13.006  0.4079  1.3667 -1.9901
 2958TIP3   OH230288   1.841   3.717   3.724 -0.0474  0.7607 -0.5028
 2958TIP3    H130289   1.863   3.727   3.631  0.4231 -0.5079 -0.5539
 2958TIP3    H230290   1.749   3.744   3.730  0.2005  1.7850 -1.1479
 2959TIP3   OH230291   4.233   5.570   1.370  0.6084  0.4037  0.2395
 2959TIP3    H130292   4.138   5.556   1.363  0.6009 -0.1751  1.3351
 2959TIP3    H230293   4.241   5.653   1.418  0.6230 -0.3413  1.5936
 2960TIP3   OH230294   1.195   3.160   1.955 -0.2473 -0.5797 -0.6983
 2960TIP3    H130295   1.174   3.140   1.864 -0.3633 -0.7606 -0.6324
 2960TIP3    H230296   1.134   3.229   1.979  0.6954  0.4622 -1.1777
 2961TIP3   OH230297   2.358   4.452  17.214 -0.1297 -0.2979 -0.2517
 2961TIP3    H130298   2.341   4.483  17.303  1.7317  1.0210 -0.3018
 2961TIP3    H230299   2.297   4.502  17.159  0.2093  0.5061  0.0795
 2962TIP3   OH230300   2.755   1.654  12.151 -0.4117 -0.3163 -0.1788
 2962TIP3    H130301   2.723   1.564  12.152 -0.8528 -0.1617 -0.4211
 2962TIP3    H230302   2.846   1.646  12.122  1.3894 -1.2509  4.8129
 2963TIP3   OH230303   1.245   3.977   1.700 -0.3660  0.5804  0.4227
 2963TIP3    H130304   1.231   4.053   1.644  1.9634 -0.2590 -1.4931
 2963TIP3    H230305   1.311   4.006   1.763  1.2439 -0.0029 -0.9021
 2964TIP3   OH230306   6.629   2.203   3.975 -0.5863  0.2582 -0.2876
 2964TIP3    H130307   6.651   2.197   3.882 -0.2147 -2.3904 -0.0915
 2964TIP3    H230308   6.709   2.235   4.017 -0.0785 -0.5095 -0.6569
 2965TIP3   OH230309   5.133   5.947   2.801 -0.6091  0.5401 -0.3392
 2965TIP3    H130310   5.091   5.984   2.723 -1.6840  0.1770  0.0433
 2965TIP3    H230311   5.062   5.941   2.865  0.3173  1.1346  0.7908
 2966TIP3   OH230312   4.323   6.155  16.297  0.5582 -0.1934 -0.0610
 2966TIP3    H130313   4.367   6.109  16.225 -0.5237  0.2899 -1.0637
 2966TIP3    H230314   4.312   6.088  16.365  0.5876 -0.9616 -0.7941
 2967TIP3   OH230315   6.208   3.379  11.694 -0.3944 -0.3284  0.3521
 2967TIP3    H130316   6.224   3.457  11.641 -0.2037  0.1891  1.1637
 2967TIP3    H230317   6.272   3.315  11.663 -2.2944 -1.1309 -2.2166
 2968TIP3   OH230318   6.432   0.680   4.335 -1.0634 -0.1931 -0.5784
 2968TIP3    H130319   6.372   0.706   4.405  1.1979  0.1704  1.3130
 2968TIP3    H230320   6.448   0.761   4.287  0.6896  0.5561  1.1643
 2969TIP3   OH230321   0.743   6.240  15.373 -0.1271  0.5836 -0.2173
 2969TIP3    H130322   0.734   6.301  15.300  0.0842  0.9622  0.0717
 2969TIP3    H230323   0.669   6.261  15.430  0.6100  1.3657  0.4612
 2970TIP3   OH230324   0.825   2.642  17.152 -0.5227 -0.4379  0.5769
 2970TIP3    H130325   0.747   2.629  17.097 -1.4004  1.0291  1.4329
 2970TIP3    H230326   0.882   2.697  17.099 -0.8881  0.0577  0.6961
 2971TIP3   OH230327   5.668   0.661   6.401  0.2718 -0.9024 -0.5072
 2971TIP3    H130328   5.670   0.568   6.380  0.0928 -0.9907 -0.1383
 2971TIP3    H230329   5.575   0.682   6.408  0.3125 -1.1392  1.3042
 2972TIP3   OH230330   3.228   3.674  17.434 -0.0693 -0.3429  0.0290
 2972TIP3    H130331   3.163   3.720  17.381 -0.2757  0.1870  0.7304
 2972TIP3    H230332   3.178   3.603  17.476 -0.2795  0.2529  0.8129
 2973TIP3   OH230333   0.746   4.082  12.387 -0.2665  0.3525 -0.4746
 2973TIP3    H130334   0.797   4.145  12.438 -1.3323  2.5354 -1.9262
 2973TIP3    H230335   0.748   4.118  12.298 -2.7333 -0.5053 -0.9335
 2974TIP3   OH230336   2.949   0.132  16.496  0.5685 -0.0762  0.1513
 2974TIP3    H130337   2.995   0.053  16.525  1.3172  0.8406  1.6398
 2974TIP3    H230338   2.901   0.105  16.418  0.6186 -2.0523  0.7316
 2975TIP3   OH230339   5.326   4.274  15.561  0.1834 -0.4294  0.8005
 2975TIP3    H130340   5.266   4.203  15.583 -1.9472  1.3537  1.0916
 2975TIP3    H230341   5.406   4.230  15.534 -1.1972 -2.9426  0.4948
 2976TIP3   OH230342   2.284   2.920  16.254  0.5012  0.8456  0.3318
 2976TIP3    H130343   2.202   2.872  16.265  0.4550  1.1640  1.6178
 2976TIP3    H230344   2.258   3.003  16.216  0.1411  1.1364  1.1802
 2977TIP3   OH230345   6.122   5.998  12.762  0.4634  0.1130  0.3178
 2977TIP3    H130346   6.204   5.973  12.805  1.7546  1.6565 -1.1054
 2977TIP3    H230347   6.054   5.971  12.823  1.9285 -2.2976  1.0483
 2978TIP3   OH230348   4.638   3.335   0.031  0.7290  0.6899  0.4565
 2978TIP3    H130349   4.572   3.283   0.077 -0.2426  2.8542  1.6318
 2978TIP3    H230350   4.620   3.319  -0.062  0.1425 -0.6337  0.7712
 2979TIP3   OH230351   5.828   1.242  14.199 -0.1764 -0.2208 -0.2785
 2979TIP3    H130352   5.813   1.180  14.270  1.6859  0.2301  0.5839
 2979TIP3    H230353   5.906   1.208  14.154 -0.8112 -0.0230 -1.5895
 2980TIP3   OH230354   5.318   2.627   0.899 -0.5486  0.0486  0.0053
 2980TIP3    H130355   5.308   2.631   0.804 -0.8427 -1.2979 -0.0381
 2980TIP3    H230356   5.241   2.671   0.933 -0.8850 -0.2418 -0.3772
 2981TIP3   OH230357   4.021   3.777   0.546 -0.0728  0.1686 -0.2691
 2981TIP3    H130358   4.060   3.820   0.623  1.7301 -0.4230 -0.7906
 2981TIP3    H230359   3.978   3.848   0.499  0.5540  0.9177  0.2465
 2982TIP3   OH230360   0.530   5.672   0.915 -0.6936 -0.1894 -0.2494
 2982TIP3    H130361   0.495   5.584   0.926  0.4028 -0.6221 -0.1468
 2982TIP3    H230362   0.477   5.710   0.844  1.1410 -2.2344 -2.9133
 2983TIP3   OH230363   3.750   6.230  13.668 -0.3979  0.7051 -0.0598
 2983TIP3    H130364   3.844   6.239  13.679 -0.1968 -2.2043  1.8315
 2983TIP3    H230365   3.739   6.164  13.600 -1.0093  0.4305  0.2862
 2984TIP3   OH230366   4.641   5.231   4.605 -0.3633 -0.1277  0.4346
 2984TIP3    H130367   4.560   5.181   4.603 -0.6522  0.3200  0.7326
 2984TIP3    H230368   4.649   5.262   4.695  0.5804 -0.8702  0.6169
 2985TIP3   OH230369   1.499   4.914   2.213 -0.1329  0.0217 -0.2978
 2985TIP3    H130370   1.560   4.890   2.144 -0.4736 -1.5692 -0.0807
 2985TIP3    H230371   1.446   4.985   2.175  1.5123  1.1145 -0.6416
 2986TIP3   OH230372   0.398   5.566   0.531 -0.1080  0.1756  0.3007
 2986TIP3    H130373   0.400   5.571   0.436 -1.5435  3.4715  0.2984
 2986TIP3    H230374   0.321   5.512   0.551  0.3738 -0.7835 -0.3449
 2987TIP3   OH230375   2.838   2.030  16.826 -0.0145 -0.0079  0.0869
 2987TIP3    H130376   2.874   2.107  16.782 -1.5161  0.6883  0.0379
 2987TIP3    H230377   2.849   1.959  16.762  2.2293 -0.0893  0.4840
 2988TIP3   OH230378   2.014   6.089   1.576  0.5134  0.5685  0.4036
 2988TIP3    H130379   2.025   6.178   1.543  0.8286  0.5597  0.4864
 2988TIP3    H230380   2.072   6.084   1.653  1.6807 -0.1932 -0.4950
 2989TIP3   OH230381   6.495   4.590   0.283 -0.0801 -0.8899 -0.4698
 2989TIP3    H130382   6.531   4.519   0.336  0.9714  0.0895  0.1822
 2989TIP3    H230383   6.415   4.617   0.328 -0.5772 -1.7564 -0.8168
 2990TIP3   OH230384   2.794   0.181  11.774  0.4278 -0.1032  0.2224
 2990TIP3    H130385   2.785   0.264  11.726  0.6776  0.7443  1.5724
 2990TIP3    H230386   2.828   0.119  11.710 -0.4700  0.6368 -1.0156
 2991TIP3   OH230387   0.964   6.265   0.032  0.2633  0.4632  0.4886
 2991TIP3    H130388   0.923   6.250   0.117 -2.1359  2.1684 -0.2494
 2991TIP3    H230389   0.935   6.191  -0.022 -0.3389  0.6985  0.4822
 2992TIP3   OH230390   5.752   3.107  12.455 -0.5162  0.0670 -0.4263
 2992TIP3    H130391   5.714   3.151  12.379  1.2856  0.2376 -1.2936
 2992TIP3    H230392   5.779   3.022  12.422  2.5932  1.0401 -0.7913
 2993TIP3   OH230393   6.222   6.085  16.991  0.0638  0.4968 -0.6605
 2993TIP3    H130394   6.167   6.146  16.942 -2.0601 -1.4351 -0.8820
 2993TIP3    H230395   6.247   6.018  16.927  0.4316 -0.0561  0.0468
 2994TIP3   OH230396   1.392   4.665   2.042  0.3954 -0.1553  0.0201
 2994TIP3    H130397   1.450   4.655   1.966 -0.3856  0.4632 -0.6870
 2994TIP3    H230398   1.422   4.745   2.084  1.0919 -0.7222  0.6069
 2995TIP3   OH230399   3.510   2.618   2.383 -0.1332  0.1092  0.0652
 2995TIP3    H130400   3.455   2.557   2.431 -1.3353  0.2627 -1.0597
 2995TIP3    H230401   3.539   2.682   2.448 -1.3117  0.0392  0.6831
 2996TIP3   OH230402   6.012   5.733  15.684  0.0030  0.3896 -0.1700
 2996TIP3    H130403   5.980   5.647  15.659 -1.8959  0.7886  0.6928
 2996TIP3    H230404   6.062   5.718  15.765  0.0008  0.0547 -0.2314
 2997TIP3   OH230405   1.636   4.274  11.175 -0.2309 -0.0340 -0.0871
 2997TIP3    H130406   1.550   4.272  11.132 -0.2946 -0.9535  0.0576
 2997TIP3    H230407   1.646   4.186  11.213 -0.1857  0.7379  1.8036
 2998TIP3   OH230408   1.461   6.130   4.404  0.1157 -1.6040 -0.5122
 2998TIP3    H130409   1.415   6.212   4.386  1.0308 -0.9272  0.1990
 2998TIP3    H230410   1.411   6.064   4.355 -1.6424 -0.9122  0.2548
 2999TIP3   OH230411   4.435   1.472   0.588 -0.0185 -0.1251 -0.3378
 2999TIP3    H130412   4.498   1.516   0.644 -1.6856  1.7149  0.1994
 2999TIP3    H230413   4.359   1.530   0.586 -1.1651 -1.5488 -2.1184
 3000TIP3   OH230414   4.188   0.697   3.725 -0.7382  0.3478 -0.9651
 3000TIP3    H130415   4.256   0.747   3.770  0.2017 -2.3819  0.8955
 3000TIP3    H230416   4.223   0.686   3.636  0.0162  1.1478 -0.7927
 3001TIP3   OH230417   6.097   1.894   4.271  0.4267 -0.4657  0.2009
 3001TIP3    H130418   6.082   1.860   4.360 -1.6760  0.0814  0.1097
 3001TIP3    H230419   6.075   1.822   4.213 -4.1249  0.7670  0.0037
 3002TIP3   OH230420   6.693   0.489   1.321  0.1657  0.2443 -0.2457
 3002TIP3    H130421   6.788   0.482   1.310  0.5928  1.0111  2.2165
 3002TIP3    H230422   6.678   0.582   1.339 -0.4551 -0.3884  3.1852
 3003TIP3   OH230423   5.971   5.279  12.360  1.3750 -0.0483  0.3727
 3003TIP3    H130424   5.912   5.354  12.349 -1.1941 -2.0926 -1.1703
 3003TIP3    H230425   5.913   5.206  12.382  3.4785 -2.0407 -0.2834
 3004TIP3   OH230426   5.975   1.897  11.863  0.5585 -0.1495  0.1340
 3004TIP3    H130427   5.953   1.805  11.880 -2.7211  0.2494 -1.1148
 3004TIP3    H230428   5.901   1.946  11.899  0.6173  1.7212 -2.0393
 3005TIP3   OH230429   2.461   1.804   4.847  0.4564 -0.3152  0.1863
 3005TIP3    H130430   2.549   1.766   4.840  2.2377  3.5729 -1.3054
 3005TIP3    H230431   2.471   1.876   4.909 -2.7690 -2.0697  3.0716
 3006TIP3   OH230432   1.922   2.273   6.794  0.0294 -0.2769  0.3409
 3006TIP3    H130433   2.011   2.307   6.805 -0.1816  0.9668 -1.3991
 3006TIP3    H230434   1.888   2.319   6.717 -2.1010 -0.7795  0.9112
 3007TIP3   OH230435   5.491   0.091  11.324 -0.0859 -0.1447  0.1358
 3007TIP3    H130436   5.573   0.083  11.372 -0.6423 -0.4393  1.0686
 3007TIP3    H230437   5.502   0.170  11.271 -0.3151  1.6647  2.5817
 3008TIP3   OH230438   3.333   0.634   1.598  0.0709  0.4257  0.6935
 3008TIP3    H130439   3.257   0.672   1.641 -0.4318 -2.4181  2.6304
 3008TIP3    H230440   3.390   0.605   1.669  0.4783 -2.0963 -0.5242
 3009TIP3   OH230441   5.898   5.745  12.499 -0.4890  0.1234 -0.3063
 3009TIP3    H130442   5.818   5.797  12.490 -0.4801 -0.1151 -2.1309
 3009TIP3    H230443   5.968   5.802  12.469  0.1377  0.5052  1.7643
 3010TIP3   OH230444   3.495   3.403   2.895 -0.2575 -0.0224 -0.2872
 3010TIP3    H130445   3.512   3.470   2.961 -0.6837 -0.6436  0.4863
 3010TIP3    H230446   3.582   3.378   2.863  0.1544 -1.1090  1.5040
 3011TIP3   OH230447   4.755   2.892   0.327  0.1401 -0.1592  0.5363
 3011TIP3    H130448   4.843   2.885   0.366  0.1592  2.9541  1.3329
 3011TIP3    H230449   4.765   2.957   0.258 -1.4468 -0.1048  0.3269
 3012TIP3   OH230450   3.881   5.722  16.633  0.3438  0.1005  0.3218
 3012TIP3    H130451   3.795   5.689  16.659 -0.5726  0.8547 -1.5672
 3012TIP3    H230452   3.908   5.779  16.706  0.2543 -1.7907  1.8978
 3013TIP3   OH230453   4.602   2.195   5.209 -0.3706  0.1447 -0.3483
 3013TIP3    H130454   4.612   2.107   5.173  1.5404 -1.1791  3.0110
 3013TIP3    H230455   4.686   2.238   5.192  0.9555 -0.8409  2.9900
 3014TIP3   OH230456   5.078   6.300  15.980  0.0479 -0.1746  0.5058
 3014TIP3    H130457   5.150   6.330  15.925 -0.3187  0.8376  0.5657
 3014TIP3    H230458   5.110   6.312  16.070 -0.2855  0.5147  0.5355
 3015TIP3   OH230459   0.698   5.652   2.234 -0.3211  0.1370 -0.5003
 3015TIP3    H130460   0.674   5.565   2.202 -0.2644 -0.4242  0.8865
 3015TIP3    H230461   0.755   5.635   2.310 -0.5051  1.3789 -0.0551
 3016TIP3   OH230462   4.465   6.281   1.593 -0.1817  0.2134 -0.1500
 3016TIP3    H130463   4.480   6.192   1.561  0.3065  0.6822 -1.2489
 3016TIP3    H230464   4.382   6.307   1.553 -1.2223 -0.3535  1.5419
 3017TIP3   OH230465   1.020   5.502  15.399  0.2526 -0.0303  0.6832
 3017TIP3    H130466   1.088   5.568  15.415 -0.1828  0.0951  2.2528
 3017TIP3    H230467   1.028   5.442  15.473 -1.3967  0.0653  0.9742
 3018TIP3   OH230468   6.112   2.161   0.389  0.1097 -0.7176 -0.3277
 3018TIP3    H130469   6.053   2.105   0.438  1.7685 -1.5809  0.7793
 3018TIP3    H230470   6.080   2.250   0.406 -1.9999 -1.2122 -1.3688
 3019TIP3   OH230471   1.390   4.076   1.114  1.2271 -0.2847 -0.6665
 3019TIP3    H130472   1.306   4.069   1.160  0.8238  1.5385 -1.0212
 3019TIP3    H230473   1.369   4.060   1.022  0.2520  4.2860 -1.5228
 3020TIP3   OH230474   0.740   2.630   2.151 -0.4520 -0.0306 -0.1841
 3020TIP3    H130475   0.664   2.581   2.182 -1.6524  0.2992 -2.4337
 3020TIP3    H230476   0.815   2.586   2.191 -1.6446 -2.1962 -0.2217
 3021TIP3   OH230477   5.466   1.827  12.217 -0.6302  0.6343  0.0046
 3021TIP3    H130478   5.451   1.749  12.270  0.7924  0.6665  0.5019
 3021TIP3    H230479   5.540   1.804  12.160 -1.6945  0.8375 -1.5087
 3022TIP3   OH230480   2.517   5.191   1.552  0.4816  0.2636  0.5245
 3022TIP3    H130481   2.510   5.173   1.646  0.3637 -1.3489  0.2258
 3022TIP3    H230482   2.532   5.106   1.512  2.3065  1.1349 -0.7759
 3023TIP3   OH230483   3.737   0.363  11.221 -0.7604  0.1734  0.5591
 3023TIP3    H130484   3.706   0.292  11.277 -2.1540  0.8611  0.6877
 3023TIP3    H230485   3.783   0.318  11.150 -0.8580 -0.8100  1.0973
 3024TIP3   OH230486   6.326   2.642  10.998 -0.2113 -0.4087 -0.4764
 3024TIP3    H130487   6.258   2.633  11.064  0.3078 -1.3451 -0.0480
 3024TIP3    H230488   6.285   2.613  10.917 -1.1191  1.5637 -0.7772
 3025TIP3   OH230489   2.622   6.285  11.931 -0.1940 -0.3355  0.5509
 3025TIP3    H130490   2.594   6.360  11.878 -0.7407  0.0984  1.4269
 3025TIP3    H230491   2.692   6.245  11.880 -0.5097  0.2290 -0.3649
 3026TIP3   OH230492   4.126   1.271  12.969 -0.6188 -0.0023  0.6272
 3026TIP3    H130493   4.069   1.225  12.908  2.7415  1.5479 -4.2993
 3026TIP3    H230494   4.084   1.356  12.982 -1.1284 -0.1539 -0.0053
 3027TIP3   OH230495   0.832   1.047   0.677 -0.2774  0.0139  0.1812
 3027TIP3    H130496   0.886   1.113   0.633 -0.9786 -0.0465 -0.8040
 3027TIP3    H230497   0.801   1.091   0.756  0.8977  0.1709  0.5757
 3028TIP3   OH230498   4.035   6.265   2.326 -0.0557 -0.1079 -0.2561
 3028TIP3    H130499   3.992   6.300   2.404  0.3643  3.2977 -1.3991
 3028TIP3    H230500   4.120   6.233   2.357 -0.3575  0.1312  0.8443
 3029TIP3   OH230501   6.550   1.827  11.749  0.1918  0.4639  0.2272
 3029TIP3    H130502   6.609   1.834  11.674 -1.4611 -0.2354 -1.2086
 3029TIP3    H230503   6.473   1.878  11.724 -0.1701  0.7025  1.7229
 3030TIP3   OH230504   1.736   6.333   5.482 -0.6133  0.0622 -0.2889
 3030TIP3    H130505   1.728   6.238   5.481  0.7757 -0.0816  0.1930
 3030TIP3    H230506   1.800   6.352   5.414 -4.0596  1.0830 -3.6205
 3031TIP3   OH230507   6.683   5.218   6.992 -0.3454  0.1695 -0.0385
 3031TIP3    H130508   6.649   5.195   6.905 -1.7967 -2.4308  1.1175
 3031TIP3    H230509   6.611   5.199   7.052  0.6527  1.8056  1.7992
 3032TIP3   OH230510   5.689   3.001   2.407  0.4384  0.0646 -0.8389
 3032TIP3    H130511   5.776   3.041   2.402  0.1527  1.0420  1.0108
 3032TIP3    H230512   5.631   3.071   2.437 -1.0865 -0.4790 -2.3349
 3033TIP3   OH230513   1.065   4.152  11.777 -0.0005  0.2044 -0.0980
 3033TIP3    H130514   1.099   4.065  11.755 -0.1312  0.4694 -1.4052
 3033TIP3    H230515   1.102   4.210  11.711  1.4691  1.4882  1.7518
 3034TIP3   OH230516   1.795   1.989   3.086  0.0388  0.2015  0.6134
 3034TIP3    H130517   1.828   2.077   3.064 -0.2749  0.7405  2.1773
 3034TIP3    H230518   1.875   1.937   3.098  0.2424 -0.3082 -2.2600
 3035TIP3   OH230519   2.399   2.619   6.263 -0.1132 -0.0800  0.4819
 3035TIP3    H130520   2.475   2.568   6.235  0.1367 -0.0748  1.1372
 3035TIP3    H230521   2.364   2.656   6.182 -0.8795 -2.0646 -0.1506
 3036TIP3   OH230522   5.375   2.478  13.324 -0.2784 -0.6886 -0.3761
 3036TIP3    H130523   5.336   2.445  13.243  1.6100  2.3324 -2.7342
 3036TIP3    H230524   5.466   2.449  13.320  0.5611  1.7323 -0.8944
 3037TIP3   OH230525   2.824   1.955  14.767  0.1012  0.6994 -0.2786
 3037TIP3    H130526   2.822   1.892  14.695 -0.5624  0.8206 -0.3650
 3037TIP3    H230527   2.756   2.018  14.747 -0.2171  0.6310  0.5409
 3038TIP3   OH230528   4.155   0.259   0.353  0.3625 -0.1547 -0.4594
 3038TIP3    H130529   4.195   0.175   0.377  1.0970  0.2343 -0.2983
 3038TIP3    H230530   4.115   0.243   0.267 -0.6367 -1.0270  0.1387
 3039TIP3   OH230531   3.914   4.438  16.763 -0.0200 -0.0722  0.8186
 3039TIP3    H130532   3.855   4.387  16.708 -0.5133  0.3475  0.9527
 3039TIP3    H230533   3.963   4.372  16.812 -0.0137 -0.4333  0.3354
 3040TIP3   OH230534   4.660   5.440   2.744 -0.3627 -0.3302  0.2704
 3040TIP3    H130535   4.747   5.477   2.755 -0.3953 -0.3187  0.5012
 3040TIP3    H230536   4.670   5.347   2.766 -0.3080 -0.4298 -0.1778
 3041TIP3   OH230537   0.586   3.578   0.142  0.1852  0.4821  0.1036
 3041TIP3    H130538   0.509   3.546   0.095  2.5157 -1.4282 -2.7798
 3041TIP3    H230539   0.596   3.518   0.216  0.7875 -1.5050 -1.5095
 3042TIP3   OH230540   2.378   0.755  13.830  0.2455 -0.3197 -0.4498
 3042TIP3    H130541   2.457   0.808  13.838 -0.3278  0.3734  0.9913
 3042TIP3    H230542   2.358   0.756  13.736  1.1165  0.7140 -0.6470
 3043TIP3   OH230543   5.059   3.979  15.763 -0.1453 -0.0334 -0.2211
 3043TIP3    H130544   4.966   3.986  15.745 -0.0840  0.0661 -0.5138
 3043TIP3    H230545   5.087   4.069  15.782  0.0717  0.0885 -1.0695
 3044TIP3   OH230546   2.010   0.702   0.050 -0.5019  0.1699 -0.4790
 3044TIP3    H130547   2.003   0.623   0.103  0.5896  0.8920  0.8143
 3044TIP3    H230548   1.924   0.743   0.057 -0.5139  0.0157  0.3580
 3045TIP3   OH230549   0.116   5.941   6.232  0.0059 -0.6449  0.6764
 3045TIP3    H130550   0.137   5.859   6.188 -1.3512 -1.9433  2.3469
 3045TIP3    H230551   0.041   5.975   6.183 -0.0017 -0.8619  0.5351
 3046TIP3   OH230552   1.376   3.259  16.889 -0.0895 -0.0768 -0.0072
 3046TIP3    H130553   1.410   3.248  16.978 -1.3597 -3.2164  0.2297
 3046TIP3    H230554   1.395   3.175  16.846 -1.3386  0.6110 -2.0522
 3047TIP3   OH230555   0.132   1.325   4.223 -0.4042 -0.0785 -0.0760
 3047TIP3    H130556   0.144   1.259   4.292 -0.2403  0.0413  0.0102
 3047TIP3    H230557   0.220   1.342   4.191 -0.5457 -0.6373 -0.7892
 3048TIP3   OH230558   5.867   2.289  12.534  0.2856  0.0139  0.1937
 3048TIP3    H130559   5.954   2.273  12.498  0.5305 -0.8882  1.1175
 3048TIP3    H230560   5.868   2.245  12.619 -1.6892 -1.7653 -0.5835
 3049TIP3   OH230561   5.598   5.635  13.495  0.2570 -0.0869  0.3362
 3049TIP3    H130562   5.530   5.683  13.449  1.2150  0.3205 -0.6995
 3049TIP3    H230563   5.600   5.674  13.583 -2.4814 -1.7560  1.2485
 3050TIP3   OH230564   2.892   2.092   1.976  0.6891  0.6859  0.3532
 3050TIP3    H130565   2.878   2.135   1.892  0.9390 -0.6813 -0.4141
 3050TIP3    H230566   2.984   2.064   1.974  0.9333  1.3601  1.4313
 3051TIP3   OH230567   0.329   6.220  11.543 -0.7107  0.0470  0.3991
 3051TIP3    H130568   0.288   6.199  11.626 -1.1268 -0.6233  0.0335
 3051TIP3    H230569   0.330   6.138  11.495 -1.5932  0.6608 -0.7336
 3052TIP3   OH230570   3.559   5.673  14.754 -0.1224 -0.1333 -0.2072
 3052TIP3    H130571   3.575   5.753  14.704  0.6660  0.1426  0.4495
 3052TIP3    H230572   3.568   5.602  14.691 -2.2850  0.3367 -1.1230
 3053TIP3   OH230573   4.665   5.425  15.583 -0.3593 -0.2616  0.5003
 3053TIP3    H130574   4.646   5.366  15.510  0.0551  0.2442 -0.0238
 3053TIP3    H230575   4.727   5.377  15.638 -0.6444 -0.6277  0.5021
 3054TIP3   OH230576   2.518   0.186  15.561 -0.1834 -0.4079 -0.2188
 3054TIP3    H130577   2.603   0.142  15.552  0.6560  0.7542  1.4840
 3054TIP3    H230578   2.526   0.238  15.641 -1.6604  1.6599 -1.3314
 3055TIP3   OH230579   2.582   2.581   4.025 -0.0881 -0.0875  0.3012
 3055TIP3    H130580   2.671   2.547   4.029 -0.0848  0.0645  1.8518
 3055TIP3    H230581   2.526   2.504   4.032 -0.1155 -0.2409 -1.1934
 3056TIP3   OH230582   1.944   3.228   4.207  0.3313 -0.1618  0.5816
 3056TIP3    H130583   1.962   3.148   4.257 -1.1032 -0.1288  1.2123
 3056TIP3    H230584   1.941   3.297   4.272 -1.7217 -0.1390  0.5272
 3057TIP3   OH230585   3.459   4.993   4.449 -0.2500 -0.2590 -0.1560
 3057TIP3    H130586   3.436   5.040   4.529 -1.2953 -1.4759  0.3027
 3057TIP3    H230587   3.438   4.901   4.468 -0.2118 -0.6282 -1.7172
 3058TIP3   OH230588   3.158   3.715  15.393  0.3133 -0.0789 -0.0010
 3058TIP3    H130589   3.229   3.702  15.331  1.2782  1.7519  0.6412
 3058TIP3    H230590   3.167   3.642  15.454  0.9623 -0.4778 -0.5550
 3059TIP3   OH230591   6.603   3.209  15.649  0.2148 -0.0474  0.5026
 3059TIP3    H130592   6.666   3.175  15.586  1.2220 -0.4337  1.6875
 3059TIP3    H230593   6.645   3.286  15.687 -1.8060  2.3654 -1.7448
 3060TIP3   OH230594   1.945   4.163   2.440 -0.0013 -0.0162 -0.1054
 3060TIP3    H130595   1.992   4.086   2.409 -0.4484 -0.6347  0.7044
 3060TIP3    H230596   1.980   4.235   2.388  1.7680 -0.4590  0.4093
 3061TIP3   OH230597   3.776   5.508   0.458  0.6171 -0.4043  0.4076
 3061TIP3    H130598   3.683   5.509   0.480  0.7244 -0.9146  0.8985
 3061TIP3    H230599   3.808   5.424   0.491  1.6046  0.4453  1.7338
 3062TIP3   OH230600   5.300   5.446  16.124 -0.0399 -0.7526 -0.2350
 3062TIP3    H130601   5.396   5.448  16.129 -0.1001  0.2617  1.1765
 3062TIP3    H230602   5.273   5.411  16.209 -0.9473  0.0258 -0.1874
 3063TIP3   OH230603   3.691   6.434   1.809 -0.8069  0.2337  0.4250
 3063TIP3    H130604   3.713   6.484   1.730  1.8992 -0.0655  0.9027
 3063TIP3    H230605   3.635   6.363   1.777  1.0024 -0.4640 -1.4550
 3064TIP3   OH230606   0.787   3.475  13.333 -0.1911  0.1642 -0.1392
 3064TIP3    H130607   0.852   3.459  13.265 -1.0371  1.1787 -1.2148
 3064TIP3    H230608   0.739   3.392  13.340 -0.6431  0.2942 -1.4039
 3065TIP3   OH230609   0.528   1.380   5.693 -0.1413  0.8708  0.0184
 3065TIP3    H130610   0.604   1.357   5.640  1.2915 -0.4317  2.4409
 3065TIP3    H230611   0.458   1.321   5.663  1.1567 -1.1240  0.7010
 3066TIP3   OH230612   5.971   1.385   1.408  1.0256 -0.0709  0.0503
 3066TIP3    H130613   5.996   1.293   1.406 -0.5363 -0.5363  0.4188
 3066TIP3    H230614   5.968   1.407   1.501 -0.3354 -0.1774  0.0511
 3067TIP3   OH230615   1.063   2.689   3.685  0.1097 -0.4362 -0.0984
 3067TIP3    H130616   1.066   2.599   3.720 -0.5685 -0.2786  0.4045
 3067TIP3    H230617   1.081   2.679   3.592 -2.2726 -1.4125 -0.5414
 3068TIP3   OH230618   4.386   3.293   5.673  0.1359 -0.2894 -0.2747
 3068TIP3    H130619   4.344   3.262   5.592  0.8014  3.5368 -2.3374
 3068TIP3    H230620   4.313   3.325   5.726 -0.1454 -0.9503 -0.2497
 3069TIP3   OH230621   0.860   6.405  11.735 -0.2611 -0.1483  0.5911
 3069TIP3    H130622   0.817   6.340  11.679 -1.1160  1.7647 -1.1690
 3069TIP3    H230623   0.792   6.430  11.798 -1.2819  1.5633 -1.0503
 3070TIP3   OH230624   2.630   3.131   0.912  0.3661  0.2846  0.0257
 3070TIP3    H130625   2.710   3.107   0.958  0.9200  2.7360  0.4580
 3070TIP3    H230626   2.577   3.177   0.978 -1.4608 -1.3049 -0.2341
 3071TIP3   OH230627   5.470   1.036  13.480 -0.2970 -0.2519  0.7838
 3071TIP3    H130628   5.381   1.036  13.514 -0.5909 -1.6704  0.1124
 3071TIP3    H230629   5.516   1.101  13.531 -1.4630 -0.2443  1.8562
 3072TIP3   OH230630   0.051   4.962  16.865 -0.2387 -0.4128 -0.3634
 3072TIP3    H130631   0.090   5.047  16.887  0.3197 -0.1062 -2.3230
 3072TIP3    H230632  -0.042   4.980  16.856  0.0749  0.4382 -2.4550
 3073TIP3   OH230633   5.495   3.143   0.737 -0.6039  0.1187  0.2714
 3073TIP3    H130634   5.418   3.199   0.729 -0.8406 -0.2828 -0.3681
 3073TIP3    H230635   5.550   3.168   0.663  1.5142  2.7903  2.5129
 3074TIP3   OH230636   2.706   5.543   2.648  0.5269 -0.0129  0.1069
 3074TIP3    H130637   2.628   5.596   2.630  2.1711  1.7552 -2.5772
 3074TIP3    H230638   2.730   5.505   2.564  1.0677 -2.8137  1.4091
 3075TIP3   OH230639   0.499   6.067   4.508  0.1233 -0.4445  0.3444
 3075TIP3    H130640   0.464   6.148   4.546 -0.1918 -0.4393  0.0525
 3075TIP3    H230641   0.482   6.076   4.414  0.0330 -0.8780  0.3184
 3076TIP3   OH230642   3.920   5.373   3.900 -0.1704 -0.0637 -0.5876
 3076TIP3    H130643   4.004   5.328   3.891 -0.6223 -0.8073 -1.1796
 3076TIP3    H230644   3.888   5.383   3.811 -0.9867 -0.3297 -0.3365
 3077TIP3   OH230645   5.563   3.088  15.188  0.7689  0.2710 -0.1723
 3077TIP3    H130646   5.556   3.058  15.278 -1.9049  1.2716  0.0196
 3077TIP3    H230647   5.526   3.177  15.189 -0.1987 -0.0424 -2.3966
 3078TIP3   OH230648   4.113   2.639  15.878  0.7696 -0.2077  0.3408
 3078TIP3    H130649   4.042   2.590  15.837  0.3351  0.4250  0.3146
 3078TIP3    H230650   4.160   2.679  15.804  1.1259 -0.5927  0.3599
 3079TIP3   OH230651   4.090   5.951   4.474  0.0421 -0.0194 -0.8202
 3079TIP3    H130652   4.099   6.040   4.508  0.9378 -0.6129  0.5811
 3079TIP3    H230653   4.044   5.903   4.543  0.3757 -0.8631 -1.1690
 3080TIP3   OH230654   3.276   2.738  16.984 -0.2144 -0.1066 -0.2589
 3080TIP3    H130655   3.207   2.760  16.922  0.4364  0.0387 -0.9342
 3080TIP3    H230656   3.267   2.803  17.054  0.5132  1.1726 -1.3298
 3081TIP3   OH230657   3.584   2.747   5.457 -0.2123 -0.4198 -0.3918
 3081TIP3    H130658   3.670   2.707   5.468 -0.1619 -0.5542 -1.2367
 3081TIP3    H230659   3.522   2.674   5.461 -0.2249 -0.4204 -0.5976
 3082TIP3   OH230660   4.359   0.589  16.698  0.9277  0.3233 -0.0679
 3082TIP3    H130661   4.277   0.557  16.735  0.8981  0.0046 -0.4041
 3082TIP3    H230662   4.372   0.675  16.738  1.3206 -0.3586  1.3084
 3083TIP3   OH230663   0.965   0.895  16.349  0.5005  0.1669  0.2534
 3083TIP3    H130664   1.027   0.899  16.421  0.4273 -1.3864  0.4465
 3083TIP3    H230665   1.009   0.844  16.282 -0.5769 -1.1042  0.4543
 3084TIP3   OH230666   2.437   5.499   3.105 -0.0239  0.8842 -0.1335
 3084TIP3    H130667   2.475   5.485   3.018 -0.0909  1.5043 -0.2684
 3084TIP3    H230668   2.469   5.426   3.157 -1.7329 -0.7136 -1.2352
 3085TIP3   OH230669   6.485   2.612  11.599 -1.0888  0.1975  0.1654
 3085TIP3    H130670   6.419   2.567  11.652  0.2499 -0.4501  1.3652
 3085TIP3    H230671   6.563   2.611  11.654 -0.2498  1.5049 -0.9611
 3086TIP3   OH230672   6.480   0.237   1.951  0.4764  0.6549 -0.5389
 3086TIP3    H130673   6.408   0.175   1.960  0.4345  0.7829  0.0604
 3086TIP3    H230674   6.511   0.226   1.861  0.1330  0.1393 -0.5945
 3087TIP3   OH230675   4.672   4.175  17.563  0.3752 -0.2431  0.2630
 3087TIP3    H130676   4.736   4.167  17.492  0.7249  2.2314  0.2320
 3087TIP3    H230677   4.588   4.160  17.520  0.6129  0.8193 -0.6383
 3088TIP3   OH230678   0.038   4.485   2.351 -0.4629 -0.2031 -0.1640
 3088TIP3    H130679   0.117   4.502   2.299  0.5649 -0.4758  1.2460
 3088TIP3    H230680   0.032   4.559   2.411 -1.5023 -0.0058 -0.4927
 3089TIP3   OH230681   2.188   6.324   0.449 -0.2896 -0.1749  0.0554
 3089TIP3    H130682   2.188   6.308   0.355  1.1697 -0.9018  0.1551
 3089TIP3    H230683   2.101   6.296   0.479 -0.9767  0.5959 -1.1336
 3090TIP3   OH230684   4.095   6.035   2.843 -0.7647 -0.4282 -0.1788
 3090TIP3    H130685   4.005   6.051   2.870 -1.2602 -1.7773 -1.0022
 3090TIP3    H230686   4.109   5.942   2.858 -0.0485 -0.5794 -1.6317
 3091TIP3   OH230687   3.719   5.159  13.442  0.0056  0.3716  0.1544
 3091TIP3    H130688   3.660   5.150  13.367 -0.5426 -0.2986  0.6454
 3091TIP3    H230689   3.789   5.217  13.411  0.4530 -0.8553 -1.2796
 3092TIP3   OH230690   5.402   2.637  12.764 -0.2149 -0.0049 -0.4115
 3092TIP3    H130691   5.344   2.712  12.777 -0.2075 -0.2706  1.3532
 3092TIP3    H230692   5.481   2.675  12.724 -0.3761  0.8767  0.0695
 3093TIP3   OH230693   1.172   0.420  10.697  0.0898 -0.0454 -0.1655
 3093TIP3    H130694   1.100   0.484  10.699 -0.6189 -0.8347  0.7179
 3093TIP3    H230695   1.207   0.426  10.609 -1.1431  0.3015 -0.6541
 3094TIP3   OH230696   2.501   4.221   2.739  0.3381 -0.1683 -0.2500
 3094TIP3    H130697   2.491   4.190   2.829  0.2926 -0.8636 -0.4875
 3094TIP3    H230698   2.481   4.314   2.743 -0.2355 -0.3098  0.3597
 3095TIP3   OH230699   1.458   5.880  16.327 -0.7088 -0.0646  0.0039
 3095TIP3    H130700   1.523   5.905  16.262  0.0945  0.0832  0.8388
 3095TIP3    H230701   1.376   5.875  16.279 -0.4459  1.6722 -0.7052
 3096TIP3   OH230702   3.655   3.802   0.846  0.1781 -0.3390 -0.0127
 3096TIP3    H130703   3.676   3.881   0.796 -0.1126  0.4067  1.0101
 3096TIP3    H230704   3.722   3.800   0.915 -0.3914 -0.4402  0.5460
 3097TIP3   OH230705   2.403   0.238   5.831  0.0860 -0.1216 -0.0614
 3097TIP3    H130706   2.324   0.185   5.843  0.7301 -1.2283 -0.5676
 3097TIP3    H230707   2.403   0.259   5.737 -0.0344  0.5964  0.0895
 3098TIP3   OH230708   5.526   5.479  16.700 -0.3826 -0.2268  0.5323
 3098TIP3    H130709   5.450   5.426  16.724  0.0952 -0.8727  0.6334
 3098TIP3    H230710   5.489   5.554  16.653 -0.8864 -2.7887 -3.6713
 3099TIP3   OH230711   3.394   6.315  15.993 -0.3721 -0.1604  0.2255
 3099TIP3    H130712   3.435   6.338  16.076 -2.0732  0.9362  0.8084
 3099TIP3    H230713   3.428   6.379  15.931  1.3889 -1.3594 -0.1449
 3100TIP3   OH230714   0.552   0.735   1.866 -0.6274  0.0088 -0.4391
 3100TIP3    H130715   0.593   0.650   1.886  0.4771  0.7773  0.7128
 3100TIP3    H230716   0.505   0.758   1.946 -2.2756 -0.2300 -1.2908
 3101TIP3   OH230717   0.937   6.567   2.254 -0.0512 -0.1746 -0.4193
 3101TIP3    H130718   0.985   6.650   2.260 -0.0320 -0.1591 -0.7514
 3101TIP3    H230719   0.975   6.524   2.177 -1.2629  0.2827 -1.3134
 3102TIP3   OH230720   4.334   0.879  11.236 -0.3782 -0.1704 -0.2960
 3102TIP3    H130721   4.292   0.794  11.250 -1.7064  0.5221  0.1798
 3102TIP3    H230722   4.347   0.884  11.141 -0.2607 -0.9131 -0.3244
 3103TIP3   OH230723   2.161   1.661  15.525 -0.9642 -0.3550  0.4467
 3103TIP3    H130724   2.234   1.668  15.587  0.7831  0.2774 -1.5651
 3103TIP3    H230725   2.127   1.750  15.518 -1.7028 -0.5792  1.0930
 3104TIP3   OH230726   4.058   3.822   6.044 -0.8377  0.9315 -0.4867
 3104TIP3    H130727   4.103   3.865   5.971  0.4946  1.5562  0.6528
 3104TIP3    H230728   4.123   3.820   6.114 -0.9780 -2.5862 -0.3030
 3105TIP3   OH230729   4.703   5.811  16.424  0.3445 -0.1848 -0.5790
 3105TIP3    H130730   4.676   5.856  16.504 -1.2737 -2.7832  0.4540
 3105TIP3    H230731   4.654   5.729  16.425  3.1724 -2.0688 -2.2695
 3106TIP3   OH230732   4.335   6.556   3.611  0.0938  0.0959  0.0696
 3106TIP3    H130733   4.334   6.471   3.654 -1.3820  0.1024  0.0872
 3106TIP3    H230734   4.243   6.580   3.602  0.4694  2.6670  1.9893
 3107TIP3   OH230735   4.273   1.119   4.907  0.4614 -0.1554  0.5064
 3107TIP3    H130736   4.217   1.174   4.962  1.0202 -1.5996  2.6625
 3107TIP3    H230737   4.353   1.107   4.958 -0.0109 -3.7200  0.6883
 3108TIP3   OH230738   5.784   3.194   6.085 -0.1395  0.5521 -0.1329
 3108TIP3    H130739   5.724   3.238   6.025 -1.3899 -0.7678  0.0833
 3108TIP3    H230740   5.727   3.157   6.152  0.8987 -0.8575  0.0194
 3109TIP3   OH230741   1.103   1.591  17.248  0.4520 -0.1577  0.1531
 3109TIP3    H130742   1.051   1.626  17.176  0.0647 -3.2958 -1.2947
 3109TIP3    H230743   1.193   1.592  17.215  0.5295  0.1329  0.3772
 3110TIP3   OH230744   0.553   3.384  16.230 -0.1500  0.1854  0.1676
 3110TIP3    H130745   0.542   3.477  16.210  2.2633  0.2876 -1.0482
 3110TIP3    H230746   0.530   3.339  16.148  0.5003 -0.1452  0.1668
 3111TIP3   OH230747   4.445   4.826   2.631 -0.1443 -0.1099 -0.1061
 3111TIP3    H130748   4.538   4.833   2.613 -0.1837  0.7787  0.0160
 3111TIP3    H230749   4.433   4.867   2.716 -0.5380 -0.9204  0.2478
 3112TIP3   OH230750   2.852   4.293  14.546  0.0581  0.1027  0.3136
 3112TIP3    H130751   2.900   4.370  14.575  1.0198  0.0824 -1.1254
 3112TIP3    H230752   2.914   4.221  14.555 -0.1067 -0.1328 -0.3757
 3113TIP3   OH230753   3.349   2.478  11.815 -0.4741 -0.3256  0.2793
 3113TIP3    H130754   3.300   2.472  11.733 -2.0307 -2.2497  1.2757
 3113TIP3    H230755   3.427   2.423  11.801  0.1059  0.6482 -0.4238
 3114TIP3   OH230756   1.383   1.205  12.401  0.1979 -0.0905  0.2755
 3114TIP3    H130757   1.477   1.205  12.418  0.0423  0.9692  1.2140
 3114TIP3    H230758   1.345   1.162  12.478 -0.2862  2.0664  1.3078
 3115TIP3   OH230759   0.578   5.837   0.345 -0.3328 -0.1409 -0.4185
 3115TIP3    H130760   0.645   5.781   0.303 -0.7335  0.1622 -1.5020
 3115TIP3    H230761   0.622   5.921   0.358 -1.0343  0.7228 -3.0116
 3116TIP3   OH230762   0.917   1.960   3.565 -0.3148 -0.2496 -0.2010
 3116TIP3    H130763   0.913   2.032   3.628  0.3947  1.3632 -1.9000
 3116TIP3    H230764   0.826   1.944   3.540 -0.5019 -0.1963  0.4287
 3117TIP3   OH230765   0.129   5.040  13.498  0.1224  0.0614  0.0289
 3117TIP3    H130766   0.186   5.096  13.446 -0.6770  0.5353 -0.3525
 3117TIP3    H230767   0.171   5.035  13.584  0.8453  0.2241 -0.3137
 3118TIP3   OH230768   4.569   3.959   1.889  0.6608 -0.0123 -0.0568
 3118TIP3    H130769   4.504   3.926   1.951  0.0810 -0.9859 -1.1582
 3118TIP3    H230770   4.643   3.985   1.944 -0.1706 -0.0245  1.1125
 3119TIP3   OH230771   5.375   6.413  11.620 -0.0092 -0.0263  0.4703
 3119TIP3    H130772   5.444   6.479  11.629 -0.8971  0.6685  3.0807
 3119TIP3    H230773   5.332   6.434  11.537  3.2272 -0.9217 -1.6357
 3120TIP3   OH230774   6.479   2.922  11.670  0.1554  0.1858  0.1268
 3120TIP3    H130775   6.475   2.840  11.621 -1.5439  0.6188 -0.5262
 3120TIP3    H230776   6.389   2.938  11.697  0.6617  1.2451  1.2780
 3121TIP3   OH230777   4.798   1.195   4.455  0.0159  1.0272 -0.0103
 3121TIP3    H130778   4.855   1.270   4.476  1.3616  0.2267 -0.7064
 3121TIP3    H230779   4.828   1.165   4.370 -1.3472  0.4409 -0.3151
 3122TIP3   OH230780   3.177   2.994  17.548 -0.4941 -0.5697  0.5126
 3122TIP3    H130781   3.172   3.069  17.489 -0.7500 -0.5636  0.5420
 3122TIP3    H230782   3.271   2.975  17.554 -0.5584 -1.6132 -1.2136
 3123TIP3   OH230783   3.849   5.641   1.676  0.1895  0.7707 -0.0553
 3123TIP3    H130784   3.816   5.632   1.587 -1.1890  0.0725  0.4915
 3123TIP3    H230785   3.795   5.710   1.715  0.4139  0.7031  0.3855
 3124TIP3   OH230786   3.835   0.547  15.746  0.4917 -0.5921 -0.0680
 3124TIP3    H130787   3.783   0.627  15.750  0.2018 -0.6946 -1.3666
 3124TIP3    H230788   3.917   0.574  15.704 -0.1742 -1.2103 -1.8953
 3125TIP3   OH230789   0.244   4.712   4.536  0.0937  0.1944  0.3610
 3125TIP3    H130790   0.159   4.735   4.574 -0.7030 -1.1653 -0.4930
 3125TIP3    H230791   0.240   4.747   4.447 -0.2689 -1.3284 -0.2370
 3126TIP3   OH230792   5.012   5.512  14.818 -0.4978  0.4046 -0.1087
 3126TIP3    H130793   5.072   5.507  14.743 -0.3656 -2.0291  0.0984
 3126TIP3    H230794   4.935   5.463  14.791 -1.5890  1.7763  0.3946
 3127TIP3   OH230795   4.596   5.841   0.101  0.1557  0.1038  0.2248
 3127TIP3    H130796   4.587   5.936   0.099  0.2540  0.1079 -1.0304
 3127TIP3    H230797   4.678   5.825   0.148  0.4029  0.6758 -0.0030
 3128TIP3   OH230798   2.987   4.385   1.593 -0.1422  0.2509  0.9017
 3128TIP3    H130799   2.943   4.454   1.544 -1.7144 -0.8521  0.6557
 3128TIP3    H230800   3.067   4.367   1.544 -1.1220 -0.0422 -0.6678
 3129TIP3   OH230801   3.445   3.680   4.152 -0.6001 -0.0783  0.6411
 3129TIP3    H130802   3.519   3.692   4.093 -0.7062 -1.2880  0.2184
 3129TIP3    H230803   3.417   3.768   4.175 -1.4097  0.4972 -2.2158
 3130TIP3   OH230804   3.578   0.924  17.360  0.1206  0.5381 -0.1493
 3130TIP3    H130805   3.608   0.966  17.280 -0.3889 -0.2178 -0.7538
 3130TIP3    H230806   3.658   0.893  17.403  0.3217 -0.5052 -1.1990
 3131TIP3   OH230807   0.757   4.388   0.882  0.2119 -0.0956 -0.6181
 3131TIP3    H130808   0.731   4.405   0.791  0.3331 -1.7168 -0.9839
 3131TIP3    H230809   0.847   4.356   0.874  0.2785 -0.0873  0.0986
 3132TIP3   OH230810   4.767   3.952   3.896  0.1997 -0.3510  0.0575
 3132TIP3    H130811   4.843   3.945   3.839 -0.7272 -1.6170 -1.0842
 3132TIP3    H230812   4.737   3.861   3.907 -0.2693 -0.0237  1.7104
 3133TIP3   OH230813   3.755   4.443   5.323  0.1132 -0.4026  0.2409
 3133TIP3    H130814   3.734   4.426   5.231  0.3283 -2.6139  0.5340
 3133TIP3    H230815   3.670   4.454   5.365 -0.0007  0.2545 -0.1436
 3134TIP3   OH230816   0.075   4.771   2.800  0.2381 -0.4263 -0.3334
 3134TIP3    H130817   0.151   4.793   2.853  0.3551 -0.1782 -0.6056
 3134TIP3    H230818   0.003   4.764   2.863  0.3170  0.1530 -0.1708
 3135TIP3   OH230819   4.347   6.164   4.796 -0.0753 -0.5528 -0.5932
 3135TIP3    H130820   4.439   6.191   4.799 -0.1745 -0.1879 -0.8581
 3135TIP3    H230821   4.304   6.221   4.860 -0.2476 -0.2211 -1.0024
 3136TIP3   OH230822   1.327   3.498  16.683 -0.1949  0.2525 -0.4288
 3136TIP3    H130823   1.292   3.412  16.704 -1.0083  0.8423  0.7660
 3136TIP3    H230824   1.250   3.556  16.684  0.4680  1.1533 -0.2423
 3137TIP3   OH230825   3.535   5.217  13.660  0.3210 -0.2389 -0.2630
 3137TIP3    H130826   3.624   5.201  13.693 -0.4010 -0.1410  1.8649
 3137TIP3    H230827   3.510   5.136  13.617  1.0465 -0.6607  0.0932
 3138TIP3   OH230828   2.705   4.199  10.712 -0.3462 -0.6745 -0.3252
 3138TIP3    H130829   2.715   4.294  10.703  0.7482 -0.8013 -0.6395
 3138TIP3    H230830   2.763   4.162  10.645  1.4001 -1.5664  1.5542
 3139TIP3   OH230831   1.569   4.570   2.661 -0.2641  0.0777 -0.2498
 3139TIP3    H130832   1.477   4.562   2.636 -0.2747  0.3568 -0.3054
 3139TIP3    H230833   1.618   4.551   2.581 -0.2720 -0.1018 -0.2124
 3140TIP3   OH230834   2.691   4.976   5.082  0.1355  0.6107 -0.4680
 3140TIP3    H130835   2.596   4.968   5.094  0.2144 -0.2858 -0.4299
 3140TIP3    H230836   2.713   4.910   5.016  0.9845 -0.4058  0.7895
 3141TIP3   OH230837   3.210   3.440  16.421 -0.3454  0.0191 -0.7585
 3141TIP3    H130838   3.295   3.483  16.411  0.1722 -0.7563  0.1800
 3141TIP3    H230839   3.206   3.377  16.349  1.1877 -2.0171  0.8215
 3142TIP3   OH230840   2.702   1.388  13.799 -0.4288 -0.4190 -0.2461
 3142TIP3    H130841   2.772   1.423  13.853 -0.5910 -3.5513  2.3014
 3142TIP3    H230842   2.627   1.446  13.816  0.5804  0.9066 -0.2228
 3143TIP3   OH230843   4.718   1.838  11.186  0.3361  0.0806  0.2687
 3143TIP3    H130844   4.705   1.888  11.105  0.0143  0.5251  0.5832
 3143TIP3    H230845   4.812   1.827  11.193  0.6319  2.5997  1.3153
 3144TIP3   OH230846   2.596   0.984   4.434  0.0879 -0.4392 -0.2956
 3144TIP3    H130847   2.539   1.037   4.379  0.8665  1.5652  0.7150
 3144TIP3    H230848   2.662   0.949   4.375 -0.5761 -0.4972 -1.0189
 3145TIP3   OH230849   4.488   4.983  11.390  0.3257  0.0191 -0.3552
 3145TIP3    H130850   4.548   4.990  11.315 -0.5492  1.4630 -0.9773
 3145TIP3    H230851   4.401   4.977  11.350 -0.1946  1.3347  0.5275
 3146TIP3   OH230852   1.427   6.595   5.840  0.1059 -0.3639  0.2534
 3146TIP3    H130853   1.337   6.611   5.810 -0.2289 -2.7194 -0.1988
 3146TIP3    H230854   1.482   6.614   5.764 -0.2742 -1.3610 -0.2908
 3147TIP3   OH230855   4.092   1.719   5.962 -0.2591 -0.0809  0.0600
 3147TIP3    H130856   4.152   1.782   6.002  0.2100  0.0557 -0.8300
 3147TIP3    H230857   4.035   1.692   6.034  0.4239  0.3043  0.7679
 3148TIP3   OH230858   4.778   2.156  16.324 -0.6710  0.1399 -0.2471
 3148TIP3    H130859   4.838   2.229  16.340  2.1468 -1.3530 -2.9061
 3148TIP3    H230860   4.711   2.192  16.266  0.2274  0.8030 -0.8879
 3149TIP3   OH230861   0.078   6.552   3.970  0.0531  0.1081  0.2853
 3149TIP3    H130862   0.027   6.532   3.891 -1.9056 -1.3174  1.8187
 3149TIP3    H230863   0.142   6.617   3.941 -0.3152 -0.6564 -2.5605
 3150TIP3   OH230864   3.963   5.406   2.555  0.3198 -0.5577  0.1450
 3150TIP3    H130865   4.035   5.433   2.612  0.9660  0.3815 -1.0866
 3150TIP3    H230866   3.999   5.331   2.506  1.0360  0.8455 -1.5609
 3151TIP3   OH230867   6.604   5.778   3.604 -0.1081 -0.2064 -0.4559
 3151TIP3    H130868   6.536   5.749   3.544  0.1467 -2.7309  0.3887
 3151TIP3    H230869   6.669   5.708   3.604  0.3521  0.1204  2.0240
 3152TIP3   OH230870   2.466   2.825   5.695 -0.1244  0.0994  0.1652
 3152TIP3    H130871   2.487   2.827   5.789  3.4146  0.4738 -0.4953
 3152TIP3    H230872   2.386   2.876   5.687 -0.2581  0.4728  2.9112
 3153TIP3   OH230873   4.460   3.953   5.359  0.3007 -0.1183  0.1861
 3153TIP3    H130874   4.385   3.902   5.390  0.7605 -1.6528 -1.1282
 3153TIP3    H230875   4.420   4.030   5.318 -0.6252 -1.2929 -1.1922
 3154TIP3   OH230876   6.130   4.879  16.472  0.3628 -0.0155  0.8007
 3154TIP3    H130877   6.131   4.843  16.561  0.8345 -1.3226  0.2891
 3154TIP3    H230878   6.050   4.845  16.433  0.5445 -0.0876  0.4855
 3155TIP3   OH230879   5.640   4.806   0.933  0.1330  0.1320 -0.3729
 3155TIP3    H130880   5.655   4.713   0.945 -0.4732  0.0086 -0.5024
 3155TIP3    H230881   5.725   4.847   0.944  0.1182 -0.2637  1.4462
 3156TIP3   OH230882   3.569   2.896  11.945  0.0743  0.3331  0.4227
 3156TIP3    H130883   3.513   2.969  11.920 -1.7941 -1.3893 -0.7163
 3156TIP3    H230884   3.510   2.821  11.952  2.4347 -2.2809 -3.6667
 3157TIP3   OH230885   6.378   0.317  14.488 -0.4188  0.0867  0.2701
 3157TIP3    H130886   6.329   0.397  14.506  1.3039  1.4509 -0.7836
 3157TIP3    H230887   6.439   0.309  14.562  0.3071  0.5049 -0.2712
 3158TIP3   OH230888   2.484   4.965   6.672 -0.7890  0.0005  0.3528
 3158TIP3    H130889   2.533   4.981   6.592 -1.8443  0.7006 -0.1781
 3158TIP3    H230890   2.445   4.878   6.661 -1.4084  0.3353 -0.1626
 3159TIP3   OH230891   5.930   3.229   4.935 -0.1767 -0.4716  0.5024
 3159TIP3    H130892   6.018   3.192   4.926 -0.5404 -0.9964 -1.2963
 3159TIP3    H230893   5.937   3.289   5.009  2.5285  1.8624 -1.4424
 3160TIP3   OH230894   4.346   3.074   0.413 -0.4388  0.0886 -0.2977
 3160TIP3    H130895   4.376   3.145   0.469  0.4065 -0.6603  0.2158
 3160TIP3    H230896   4.347   2.996   0.469 -1.9523 -0.2407 -0.6675
 3161TIP3   OH230897   6.504   5.665  13.527  0.4657 -0.0785  0.3734
 3161TIP3    H130898   6.541   5.706  13.449  0.0028 -1.6820 -0.7574
 3161TIP3    H230899   6.577   5.618  13.567  0.3071 -0.9307 -0.2840
 3162TIP3   OH230900   0.226   1.243  16.919 -0.0327 -1.1260 -0.0168
 3162TIP3    H130901   0.242   1.226  17.012 -2.0554  1.4089  0.9124
 3162TIP3    H230902   0.142   1.287  16.917  0.3877 -0.2464 -2.9969
 3163TIP3   OH230903   1.062   4.900  13.990  0.5638 -0.0159  0.0208
 3163TIP3    H130904   1.093   4.875  13.903  0.2846  0.6584 -0.2808
 3163TIP3    H230905   1.130   4.868  14.050  0.9237 -0.1897 -0.4739
 3164TIP3   OH230906   1.568   2.268   2.311 -0.0562  0.1642  0.1873
 3164TIP3    H130907   1.637   2.327   2.282 -0.2964  0.0760 -0.5818
 3164TIP3    H230908   1.536   2.307   2.393 -0.7731  1.5688 -0.7300
 3165TIP3   OH230909   6.004   5.661  13.894 -0.1386  0.0709 -0.2668
 3165TIP3    H130910   5.976   5.742  13.851  0.7267  0.2821 -0.4442
 3165TIP3    H230911   6.030   5.603  13.823  0.9193  0.2773 -0.0607
 3166TIP3   OH230912   2.961   1.291  12.712 -0.4115  0.1679  0.3535
 3166TIP3    H130913   3.033   1.291  12.650 -1.7096  0.2638 -1.2142
 3166TIP3    H230914   2.961   1.380  12.749  0.9910 -0.1937  1.3084
 3167TIP3   OH230915   1.214   4.777   2.310 -0.6078 -0.0868  0.1511
 3167TIP3    H130916   1.288   4.720   2.330 -1.9610 -2.5409 -1.2407
 3167TIP3    H230917   1.144   4.716   2.284 -3.2185  2.0455  1.6047
 3168TIP3   OH230918   4.449   3.205   0.192  0.2037 -0.6314 -0.6620
 3168TIP3    H130919   4.386   3.183   0.261 -1.0300  0.2421 -1.4620
 3168TIP3    H230920   4.475   3.121   0.156 -0.8013 -1.0155 -0.5413
 3169TIP3   OH230921   0.125   6.217  11.200  0.1234  0.1212  0.6278
 3169TIP3    H130922   0.056   6.183  11.144  0.8331 -0.3569  0.0151
 3169TIP3    H230923   0.193   6.245  11.139  0.6147  0.2463  1.2272
 3170TIP3   OH230924   0.320   3.313  16.063 -0.3833  0.1603 -0.1938
 3170TIP3    H130925   0.293   3.255  15.992  0.0986 -0.3124  0.0014
 3170TIP3    H230926   0.312   3.401  16.026  1.9718 -0.1341 -1.6298
 3171TIP3   OH230927   5.129   3.558  13.121 -0.0193  0.3279  0.1827
 3171TIP3    H130928   5.157   3.466  13.120 -0.8678  0.0601  0.2667
 3171TIP3    H230929   5.042   3.556  13.161 -0.6012  1.0142 -0.9916
 3172TIP3   OH230930   3.892   2.015  15.646 -0.0081  0.2211  0.0318
 3172TIP3    H130931   3.858   2.092  15.692  0.8206 -0.1453  1.3093
 3172TIP3    H230932   3.848   1.941  15.689  1.7255 -0.2121  1.1860
 3173TIP3   OH230933   0.200   1.634  15.997  0.1127  0.4102  0.3352
 3173TIP3    H130934   0.206   1.694  15.922  0.6677  0.8065  0.6864
 3173TIP3    H230935   0.109   1.640  16.024 -0.1965 -0.0538 -0.5576
 3174TIP3   OH230936   6.312   3.972   3.960 -0.3303 -0.5088 -0.0760
 3174TIP3    H130937   6.374   3.939   4.025 -1.7433 -0.2253  1.4570
 3174TIP3    H230938   6.344   4.060   3.940  0.6623 -0.9535 -0.5200
 3175TIP3   OH230939   4.249   0.491   4.852 -0.2463  0.2419 -0.4138
 3175TIP3    H130940   4.182   0.533   4.905 -0.5479 -0.7430  0.0055
 3175TIP3    H230941   4.216   0.402   4.837  0.2116  0.2367 -1.5627
 3176TIP3   OH230942   5.504   0.357   1.591 -0.3098 -0.1473  0.1545
 3176TIP3    H130943   5.413   0.349   1.562 -0.2783  1.7299 -0.6616
 3176TIP3    H230944   5.498   0.385   1.682 -0.6732  2.1186 -0.4971
 3177TIP3   OH230945   0.235   5.882  14.868  0.0856 -0.3529  0.1650
 3177TIP3    H130946   0.325   5.913  14.861 -0.7413  2.0564 -0.6910
 3177TIP3    H230947   0.223   5.825  14.791  0.9806 -1.0832  0.5466
 3178TIP3   OH230948   2.916   2.911  14.891  0.2605  0.0880 -0.2052
 3178TIP3    H130949   2.921   2.845  14.960  0.2578  1.1924  0.9056
 3178TIP3    H230950   2.982   2.885  14.827  0.1607 -1.0512  0.1398
 3179TIP3   OH230951   4.860   5.337   2.490 -0.0557  0.2010  0.0690
 3179TIP3    H130952   4.940   5.386   2.509 -0.4872  0.2824  1.8955
 3179TIP3    H230953   4.808   5.345   2.570 -1.4632 -0.6815 -0.7202
 3180TIP3   OH230954   2.527   1.424   1.233  0.1292 -0.3164 -0.1230
 3180TIP3    H130955   2.449   1.460   1.275 -0.5185 -1.4980 -0.2422
 3180TIP3    H230956   2.563   1.362   1.297  0.9296  0.1601 -0.1034
 3181TIP3   OH230957   3.092   3.414   0.138 -0.4617 -0.0858 -0.2549
 3181TIP3    H130958   3.151   3.434   0.211 -0.7701 -2.5154  0.7521
 3181TIP3    H230959   3.010   3.457   0.160 -0.6158 -0.9689  0.9814
 3182TIP3   OH230960   1.582   4.312   2.805 -0.4912 -0.0949  0.0110
 3182TIP3    H130961   1.638   4.267   2.742 -0.1449 -0.5029  0.6005
 3182TIP3    H230962   1.595   4.405   2.787  0.3386 -0.1911  0.1177
 3183TIP3   OH230963   4.284   2.663   4.199 -0.1366  0.4560 -0.0325
 3183TIP3    H130964   4.202   2.646   4.245 -0.6830 -0.4039 -1.2791
 3183TIP3    H230965   4.258   2.694   4.113  0.8263 -0.1701 -0.5711
 3184TIP3   OH230966   4.215   3.731  14.998 -0.2394  0.3748 -0.2781
 3184TIP3    H130967   4.292   3.716  15.052  0.7676 -0.6521 -1.9006
 3184TIP3    H230968   4.165   3.650  15.004  0.0902  0.0937 -1.1789
 3185TIP3   OH230969   4.004   2.969  12.953 -0.1969 -0.0981 -0.1099
 3185TIP3    H130970   3.921   2.980  13.000  0.2452  0.0881  0.6485
 3185TIP3    H230971   3.982   2.986  12.862 -1.1623 -0.8543 -0.0455
 3186TIP3   OH230972   1.742   2.263  16.835 -0.0209 -0.4349 -0.2000
 3186TIP3    H130973   1.726   2.285  16.927  1.1628 -1.4586  0.2829
 3186TIP3    H230974   1.713   2.172  16.827  0.0387 -0.4044 -0.7976
 3187TIP3   OH230975   0.045   1.589   5.449 -0.1822 -0.4128  0.4611
 3187TIP3    H130976   0.077   1.622   5.533  1.4564  1.2923 -0.7508
 3187TIP3    H230977  -0.033   1.641   5.431  1.6801  2.1823 -0.8406
 3188TIP3   OH230978   2.622   4.961   1.103  0.0552  0.7263 -0.0411
 3188TIP3    H130979   2.592   4.939   1.015  1.8625  1.6901 -0.9482
 3188TIP3    H230980   2.576   5.042   1.124 -0.1376  0.6667 -0.2284
 3189TIP3   OH230981   0.987   4.274   0.826 -0.4983  0.5818 -0.2693
 3189TIP3    H130982   1.058   4.301   0.768 -0.3197 -0.5866 -0.6125
 3189TIP3    H230983   1.031   4.254   0.909 -0.5709  0.9267 -0.1484
 3190TIP3   OH230984   6.350   3.948  12.880  0.0114  0.1009 -0.2179
 3190TIP3    H130985   6.317   3.859  12.896 -0.9001  0.5471  0.5048
 3190TIP3    H230986   6.316   3.970  12.793 -2.7502  0.9796  0.9520
 3191TIP3   OH230987   2.915   0.982   2.867  0.4786 -0.7186  0.4913
 3191TIP3    H130988   2.854   0.913   2.891  0.1369 -0.3364  0.7458
 3191TIP3    H230989   2.910   1.045   2.939  0.3739 -0.1650  0.0166
 3192TIP3   OH230990   3.178   1.923   1.968  0.2836 -1.0865  0.0470
 3192TIP3    H130991   3.126   1.856   2.012  0.1231 -1.7887 -1.1687
 3192TIP3    H230992   3.167   1.904   1.875  1.8377 -0.5753 -0.2588
 3193TIP3   OH230993   5.899   0.728  11.889  0.4644  0.0580 -0.0564
 3193TIP3    H130994   5.985   0.698  11.918  0.4844  0.5116  0.3675
 3193TIP3    H230995   5.864   0.777  11.964  0.7338  1.7072 -0.9533
 3194TIP3   OH230996   2.449   2.255  14.023  0.0581  0.5514 -0.0061
 3194TIP3    H130997   2.397   2.335  14.029 -0.2681  0.6208 -2.7863
 3194TIP3    H230998   2.540   2.286  14.016  0.0214  0.6315 -0.1250
 3195TIP3   OH230999   3.015   0.832   4.529  0.3464  0.6447 -0.7025
 3195TIP3    H131000   3.049   0.767   4.466  0.7193 -0.0756  0.2188
 3195TIP3    H231001   3.066   0.911   4.512  1.7476 -0.0914 -0.0838
 3196TIP3   OH231002   2.778   2.283   2.783 -0.4409  0.4982  0.0511
 3196TIP3    H131003   2.812   2.353   2.839 -2.2677  1.1153  0.4472
 3196TIP3    H231004   2.769   2.208   2.842 -1.8135  0.9792  0.4858
 3197TIP3   OH231005   3.499   5.419  12.058  0.0619 -0.1218 -0.7539
 3197TIP3    H131006   3.473   5.376  12.140  0.7830  0.8335 -0.0002
 3197TIP3    H231007   3.449   5.500  12.057 -0.2007 -0.2875 -1.4410
 3198TIP3   OH231008   2.745   0.310   2.211 -0.1769 -0.1917 -0.7580
 3198TIP3    H131009   2.733   0.370   2.284 -0.3285 -0.7744 -0.2971
 3198TIP3    H231010   2.667   0.255   2.211  1.2496 -2.3629  0.7015
 3199TIP3   OH231011   2.533   6.234   0.443 -0.1274 -0.1074  0.0061
 3199TIP3    H131012   2.536   6.315   0.392 -0.3968  1.8229  2.8164
 3199TIP3    H231013   2.619   6.227   0.484  0.0238 -1.5048 -0.4847
 3200TIP3   OH231014   0.849   2.443   4.448  0.0411 -0.5661 -0.5249
 3200TIP3    H131015   0.854   2.350   4.472  1.0797 -0.6348 -0.9465
 3200TIP3    H231016   0.915   2.485   4.502 -0.2389 -0.1081 -0.5350
 3201TIP3   OH231017   2.462   5.172   1.105  0.2690  0.1390 -0.0372
 3201TIP3    H131018   2.391   5.154   1.044  0.0095  0.5750  0.1322
 3201TIP3    H231019   2.501   5.254   1.073  0.6079 -0.0257 -0.0502
 3202TIP3   OH231020   3.414   2.038  13.567  0.2851 -0.3815  0.3798
 3202TIP3    H131021   3.331   2.081  13.587  0.6652  0.2245  0.6801
 3202TIP3    H231022   3.443   2.001  13.651  0.8954  0.4321  0.5374
 3203TIP3   OH231023   2.914   3.587   0.211  0.1246  0.4732  0.3687
 3203TIP3    H131024   2.882   3.656   0.269 -2.7050  0.7377 -1.3329
 3203TIP3    H231025   2.876   3.608   0.125  2.7539 -0.8332 -1.2529
 3204TIP3   OH231026   2.502   5.930  10.961 -0.0603  0.3170 -0.4324
 3204TIP3    H131027   2.410   5.914  10.982  0.6319 -1.4682  1.5519
 3204TIP3    H231028   2.501   5.959  10.869 -2.5024 -0.5941 -0.7597
 3205TIP3   OH231029   0.633   3.275   4.998  0.3314  0.0817  0.2359
 3205TIP3    H131030   0.695   3.228   4.942  0.6666  2.1887 -1.3031
 3205TIP3    H231031   0.557   3.218   5.004  0.9666 -0.9434 -0.9872
 3206TIP3   OH231032   3.126   0.322  10.787  0.0532  0.1026  0.2099
 3206TIP3    H131033   3.191   0.253  10.774  1.5608  1.3510  0.8277
 3206TIP3    H231034   3.113   0.360  10.700 -0.4479 -0.6388 -0.0509
 3207TIP3   OH231035   4.832   2.371  11.545  0.1177 -0.3336  0.2445
 3207TIP3    H131036   4.737   2.364  11.552  0.1597 -0.8708  0.2758
 3207TIP3    H231037   4.852   2.340  11.456  0.0694  1.7541 -0.5538
 3208TIP3   OH231038   3.000   1.697   4.569 -0.0860 -0.1812 -0.0662
 3208TIP3    H131039   2.954   1.745   4.499 -0.7648 -0.5290  0.1357
 3208TIP3    H231040   3.091   1.722   4.558 -0.5326  1.9197  0.6212
 3209TIP3   OH231041   0.623   2.164   2.894 -0.7192 -0.7721 -0.5154
 3209TIP3    H131042   0.599   2.227   2.825 -1.4824 -0.0264  0.4051
 3209TIP3    H231043   0.541   2.148   2.941 -0.6235 -2.7708 -0.9613
 3210TIP3   OH231044   3.984   0.107   1.798  0.2860  0.4305 -0.2716
 3210TIP3    H131045   3.969   0.201   1.799  0.3990  0.4931 -1.6960
 3210TIP3    H231046   4.042   0.093   1.723  0.0563 -0.7959 -0.2405
 3211TIP3   OH231047   6.008   6.562   4.342 -0.7506 -0.0023 -0.2947
 3211TIP3    H131048   5.958   6.608   4.276 -0.3291  0.4019 -0.3414
 3211TIP3    H231049   5.953   6.564   4.420 -1.0596 -0.0924 -0.5107
 3212TIP3   OH231050   0.164   0.337  14.651 -0.0508 -0.1278 -0.5252
 3212TIP3    H131051   0.254   0.322  14.682  0.6457  1.4696 -1.6205
 3212TIP3    H231052   0.166   0.426  14.615 -1.8017 -0.4636 -1.5534
 3213TIP3   OH231053   3.426   1.237   2.267  0.1043 -0.0594  0.3356
 3213TIP3    H131054   3.429   1.168   2.201  1.2283 -0.0992  0.4063
 3213TIP3    H231055   3.356   1.295   2.238 -0.8593 -1.2185  0.2790
 3214TIP3   OH231056   6.143   2.176  15.174  0.3159 -0.1885  1.0767
 3214TIP3    H131057   6.164   2.091  15.212 -0.4890 -0.2945  1.3143
 3214TIP3    H231058   6.153   2.164  15.080  0.2063 -0.5499  1.1121
 3215TIP3   OH231059   1.270   2.080   2.739  0.3357  0.1666  0.1069
 3215TIP3    H131060   1.319   2.090   2.821  0.9812 -1.6411  0.0025
 3215TIP3    H231061   1.259   1.985   2.730 -2.1143  0.4465 -0.5321
 3216TIP3   OH231062   5.542   3.998  12.430  0.3416 -0.1891 -0.1712
 3216TIP3    H131063   5.551   4.067  12.496  0.6085 -0.6610  0.3002
 3216TIP3    H231064   5.459   3.955  12.451  0.5470 -0.4999  0.0216
 3217TIP3   OH231065   5.694   3.063   4.858 -0.8660  0.1318  0.7026
 3217TIP3    H131066   5.765   3.126   4.857 -1.7491  1.1518  1.0088
 3217TIP3    H231067   5.681   3.043   4.951 -0.3111 -0.8377  0.5837
 3218TIP3   OH231068   1.145   6.346   5.838 -0.4114  0.7153  0.6616
 3218TIP3    H131069   1.131   6.293   5.917 -0.4842  1.0081  0.8489
 3218TIP3    H231070   1.233   6.323   5.808  0.0681  1.4171  1.4679
 3219TIP3   OH231071   0.581   5.590  14.299 -0.1089 -0.2812  0.0866
 3219TIP3    H131072   0.659   5.535  14.286  0.7260  0.6131  1.1020
 3219TIP3    H231073   0.616   5.673  14.331 -1.3276  0.9784 -1.6697
 3220TIP3   OH231074   6.570   4.149   0.469 -0.1493 -0.0562 -0.3574
 3220TIP3    H131075   6.613   4.121   0.388 -0.8352 -0.9348 -0.4330
 3220TIP3    H231076   6.568   4.070   0.524 -0.7547  0.2253  0.0383
 3221TIP3   OH231077   2.537   2.458   5.040 -0.2138  0.2264  0.4057
 3221TIP3    H131078   2.608   2.393   5.044 -0.5340 -0.1761 -0.2389
 3221TIP3    H231079   2.480   2.435   5.114 -0.3425 -0.2609  0.1645
 3222TIP3   OH231080   3.776   0.514   2.673  0.5269  0.3528  0.6024
 3222TIP3    H131081   3.771   0.497   2.579  0.8909  0.3416  0.5823
 3222TIP3    H231082   3.868   0.538   2.688  0.4194  0.5738  0.9173
 3223TIP3   OH231083   2.380   4.918   4.218 -0.2285  0.3033 -0.1336
 3223TIP3    H131084   2.440   4.856   4.177  2.1687  1.9193  0.7002
 3223TIP3    H231085   2.361   4.880   4.304  0.5014  0.2946  0.0273
 3224TIP3   OH231086   1.328   4.894  15.941 -0.0548  0.5338 -0.5447
 3224TIP3    H131087   1.416   4.857  15.928 -0.7071 -1.7997  0.9581
 3224TIP3    H231088   1.295   4.910  15.853  0.6868 -1.6860 -1.3005
 3225TIP3   OH231089   0.403   2.187   4.049 -0.1819  0.2503 -0.4847
 3225TIP3    H131090   0.466   2.173   3.979  3.0896  1.3724  1.9933
 3225TIP3    H231091   0.387   2.281   4.048  0.8026  0.4571  0.9170
 3226TIP3   OH231092   5.433   0.808  16.559  0.2068  1.1338  0.1042
 3226TIP3    H131093   5.452   0.901  16.548 -0.9110  1.2033 -1.7529
 3226TIP3    H231094   5.340   0.804  16.581  0.6283  0.5035  1.9339
 3227TIP3   OH231095   6.405   4.277  15.745  0.0884 -0.8927  0.4685
 3227TIP3    H131096   6.417   4.298  15.652 -1.7644  0.1701  0.4150
 3227TIP3    H231097   6.379   4.360  15.784  0.9211 -1.3122  1.9832
 3228TIP3   OH231098   5.418   2.185   4.263 -0.2326 -0.1299 -0.4274
 3228TIP3    H131099   5.492   2.245   4.263 -2.1231  2.4996  1.9952
 3228TIP3    H231100   5.412   2.154   4.353 -2.6263  0.6478 -0.2322
 3229TIP3   OH231101   3.495   1.233   3.631  0.0473  0.2085 -0.0178
 3229TIP3    H131102   3.516   1.169   3.564 -0.6476 -0.3463  0.2784
 3229TIP3    H231103   3.412   1.271   3.602 -0.4095 -0.2446  0.6622
 3230TIP3   OH231104   0.027   1.432  12.667  0.1712 -0.6575 -0.4006
 3230TIP3    H131105   0.109   1.387  12.688  0.2339 -0.0977  0.5862
 3230TIP3    H231106   0.053   1.501  12.606  0.4905 -0.3044  0.1230
 3231TIP3   OH231107   4.004   5.656  10.749 -0.3198  0.0310 -0.1675
 3231TIP3    H131108   4.008   5.579  10.692 -1.3685  0.1480 -0.4241
 3231TIP3    H231109   3.936   5.635  10.812 -1.1745  1.0465 -0.7187
 3232TIP3   OH231110   3.642   5.773  12.809  0.4105 -0.2544 -0.0401
 3232TIP3    H131111   3.661   5.698  12.752  2.3974 -0.4016  0.7377
 3232TIP3    H231112   3.549   5.791  12.795  0.3213 -1.7127 -1.6044
 3233TIP3   OH231113   5.251   4.305   4.936  0.7489  0.1671  0.0598
 3233TIP3    H131114   5.221   4.214   4.930  0.4593  0.3324 -1.7072
 3233TIP3    H231115   5.346   4.298   4.948  0.7434 -0.3763 -0.1717
 3234TIP3   OH231116   4.923   1.712   2.682 -0.4571  0.3303 -0.2071
 3234TIP3    H131117   5.005   1.751   2.712  0.0823 -0.3223 -0.8110
 3234TIP3    H231118   4.891   1.662   2.757 -0.6172  1.0647  0.2264
 3235TIP3   OH231119   5.441   2.431  13.021 -0.5010 -0.3648  0.1141
 3235TIP3    H131120   5.530   2.397  13.016 -0.9712 -1.8283  1.1288
 3235TIP3    H231121   5.449   2.523  12.994  0.8906 -1.0845 -2.1845
 3236TIP3   OH231122   5.287   4.070   1.462  0.4702  0.2082 -0.2618
 3236TIP3    H131123   5.221   4.137   1.478  1.4371  2.4433 -4.2503
 3236TIP3    H231124   5.369   4.109   1.492  0.5415 -1.0698  1.3411
 3237TIP3   OH231125   1.293   2.197   2.452  0.6615  0.1225  0.1202
 3237TIP3    H131126   1.288   2.178   2.545  0.3535 -1.3315 -0.1574
 3237TIP3    H231127   1.210   2.241   2.431  0.1559 -0.7172  0.3081
 3238TIP3   OH231128   3.079   5.017  13.537  0.1924 -0.3057  0.2320
 3238TIP3    H131129   2.999   5.020  13.484 -0.5290 -0.7524  1.2473
 3238TIP3    H231130   3.047   5.018  13.627  1.3475 -0.4170  0.6532
 3239TIP3   OH231131   4.583   3.875  11.884  0.4803 -0.1755  0.1403
 3239TIP3    H131132   4.492   3.863  11.910  0.2198  0.1077 -0.6098
 3239TIP3    H231133   4.618   3.786  11.876 -0.0110 -0.3223 -0.5074
 3240TIP3   OH231134   2.400   1.919  13.363 -0.1495  0.6531 -0.5515
 3240TIP3    H131135   2.379   2.006  13.395  0.0742  0.6919 -0.5071
 3240TIP3    H231136   2.396   1.926  13.268 -0.1831  0.6961 -0.5466
 3241TIP3   OH231137   2.418   6.148  11.488 -0.8714 -0.2346  0.3342
 3241TIP3    H131138   2.341   6.205  11.490 -0.8613 -0.2071  0.0157
 3241TIP3    H231139   2.442   6.144  11.395 -0.3346 -0.0439  0.4651
 3242TIP3   OH231140   4.617   0.683  11.035 -0.5026 -0.3429 -0.3081
 3242TIP3    H131141   4.540   0.732  11.007  0.7090  1.4390 -0.6191
 3242TIP3    H231142   4.656   0.651  10.954 -0.7036 -0.9550 -0.1714
 3243TIP3   OH231143   0.393   5.135  17.509  0.3723 -0.3688 -0.0047
 3243TIP3    H131144   0.398   5.202  17.441 -0.9149  0.0259  0.2693
 3243TIP3    H231145   0.366   5.055  17.462  1.8784 -0.7189 -0.3259
 3244TIP3   OH231146   4.810   1.416  11.986  0.5750  0.5034 -0.1214
 3244TIP3    H131147   4.884   1.403  12.044  0.7901  1.0495 -0.2740
 3244TIP3    H231148   4.759   1.335  11.995  1.8665 -0.4523 -1.0161
 3245TIP3   OH231149   1.521   5.398  12.973 -0.1846  0.1140  0.0130
 3245TIP3    H131150   1.589   5.337  12.946 -0.8331 -0.7000  0.1622
 3245TIP3    H231151   1.504   5.452  12.896 -0.5068 -0.7629 -0.5371
 3246TIP3   OH231152   5.033   6.324   0.371 -0.3909 -0.4452 -0.2729
 3246TIP3    H131153   5.046   6.318   0.466  1.4983 -1.3616 -0.5448
 3246TIP3    H231154   5.024   6.233   0.342 -0.8482 -0.1797 -0.9942
 3247TIP3   OH231155   0.094   3.933   0.558 -0.3600  0.3479  0.1899
 3247TIP3    H131156   0.186   3.962   0.557 -0.7874  1.8215  0.7663
 3247TIP3    H231157   0.087   3.874   0.483  0.6905  1.4450 -0.8175
 3248TIP3   OH231158   6.384   3.266   4.378 -0.7310  0.4350  0.3710
 3248TIP3    H131159   6.378   3.308   4.292  0.5255  1.2678  0.6623
 3248TIP3    H231160   6.321   3.194   4.374 -1.8717  1.4609 -0.6503
 3249TIP3   OH231161   5.201   1.852   5.944  0.8959 -0.4083 -0.0647
 3249TIP3    H131162   5.173   1.863   5.853  2.0932  1.3654 -0.2588
 3249TIP3    H231163   5.131   1.800   5.984 -0.9523  0.9479 -1.3615
 3250TIP3   OH231164   5.391   6.626   5.598  0.2046  0.2316  0.0721
 3250TIP3    H131165   5.336   6.668   5.663 -0.5366 -1.3010  0.4986
 3250TIP3    H231166   5.419   6.697   5.540 -1.3207  1.2305  0.4894
 3251TIP3   OH231167   4.337   4.118   5.824 -0.6890 -0.3849 -0.0702
 3251TIP3    H131168   4.328   4.038   5.875  1.3382 -1.8167 -1.7987
 3251TIP3    H231169   4.428   4.118   5.794 -0.7767  2.2807 -0.6190
 3252TIP3   OH231170   4.822   3.383  17.205 -0.5305  0.2178 -0.2877
 3252TIP3    H131171   4.865   3.438  17.271 -0.1545  0.5204 -0.7703
 3252TIP3    H231172   4.830   3.433  17.124 -0.1876 -0.5464 -0.7364
 3253TIP3   OH231173   3.996   0.177   3.526 -0.1945  0.7821  0.2305
 3253TIP3    H131174   3.989   0.259   3.576 -0.0007  1.4017 -0.7440
 3253TIP3    H231175   3.908   0.162   3.492 -0.5552 -0.1255  1.4572
 3254TIP3   OH231176   1.046   3.158   5.116  0.8042  0.2533 -0.1400
 3254TIP3    H131177   0.981   3.225   5.139  1.1612  0.7779 -0.6114
 3254TIP3    H231178   1.128   3.208   5.104  1.3666 -0.4281  0.7420
 3255TIP3   OH231179   1.751   4.978   2.880 -0.5239  0.4422 -0.4318
 3255TIP3    H131180   1.761   5.049   2.943  2.1662  0.5582 -0.8521
 3255TIP3    H231181   1.759   5.021   2.795 -0.7662 -0.1380 -0.7552
 3256TIP3   OH231182   2.926   1.651   3.729  0.0725 -0.0794  0.1908
 3256TIP3    H131183   2.972   1.569   3.711  0.5842 -0.0891  1.5001
 3256TIP3    H231184   2.869   1.663   3.652  0.6921 -1.1525 -0.4642
 3257TIP3   OH231185   4.264   0.930  16.555 -0.3723 -0.0445  0.7769
 3257TIP3    H131186   4.208   0.857  16.528 -0.7090  0.0478  1.2239
 3257TIP3    H231187   4.341   0.922  16.498 -0.6876 -0.3651  0.3812
 3258TIP3   OH231188   4.511   1.205  13.217 -0.1688  0.5841  0.5137
 3258TIP3    H131189   4.424   1.227  13.183 -0.1722 -0.1254  0.0414
 3258TIP3    H231190   4.495   1.174  13.306 -0.7785 -2.1615 -0.4403
 3259TIP3   OH231191   0.753   0.989   4.923  0.1622  0.6309  0.3121
 3259TIP3    H131192   0.718   1.067   4.878  0.4216  0.5838  0.0237
 3259TIP3    H231193   0.846   0.991   4.904  0.4944  1.2704  1.8495
 3260TIP3   OH231194   5.721   0.258   3.851  0.3437  0.6166 -0.4521
 3260TIP3    H131195   5.745   0.272   3.943 -0.8767  2.0162 -0.2950
 3260TIP3    H231196   5.797   0.216   3.812  0.3185 -1.4691  1.5393
 3261TIP3   OH231197   4.129   2.240   2.026  0.0916  0.1640  0.4728
 3261TIP3    H131198   4.144   2.317   2.082  0.0742  1.0745 -0.7435
 3261TIP3    H231199   4.176   2.169   2.071  3.3026  1.6786 -0.2181
 3262TIP3   OH231200   1.167   5.564  16.722  0.7543  0.5123 -0.2818
 3262TIP3    H131201   1.161   5.472  16.698  0.1329  0.6803 -0.8054
 3262TIP3    H231202   1.097   5.578  16.785 -0.6991  1.1335 -1.9458
 3263TIP3   OH231203   3.519   6.574   2.428 -0.0911 -0.2244  0.3664
 3263TIP3    H131204   3.517   6.598   2.336 -0.1765 -0.7910  0.2169
 3263TIP3    H231205   3.440   6.615   2.465 -1.6575 -2.3300 -0.4276
 3264TIP3   OH231206   4.838   5.622  14.439  0.1343 -0.3781  0.0491
 3264TIP3    H131207   4.759   5.577  14.408 -0.3701  0.0258  0.7039
 3264TIP3    H231208   4.829   5.711  14.403  0.6299 -0.5174 -0.4258
 3265TIP3   OH231209   4.402   5.806  12.524  0.4041 -0.0365 -0.5108
 3265TIP3    H131210   4.362   5.859  12.593  0.4376 -0.2982 -0.2911
 3265TIP3    H231211   4.333   5.796  12.458  0.7346  1.2044 -1.0697
 3266TIP3   OH231212   4.586   3.832  12.686  0.2293  0.5355 -0.6184
 3266TIP3    H131213   4.598   3.892  12.759  0.2506 -1.2511  0.9439
 3266TIP3    H231214   4.523   3.876  12.629 -1.1188  1.3086  1.3488
 3267TIP3   OH231215   5.832   2.564  15.527 -0.3265 -0.5341  0.0926
 3267TIP3    H131216   5.861   2.602  15.610  3.3841 -0.9028 -0.8476
 3267TIP3    H231217   5.873   2.477  15.526 -1.7908 -1.2433 -1.3655
 3268TIP3   OH231218   1.979   0.885   0.562 -0.3150 -0.1600 -0.2168
 3268TIP3    H131219   2.057   0.924   0.602  1.5857 -3.5197 -0.3084
 3268TIP3    H231220   1.959   0.809   0.616 -2.4241 -0.4690 -1.3082
 3269TIP3   OH231221   5.837   3.473   1.361  0.3829  0.0473  0.1606
 3269TIP3    H131222   5.745   3.478   1.386  0.9237  1.4979  2.0452
 3269TIP3    H231223   5.877   3.418   1.428  1.2185  1.0048  0.4740
 3270TIP3   OH231224   4.381   3.879  11.181  0.1194  0.4176 -0.3313
 3270TIP3    H131225   4.454   3.938  11.200  0.1701  0.0971  0.5450
 3270TIP3    H231226   4.349   3.906  11.095  1.3079  0.5316 -0.7540
 3271TIP3   OH231227   2.076   4.310  14.351 -0.5750 -0.1209  0.9661
 3271TIP3    H131228   1.997   4.347  14.391  0.1738  1.5331  1.0184
 3271TIP3    H231229   2.097   4.234  14.405 -0.8967  0.7125  2.3295
 3272TIP3   OH231230   2.141   1.180  10.835  0.3299  0.1883 -0.0003
 3272TIP3    H131231   2.193   1.206  10.910 -0.7695 -0.7089  1.1164
 3272TIP3    H231232   2.177   1.095  10.808  0.9387  0.6608 -0.7251
 3273TIP3   OH231233   3.910   5.887   6.130  0.6194 -0.6119 -0.0752
 3273TIP3    H131234   3.863   5.916   6.052 -1.0541  1.1958  1.4774
 3273TIP3    H231235   3.842   5.877   6.196  2.1837 -0.1456  1.6827
 3274TIP3   OH231236   4.843   1.395   3.913 -0.1728  0.3062 -0.2063
 3274TIP3    H131237   4.823   1.465   3.851  2.6485 -1.6515 -3.6866
 3274TIP3    H231238   4.937   1.400   3.926 -0.1190 -1.8827  0.6712
 3275TIP3   OH231239   0.405   1.440   4.480 -0.0204  0.5589  0.4118
 3275TIP3    H131240   0.331   1.448   4.541  0.2382 -0.0382  0.8136
 3275TIP3    H231241   0.378   1.489   4.403 -0.0724  1.9448  1.2686
 3276TIP3   OH231242   5.213   2.360  14.341 -0.2628  0.0154 -0.0287
 3276TIP3    H131243   5.276   2.289  14.325 -1.1982 -0.7762 -0.3230
 3276TIP3    H231244   5.146   2.320  14.397  0.0228  1.1415  1.1535
 3277TIP3   OH231245   2.056   6.101   4.184  0.6953 -0.0566  0.1397
 3277TIP3    H131246   2.151   6.112   4.186  0.8758 -1.1220  3.4166
 3277TIP3    H231247   2.028   6.117   4.274 -1.9199 -2.1420 -0.1791
 3278TIP3   OH231248   5.082   2.696   3.509 -0.4545 -0.3521 -0.2018
 3278TIP3    H131249   5.073   2.761   3.439 -0.1502 -1.2449 -1.1003
 3278TIP3    H231250   5.025   2.728   3.579  1.3440  2.0162  0.2721
 3279TIP3   OH231251   5.389   5.162  11.215 -0.5362 -0.1326  0.3334
 3279TIP3    H131252   5.319   5.219  11.183 -1.8955 -1.9376 -0.0583
 3279TIP3    H231253   5.384   5.084  11.160  0.3564 -1.2364  1.7421
 3280TIP3   OH231254   0.246   3.147  15.414 -0.9474  1.0198  0.2028
 3280TIP3    H131255   0.236   3.073  15.353 -0.4742  1.0936  0.0348
 3280TIP3    H231256   0.298   3.112  15.486 -1.0227  1.0955  0.2950
 3281TIP3   OH231257   5.284   4.874  15.911 -0.1864  0.0993 -0.2355
 3281TIP3    H131258   5.333   4.945  15.953  0.7323 -1.0210  0.6653
 3281TIP3    H231259   5.251   4.822  15.984 -0.9636 -0.3332 -0.8854
 3282TIP3   OH231260   4.949   4.208   4.585 -0.0724 -0.6718  0.4723
 3282TIP3    H131261   5.023   4.267   4.599  0.0588 -1.1832  2.1321
 3282TIP3    H231262   4.950   4.149   4.660 -0.0626 -2.9850 -1.2214
 3283TIP3   OH231263   0.323   1.021  16.745 -0.3336 -0.0429 -0.0957
 3283TIP3    H131264   0.285   1.107  16.761  0.8546  0.3411  0.7436
 3283TIP3    H231265   0.265   0.960  16.791 -1.1272  0.3013 -0.6192
 3284TIP3   OH231266   3.264   5.572  13.260 -0.6076 -0.0111 -0.1226
 3284TIP3    H131267   3.306   5.487  13.276 -1.6143 -0.6213 -0.6038
 3284TIP3    H231268   3.326   5.619  13.205 -0.5074 -0.8675 -0.7687
 3285TIP3   OH231269   0.101   1.678  12.163  0.0206  0.6663  0.9055
 3285TIP3    H131270   0.017   1.723  12.163 -0.5990 -0.4281  1.6734
 3285TIP3    H231271   0.114   1.649  12.073 -0.9054 -0.0092  0.9848
 3286TIP3   OH231272   5.334   3.659  14.018  0.4684  0.0858  0.0732
 3286TIP3    H131273   5.379   3.656  14.103  0.9090  0.2373 -0.1541
 3286TIP3    H231274   5.306   3.750  14.009 -0.9810 -0.2586  0.7733
 3287TIP3   OH231275   0.187   3.279  15.136 -0.7336  0.3996 -0.9936
 3287TIP3    H131276   0.253   3.348  15.138 -0.1373 -0.1681  0.2300
 3287TIP3    H231277   0.235   3.199  15.155 -1.8585  0.0730  0.7640
 3288TIP3   OH231278   1.806   2.526   5.086  0.1822  0.2786 -0.1326
 3288TIP3    H131279   1.754   2.534   5.166  0.7568  1.0265  0.1820
 3288TIP3    H231280   1.764   2.456   5.037 -0.9983  0.7231  0.2056
 3289TIP3   OH231281   2.618   1.888   0.527 -0.3888 -0.9567  0.4258
 3289TIP3    H131282   2.694   1.834   0.508  1.0869  0.9299  0.7172
 3289TIP3    H231283   2.552   1.826   0.558  1.1635 -2.5944  0.6077
 3290TIP3   OH231284   0.580   5.338  16.720 -0.1137  0.5112 -0.3881
 3290TIP3    H131285   0.670   5.368  16.707  0.1578  0.2832  0.8535
 3290TIP3    H231286   0.583   5.288  16.801 -1.0516 -0.8337 -1.1484
 3291TIP3   OH231287   2.516   3.246   5.658  0.2481  0.0068 -0.8272
 3291TIP3    H131288   2.568   3.180   5.704  1.5643  1.9880  0.7465
 3291TIP3    H231289   2.433   3.248   5.706 -0.1413 -1.0651 -1.4301
 3292TIP3   OH231290   4.100   4.657  17.534  0.4186  0.6112  0.1369
 3292TIP3    H131291   4.035   4.671  17.603  0.9146  0.4225  0.6442
 3292TIP3    H231292   4.090   4.733  17.477  0.2471  0.9448  0.6041
 3293TIP3   OH231293   5.592   0.140  16.832  0.0363  0.1288  0.0613
 3293TIP3    H131294   5.564   0.166  16.920 -1.5384  0.1511 -0.4165
 3293TIP3    H231295   5.511   0.133  16.782  0.5549 -3.0148 -0.5836
 3294TIP3   OH231296   2.452   0.857  13.340 -0.1668  0.4740 -0.5353
 3294TIP3    H131297   2.547   0.855  13.350 -0.4177 -0.0368  5.1552
 3294TIP3    H231298   2.429   0.949  13.357 -0.6979 -0.0225  1.7987
 3295TIP3   OH231299   4.515   2.465  14.460 -0.0611 -0.5998 -0.1279
 3295TIP3    H131300   4.432   2.499  14.426 -0.2170  0.4119  1.1795
 3295TIP3    H231301   4.496   2.375  14.485 -0.6209 -0.5365 -0.3119
 3296TIP3   OH231302   1.186   0.874   0.720 -0.6831  0.0029 -0.0555
 3296TIP3    H131303   1.171   0.879   0.626 -1.3814  0.2704  0.0671
 3296TIP3    H231304   1.244   0.948   0.739 -1.7318  0.8411 -0.0508
 3297TIP3   OH231305   5.672   1.433  12.245  0.0885 -0.6197 -0.2189
 3297TIP3    H131306   5.602   1.429  12.310  3.0154  0.3470  3.2816
 3297TIP3    H231307   5.713   1.346  12.248  1.4291  0.0125  0.7721
 3298TIP3   OH231308   1.155   2.463   1.197  0.1885 -0.0527 -0.0762
 3298TIP3    H131309   1.240   2.451   1.155  0.2077  2.3551 -0.9310
 3298TIP3    H231310   1.092   2.458   1.124 -0.3844 -1.4409  0.4910
 3299TIP3   OH231311   3.808   6.184   2.120 -0.2889 -0.0783 -0.4539
 3299TIP3    H131312   3.850   6.269   2.135 -0.3111 -0.0579 -0.5100
 3299TIP3    H231313   3.814   6.139   2.205  0.8755 -0.5346 -0.7613
 3300TIP3   OH231314   3.551   5.491  10.846 -0.2153  0.1502 -0.2890
 3300TIP3    H131315   3.458   5.498  10.866 -0.6135 -1.4938 -1.3451
 3300TIP3    H231316   3.556   5.424  10.778  1.8096 -0.3456  0.2672
 3301TIP3   OH231317   0.675   1.807  13.944  0.0352 -0.2927 -0.1588
 3301TIP3    H131318   0.716   1.756  13.874 -0.2124  0.4183 -0.8292
 3301TIP3    H231319   0.671   1.746  14.018  2.1367 -0.4470 -0.1075
 3302TIP3   OH231320   4.222   0.847   4.944 -0.5050  0.5702 -0.1399
 3302TIP3    H131321   4.199   0.892   5.025 -1.9693 -0.4390  0.0412
 3302TIP3    H231322   4.261   0.915   4.889  2.4928  0.8620  2.0972
 3303TIP3   OH231323   5.482   1.605  12.033 -0.1792  0.4751  0.3547
 3303TIP3    H131324   5.452   1.535  12.090  0.4201  0.3799  0.5674
 3303TIP3    H231325   5.554   1.566  11.983  0.1511  0.9322  0.4667
 3304TIP3   OH231326   6.418   5.669  14.794 -0.4812 -0.1615 -0.2676
 3304TIP3    H131327   6.389   5.730  14.861 -0.4517 -1.1733  0.6834
 3304TIP3    H231328   6.366   5.692  14.717 -0.4708  1.0508  0.0685
 3305TIP3   OH231329   2.959   5.088  11.010 -0.3800 -0.6337 -0.5765
 3305TIP3    H131330   2.869   5.058  10.999 -0.4503 -1.6601  2.0224
 3305TIP3    H231331   2.992   5.037  11.085  1.7644  0.9804 -0.3381
 3306TIP3   OH231332   4.169   5.280   3.887 -0.1246 -0.4011 -0.4302
 3306TIP3    H131333   4.190   5.200   3.934  2.1134  1.4409  1.9852
 3306TIP3    H231334   4.232   5.282   3.814 -0.8713 -1.2758 -1.1245
 3307TIP3   OH231335   0.671   4.119   1.810 -0.3163 -0.5576  0.0941
 3307TIP3    H131336   0.700   4.114   1.719 -0.4628 -0.8199  0.0627
 3307TIP3    H231337   0.594   4.176   1.807 -0.0109 -0.1356  0.1303
 3308TIP3   OH231338   1.748   5.805   5.194  0.4239 -0.2230 -0.3821
 3308TIP3    H131339   1.656   5.795   5.168 -0.1354  0.9516  0.9951
 3308TIP3    H231340   1.746   5.804   5.290  1.6396  1.3667 -0.3044
 3309TIP3   OH231341   4.925   4.068   4.817 -0.5063 -0.5895 -0.0814
 3309TIP3    H131342   4.899   3.976   4.829  1.0414 -0.8608  1.5472
 3309TIP3    H231343   4.861   4.118   4.868  0.0160 -0.9788  0.9907
 3310TIP3   OH231344   2.517   3.089  16.056 -0.2149  0.1633 -0.1958
 3310TIP3    H131345   2.539   3.104  16.148 -1.1972 -4.1459  0.9869
 3310TIP3    H231346   2.598   3.058  16.016 -0.4220 -0.7171  0.0378
 3311TIP3   OH231347   6.183   6.144   6.481  0.3138  0.0958  0.3598
 3311TIP3    H131348   6.100   6.098   6.494  0.4064  0.2228  1.5734
 3311TIP3    H231349   6.233   6.125   6.560  1.0014  0.9269  0.1394
 3312TIP3   OH231350   4.606   0.428  15.416  0.3658  0.2623 -0.2791
 3312TIP3    H131351   4.583   0.521  15.412 -1.2613 -0.0570  0.9164
 3312TIP3    H231352   4.635   0.414  15.506  1.6392 -0.1955 -0.7313
 3313TIP3   OH231353   1.156   5.349  11.862  0.1306 -0.2560 -0.0127
 3313TIP3    H131354   1.115   5.418  11.810  0.6642 -0.9064 -1.3467
 3313TIP3    H231355   1.220   5.309  11.803  1.0872 -0.7369  1.2925
 3314TIP3   OH231356   5.197   1.281  13.416 -0.0842 -0.3460  0.4903
 3314TIP3    H131357   5.248   1.320  13.345 -0.9380 -1.1969 -0.6174
 3314TIP3    H231358   5.112   1.325  13.411 -0.3358 -0.8172  0.6242
 3315TIP3   OH231359   3.685   3.173  13.962  0.1678 -0.4062 -0.7505
 3315TIP3    H131360   3.735   3.093  13.980  1.2550  0.5900  0.8934
 3315TIP3    H231361   3.642   3.194  14.044 -3.2900 -1.3371 -2.1522
 3316TIP3   OH231362   0.964   0.858  13.834  0.3137 -0.0365 -0.1613
 3316TIP3    H131363   0.942   0.951  13.834  0.1500  0.0422 -3.2288
 3316TIP3    H231364   1.043   0.852  13.780  1.1234 -1.5806  1.0892
 3317TIP3   OH231365   4.518   1.759  11.726 -0.1331  0.1678 -1.0237
 3317TIP3    H131366   4.472   1.708  11.659  0.2681 -2.1357  0.3421
 3317TIP3    H231367   4.574   1.695  11.770  1.7360  2.1821 -0.3151
 3318TIP3   OH231368   4.421   4.906   5.560  0.1330 -0.0993 -0.0388
 3318TIP3    H131369   4.497   4.957   5.588 -1.8857  2.7507  0.7153
 3318TIP3    H231370   4.412   4.837   5.625  2.1848 -0.7001 -0.3212
 3319TIP3   OH231371   5.697   5.287  14.850 -0.0564 -0.3112  0.3435
 3319TIP3    H131372   5.629   5.298  14.782  0.3198  0.4382  0.0753
 3319TIP3    H231373   5.775   5.327  14.812 -0.0387  0.8419  1.5158
 3320TIP3   OH231374   2.690   4.501   4.567 -0.1996  0.1269  0.1794
 3320TIP3    H131375   2.718   4.429   4.511 -1.1202 -3.8208  4.2017
 3320TIP3    H231376   2.768   4.523   4.618  0.0337  2.0533 -0.9220
 3321TIP3   OH231377   2.363   4.111  11.039 -0.1021  0.0626 -0.3721
 3321TIP3    H131378   2.337   4.203  11.035  1.0460  0.4216  0.0756
 3321TIP3    H231379   2.458   4.112  11.026 -0.0878 -1.0752 -0.4926
 3322TIP3   OH231380   0.884   5.118  11.340 -0.2575  0.3452  0.0077
 3322TIP3    H131381   0.962   5.168  11.366  0.7384 -0.4499 -1.2994
 3322TIP3    H231382   0.824   5.185  11.305 -0.9458  1.2005  2.6082
 3323TIP3   OH231383   1.540   4.287   6.234  0.2415  0.1476 -0.0190
 3323TIP3    H131384   1.448   4.314   6.231  0.3732  0.5437 -0.9686
 3323TIP3    H231385   1.549   4.240   6.317 -0.7535  0.3280  0.2021
 3324TIP3   OH231386   2.778   2.827  16.557  0.2698  0.1381 -0.0065
 3324TIP3    H131387   2.775   2.827  16.653  0.2799  0.5414 -0.0048
 3324TIP3    H231388   2.854   2.881  16.536 -0.0326  0.4705 -0.2492
 3325TIP3   OH231389   0.362   2.074  14.304 -0.0414 -0.0144 -0.2647
 3325TIP3    H131390   0.407   2.157  14.284 -0.5018  0.4946  0.7550
 3325TIP3    H231391   0.272   2.088  14.277  0.1313 -0.6164 -1.1936
 3326TIP3   OH231392   3.979   5.676   4.719  0.2957 -0.1464  0.5011
 3326TIP3    H131393   4.067   5.671   4.758  1.2017  0.6227 -1.2979
 3326TIP3    H231394   3.953   5.767   4.731  0.1374 -0.1593  0.2670
 3327TIP3   OH231395   4.552   6.609   1.978 -0.2934  0.0888 -0.4418
 3327TIP3    H131396   4.495   6.537   1.952  0.8512 -1.0742  0.1354
 3327TIP3    H231397   4.641   6.576   1.961  0.3062  0.8395  1.0624
 3328TIP3   OH231398   1.067   3.787  14.262  0.0942 -0.3203  0.1505
 3328TIP3    H131399   0.987   3.838  14.276  0.3055  0.1171 -0.1985
 3328TIP3    H231400   1.053   3.706  14.311 -0.4288 -0.1113  0.3542
 3329TIP3   OH231401   2.507   5.411   3.492  0.5376  0.2811 -0.5861
 3329TIP3    H131402   2.422   5.447   3.518  1.0422  1.0179  0.0777
 3329TIP3    H231403   2.488   5.359   3.414 -0.7900 -0.8230  0.4094
 3330TIP3   OH231404   0.651   1.858   2.952  0.1674 -0.1222 -0.5898
 3330TIP3    H131405   0.737   1.875   2.913  1.3790 -1.3144  1.3880
 3330TIP3    H231406   0.617   1.945   2.973  1.6748  0.3325  0.1137
 3331TIP3   OH231407   4.890   6.195  14.308  0.1217  0.1119 -0.4775
 3331TIP3    H131408   4.883   6.146  14.226 -0.5152 -0.3322 -0.1589
 3331TIP3    H231409   4.809   6.176  14.355  0.6597  0.0348  0.4415
 3332TIP3   OH231410   4.503   4.927  17.440  0.5184  0.4967 -0.0100
 3332TIP3    H131411   4.467   4.842  17.413  0.3310  0.5193  0.1679
 3332TIP3    H231412   4.530   4.968  17.358 -1.0508  1.0263 -0.2905
 3333TIP3   OH231413   3.268   0.287   5.116 -0.1290  0.1368 -0.1852
 3333TIP3    H131414   3.349   0.245   5.146 -1.5296 -1.6958  1.3100
 3333TIP3    H231415   3.245   0.239   5.037 -0.2295  0.0358 -0.0949
 3334TIP3   OH231416   0.736   1.523  14.071 -0.3951  0.6594  0.2912
 3334TIP3    H131417   0.821   1.531  14.114 -0.0353  0.1990 -0.3245
 3334TIP3    H231418   0.729   1.430  14.049 -1.2927  0.5951  0.8061
 3335TIP3   OH231419   0.245   6.447   3.580  0.3805  0.0869 -0.1954
 3335TIP3    H131420   0.253   6.537   3.549  1.1396 -0.9460 -3.3343
 3335TIP3    H231421   0.288   6.447   3.666  0.9286  2.5526 -0.4197
 3336TIP3   OH231422   5.395   0.044  13.267  0.2737 -0.7737 -0.1798
 3336TIP3    H131423   5.328  -0.015  13.234  0.6855 -0.7921 -1.0070
 3336TIP3    H231424   5.358   0.132  13.256  1.0061 -0.6574 -2.2375
 3337TIP3   OH231425   6.171   5.317   3.644 -0.9059 -0.1239  0.3398
 3337TIP3    H131426   6.219   5.238   3.617 -0.1828 -0.0625  1.3793
 3337TIP3    H231427   6.087   5.284   3.675 -0.9622 -0.3905 -0.0806
 3338TIP3   OH231428   5.828   1.429   4.064 -0.6172 -0.4341  0.1704
 3338TIP3    H131429   5.774   1.414   4.142 -0.0350 -4.5611  0.0302
 3338TIP3    H231430   5.765   1.445   3.994 -1.4514 -1.1545  0.7282
 3339TIP3   OH231431   4.165   5.953   6.035  0.0986 -0.1850  0.0196
 3339TIP3    H131432   4.143   5.981   5.946 -0.9870 -0.4675  0.1945
 3339TIP3    H231433   4.084   5.917   6.070  0.5926 -0.3425  1.0307
 3340TIP3   OH231434   4.944   1.811  14.346 -0.1179  0.0207  0.7549
 3340TIP3    H131435   4.923   1.903  14.335 -0.5531 -0.0193  1.2277
 3340TIP3    H231436   4.872   1.764  14.303  0.4287 -0.1003 -0.0519
 3341TIP3   OH231437   1.937   5.746  11.474  0.0354  0.7334 -0.0552
 3341TIP3    H131438   1.921   5.792  11.391  1.0663 -2.4762 -2.2577
 3341TIP3    H231439   2.032   5.752  11.486  0.5992 -2.4367 -1.6912
 3342TIP3   OH231440   2.833   0.569  15.135 -0.8099  0.2828  0.3626
 3342TIP3    H131441   2.918   0.609  15.155 -0.2846 -0.6596  0.0595
 3342TIP3    H231442   2.775   0.600  15.205 -0.6009  2.0916 -0.2186
 3343TIP3   OH231443   3.239   1.531   5.764 -0.4034  0.0403 -0.2082
 3343TIP3    H131444   3.191   1.507   5.843 -1.1177 -0.3628 -0.7514
 3343TIP3    H231445   3.207   1.618   5.742  1.2938  1.0346  1.0753
 3344TIP3   OH231446   4.119   3.669  12.477  0.0067  0.1534  0.3276
 3344TIP3    H131447   4.075   3.718  12.407 -0.1880 -0.5775 -0.0747
 3344TIP3    H231448   4.065   3.591  12.489  0.1366  0.1843  1.1810
 3345TIP3   OH231449   1.167   2.840  13.888  0.1663 -0.0236 -0.4427
 3345TIP3    H131450   1.128   2.907  13.831 -0.1477 -0.4878 -0.7771
 3345TIP3    H231451   1.212   2.890  13.956 -1.3037  0.5201  0.1601
 3346TIP3   OH231452   1.871   0.705   3.124  0.1401  0.1949 -0.0925
 3346TIP3    H131453   1.926   0.682   3.049 -0.0584  1.1985 -0.5746
 3346TIP3    H231454   1.791   0.740   3.084  0.2072  1.1507  0.5723
 3347TIP3   OH231455   0.213   6.537   5.345 -0.6536 -0.1957 -1.0066
 3347TIP3    H131456   0.176   6.587   5.417 -2.6414 -3.2615  0.2847
 3347TIP3    H231457   0.234   6.603   5.279  0.7240  2.6994  2.0401
 3348TIP3   OH231458   4.443   4.260  17.204  0.2847  0.7489 -0.1531
 3348TIP3    H131459   4.489   4.200  17.262 -0.1649 -0.6176 -1.1740
 3348TIP3    H231460   4.367   4.211  17.173  0.3599  1.5360 -1.6827
 3349TIP3   OH231461   5.366   4.194   0.630 -0.1797 -0.0488  0.5259
 3349TIP3    H131462   5.295   4.197   0.694  0.7404 -1.2820  1.6756
 3349TIP3    H231463   5.440   4.235   0.675 -0.4853  2.6274 -1.2054
 3350TIP3   OH231464   6.142   5.621  12.098 -0.6237 -0.1375 -0.6030
 3350TIP3    H131465   6.066   5.570  12.070  0.0072 -1.4969  0.0911
 3350TIP3    H231466   6.185   5.567  12.164  0.5370  0.9382 -0.4341
 3351TIP3   OH231467   3.912   5.175   5.836  0.0180  0.1866 -0.2765
 3351TIP3    H131468   3.873   5.165   5.923 -1.9662  0.0738 -1.1284
 3351TIP3    H231469   3.903   5.089   5.796  1.2432  0.1444 -0.5011
 3352TIP3   OH231470   2.479   1.211  11.614  0.3757  0.2730  0.1104
 3352TIP3    H131471   2.394   1.233  11.652  1.2984  0.5691  2.1557
 3352TIP3    H231472   2.499   1.284  11.555 -1.8608 -1.0202 -2.4517
 3353TIP3   OH231473   4.422   3.566  12.753  0.3032  0.5388  0.5426
 3353TIP3    H131474   4.442   3.653  12.719  0.3330  1.1704  2.1190
 3353TIP3    H231475   4.471   3.506  12.695 -0.3602  1.4787 -1.0594
 3354TIP3   OH231476   1.736   2.092   1.882  0.0371  0.0294  0.2788
 3354TIP3    H131477   1.723   2.090   1.787  0.4029  0.2135  0.2218
 3354TIP3    H231478   1.648   2.094   1.919 -0.1035  0.2866 -0.0665
 3355TIP3   OH231479   4.165   4.797  11.186  0.5511 -0.2120  0.0613
 3355TIP3    H131480   4.172   4.892  11.194  0.8064 -0.3078  1.3151
 3355TIP3    H231481   4.073   4.781  11.165  0.8971  0.3847 -2.0475
 3356TIP3   OH231482   3.492   3.030   0.808  0.0038 -0.0557  0.2511
 3356TIP3    H131483   3.586   3.022   0.826 -0.1225 -0.1335  0.8706
 3356TIP3    H231484   3.483   3.117   0.769  0.4664 -0.4227 -0.7138
 3357TIP3   OH231485   2.587   4.426   5.102 -0.0854  0.4260  0.0512
 3357TIP3    H131486   2.647   4.471   5.044  1.5346 -0.2135  1.1581
 3357TIP3    H231487   2.594   4.473   5.185  0.8223 -1.1526  0.9121
 3358TIP3   OH231488   0.585   5.637   4.179  0.1653  0.0067  0.0148
 3358TIP3    H131489   0.623   5.704   4.236 -1.2827  0.0750  0.9703
 3358TIP3    H231490   0.505   5.678   4.144  1.1606  0.0799 -2.3553
 3359TIP3   OH231491   0.140   5.380   4.745  0.3271  0.2838 -0.6072
 3359TIP3    H131492   0.105   5.342   4.825  1.9987  0.4078  0.2294
 3359TIP3    H231493   0.073   5.362   4.678 -1.5940  1.0828  0.9977
 3360TIP3   OH231494   1.997   6.095   0.999  0.0127 -0.2060 -0.5405
 3360TIP3    H131495   2.050   6.174   0.996 -0.8859  0.5684  1.9711
 3360TIP3    H231496   2.061   6.024   1.004  0.9316  0.6763  2.0302
 3361TIP3   OH231497   0.911   0.068   0.445 -0.5696 -1.4720 -0.3498
 3361TIP3    H131498   0.866   0.072   0.361 -1.6469 -1.9124  0.1847
 3361TIP3    H231499   1.003   0.086   0.424 -0.7433 -2.0161 -1.6691
 3362TIP3   OH231500   5.009   1.336  14.046  0.4248  0.1287  0.5396
 3362TIP3    H131501   5.065   1.296  13.979 -0.0745  0.0967  0.1348
 3362TIP3    H231502   5.061   1.410  14.079  1.0143 -0.3540  0.7110
 3363TIP3   OH231503   2.644   6.365   1.431 -0.4347 -0.1953 -0.1133
 3363TIP3    H131504   2.549   6.366   1.423 -0.4706 -0.1535  0.2955
 3363TIP3    H231505   2.661   6.397   1.520 -0.0388 -0.1575 -0.2013
 3364TIP3   OH231506   0.951   0.938  16.845  0.1901 -1.1112 -0.7706
 3364TIP3    H131507   0.886   0.997  16.807  2.2401  1.2396 -0.8968
 3364TIP3    H231508   0.964   0.870  16.779 -0.9028 -0.6742 -1.4527
 3365TIP3   OH231509   2.695   1.763   1.005 -0.5712 -0.3571 -0.5204
 3365TIP3    H131510   2.727   1.838   1.056 -0.1427  0.2773 -1.6969
 3365TIP3    H231511   2.639   1.802   0.938 -0.1631 -1.0712 -1.2886
 3366TIP3   OH231512   0.808   2.942   1.115  0.4538  0.3000  0.1949
 3366TIP3    H131513   0.845   3.023   1.151 -1.8833  1.5365  0.0105
 3366TIP3    H231514   0.790   2.888   1.192  1.9925 -0.0857  0.3224
 3367TIP3   OH231515   2.878   6.302   4.662  0.7330 -0.7063 -0.8852
 3367TIP3    H131516   2.843   6.387   4.687 -0.0366 -0.8130 -1.5437
 3367TIP3    H231517   2.862   6.246   4.738  2.6361  0.0790  0.1599
 3368TIP3   OH231518   5.620   4.314   1.301 -0.2880 -0.1292 -0.4882
 3368TIP3    H131519   5.576   4.398   1.315  0.1403  0.2691 -1.4345
 3368TIP3    H231520   5.711   4.329   1.327 -0.3412 -0.4830 -0.0800
 3369TIP3   OH231521   4.087   4.292   2.019  0.1080 -0.3519 -0.5837
 3369TIP3    H131522   4.068   4.290   2.113 -1.1105 -2.6751 -0.8157
 3369TIP3    H231523   4.008   4.328   1.980  0.9387  1.4489 -0.7246
 3370TIP3   OH231524   6.543   2.835   2.606 -0.3157  0.4137 -0.3378
 3370TIP3    H131525   6.573   2.915   2.649 -0.7502  0.1406  0.5039
 3370TIP3    H231526   6.617   2.775   2.612 -0.4630  0.2817  0.3121
 3371TIP3   OH231527   3.044   2.340   6.411 -0.0457  0.5221  0.2876
 3371TIP3    H131528   3.049   2.433   6.430 -0.8735  1.2173 -2.5183
 3371TIP3    H231529   2.954   2.325   6.383 -0.3848 -1.4996  2.2089
 3372TIP3   OH231530   4.825   1.458   3.401 -0.3727 -0.0368 -0.8775
 3372TIP3    H131531   4.745   1.424   3.440 -1.9780  1.0971 -2.9825
 3372TIP3    H231532   4.864   1.513   3.470 -1.9744  0.2590 -0.1734
 3373TIP3   OH231533   0.358   6.600   0.977  0.5246 -0.3549  0.4136
 3373TIP3    H131534   0.295   6.660   1.017  0.7296 -1.6384  2.9155
 3373TIP3    H231535   0.332   6.595   0.885  0.2363  3.1186  0.1599
 3374TIP3   OH231536   6.346   4.296  12.670 -0.5103  0.0721  0.2092
 3374TIP3    H131537   6.401   4.245  12.610  0.1100 -0.0357  0.8659
 3374TIP3    H231538   6.335   4.380  12.626 -2.5343 -0.9733 -1.4649
 3375TIP3   OH231539   3.017   6.523  16.943 -0.0985  0.5504 -0.4800
 3375TIP3    H131540   3.066   6.441  16.932 -1.4699 -0.4711  0.6378
 3375TIP3    H231541   2.955   6.524  16.869 -1.0298 -0.1634  0.2628
 3376TIP3   OH231542   0.078   4.483   5.646  0.0093 -0.3729  1.0454
 3376TIP3    H131543   0.076   4.422   5.720  0.1323 -0.9519  0.5833
 3376TIP3    H231544   0.168   4.515   5.644  0.5089 -1.7707  0.0354
 3377TIP3   OH231545   5.016   6.282   2.825  0.1612 -0.1207  0.4014
 3377TIP3    H131546   5.042   6.222   2.894 -0.0768 -0.3579  0.2860
 3377TIP3    H231547   4.925   6.304   2.844 -0.1306 -0.7512 -0.2359
 3378TIP3   OH231548   4.101   2.597  12.840 -0.6804  0.1604 -0.1413
 3378TIP3    H131549   4.149   2.655  12.898 -1.2128  1.3001 -0.8029
 3378TIP3    H231550   4.121   2.509  12.872  0.3892  0.6809  0.6949
 3379TIP3   OH231551   0.829   0.414  13.735  0.0785  0.2788 -0.4806
 3379TIP3    H131552   0.767   0.406  13.808 -1.3103  0.0078 -1.6481
 3379TIP3    H231553   0.907   0.454  13.774 -0.3825 -0.4465  1.2768
 3380TIP3   OH231554   2.091   3.112  12.862 -0.6367  0.2647  0.2109
 3380TIP3    H131555   2.139   3.194  12.875  1.1925 -0.5933 -0.6883
 3380TIP3    H231556   2.068   3.084  12.950  0.7657  0.6089  0.7200
 3381TIP3   OH231557   0.245   1.754   3.975  0.1482 -0.0462  0.2421
 3381TIP3    H131558   0.177   1.821   3.966 -1.6338 -1.4132  2.5637
 3381TIP3    H231559   0.322   1.801   4.006 -0.3037  1.2420 -0.5122
 3382TIP3   OH231560   2.748   1.336   3.941  0.2236 -0.2849 -0.3700
 3382TIP3    H131561   2.769   1.247   3.970  0.0269 -0.1465  0.2132
 3382TIP3    H231562   2.689   1.323   3.866 -1.2601 -0.6687  0.8046
 3383TIP3   OH231563   2.899   1.657  16.080  0.1359  0.0798  0.1726
 3383TIP3    H131564   2.844   1.671  16.003  0.4453 -0.1509 -0.0992
 3383TIP3    H231565   2.857   1.706  16.150  0.6314  1.4948 -0.4840
 3384TIP3   OH231566   5.417   4.437  13.034  0.2381 -0.6272  0.4428
 3384TIP3    H131567   5.393   4.494  12.962 -1.2303 -3.0612 -1.1571
 3384TIP3    H231568   5.512   4.446  13.041  0.2874  0.4295 -1.1154
 3385TIP3   OH231569   3.295   1.260  16.251  0.0007  0.2952 -0.1090
 3385TIP3    H131570   3.261   1.342  16.216 -2.0400 -0.4936 -0.1501
 3385TIP3    H231571   3.218   1.216  16.288  1.2672 -0.9764  1.1920
 3386TIP3   OH231572   4.165   1.261   1.967 -0.1786 -0.3553 -0.1980
 3386TIP3    H131573   4.157   1.309   2.049 -1.9242 -0.8901 -0.0193
 3386TIP3    H231574   4.224   1.315   1.913  1.6491 -0.3909  1.6440
 3387TIP3   OH231575   2.815   3.604   6.275 -0.3441 -0.3751 -0.0961
 3387TIP3    H131576   2.765   3.568   6.202 -1.7610  0.8571  0.2059
 3387TIP3    H231577   2.763   3.582   6.352  0.4565 -0.5226  0.4157
 3388TIP3   OH231578   4.674   4.314   3.004 -0.2595  0.0722 -0.3181
 3388TIP3    H131579   4.677   4.405   3.034  0.0620 -0.0425  0.0194
 3388TIP3    H231580   4.592   4.280   3.039  0.2175 -0.1270  0.6762
 3389TIP3   OH231581   3.477   1.311  12.544 -0.5551  0.4323 -0.1581
 3389TIP3    H131582   3.521   1.352  12.618  0.3825 -2.4738  1.0454
 3389TIP3    H231583   3.502   1.364  12.468 -2.2032  3.9984  1.5473
 3390TIP3   OH231584   1.456   0.676  13.861  0.0332  0.2467  0.5057
 3390TIP3    H131585   1.395   0.713  13.797  0.6368 -0.0754 -0.2759
 3390TIP3    H231586   1.540   0.717  13.839  0.5043 -0.8227  0.2780
 3391TIP3   OH231587   4.580   5.558  13.757  0.0206 -0.0241  0.0420
 3391TIP3    H131588   4.650   5.603  13.710 -0.7219  0.9863 -0.1311
 3391TIP3    H231589   4.625   5.501  13.819  1.0028  1.3028  0.5939
 3392TIP3   OH231590   2.994   5.311  13.296 -0.1416  0.8767 -0.1634
 3392TIP3    H131591   3.078   5.266  13.290  0.2044  1.6736 -1.9656
 3392TIP3    H231592   2.942   5.274  13.225 -0.4123  2.1555 -0.6512
 3393TIP3   OH231593   0.490   0.124   0.776  0.1140 -0.9928  0.5025
 3393TIP3    H131594   0.445   0.045   0.748 -0.5013 -0.0127 -1.4513
 3393TIP3    H231595   0.460   0.192   0.715  1.4039  0.5255  1.4670
 3394TIP3   OH231596   3.975   0.103   4.437  0.4825  0.1407 -0.7051
 3394TIP3    H131597   3.997   0.025   4.386 -0.9863 -1.3568  0.8450
 3394TIP3    H231598   3.935   0.162   4.373  0.1919 -1.0211 -1.6361
 3395TIP3   OH231599   6.159   1.662   1.824 -0.0423  0.0448 -0.5620
 3395TIP3    H131600   6.080   1.716   1.826 -0.6924 -0.8612 -1.1159
 3395TIP3    H231601   6.192   1.665   1.914  0.4458  2.0594 -0.7526
 3396TIP3   OH231602   6.271   0.884  15.588 -0.2671  0.3139 -0.8210
 3396TIP3    H131603   6.297   0.848  15.672 -0.6386  0.9174 -0.4449
 3396TIP3    H231604   6.353   0.896  15.541 -0.1666 -1.8391 -1.3188
 3397TIP3   OH231605   0.743   2.734  14.931  0.2444  0.1170  0.1573
 3397TIP3    H131606   0.663   2.711  14.979 -0.7133 -0.7381 -1.7230
 3397TIP3    H231607   0.717   2.808  14.877  0.9063  0.1979 -0.0523
 3398TIP3   OH231608   0.960   2.238  13.128 -0.1442 -0.2025  0.5306
 3398TIP3    H131609   0.930   2.164  13.075  0.5323 -0.6008  0.6952
 3398TIP3    H231610   0.910   2.231  13.210  1.0107 -1.3845  1.1603
 3399TIP3   OH231611   4.428   2.462  13.884 -0.2665 -0.4029 -0.2009
 3399TIP3    H131612   4.345   2.454  13.931  0.2555 -1.3302  0.5883
 3399TIP3    H231613   4.480   2.522  13.937  0.5837 -1.9920  0.8393
 3400TIP3   OH231614   1.816   5.802  17.551  0.4347  0.2309 -0.0140
 3400TIP3    H131615   1.729   5.778  17.520  0.3286  0.3237  0.2103
 3400TIP3    H231616   1.870   5.725  17.535 -0.1951 -0.6756  1.9268
 3401TIP3   OH231617   1.045   4.174   4.891  0.3151  0.0826 -0.5783
 3401TIP3    H131618   1.021   4.253   4.843  1.6027  0.6429 -0.3220
 3401TIP3    H231619   0.961   4.135   4.915 -0.3399  1.1164 -1.1114
 3402TIP3   OH231620   0.243   0.919  14.630  0.1451 -0.7287  0.0786
 3402TIP3    H131621   0.272   0.973  14.703 -0.5424 -0.6061  0.2737
 3402TIP3    H231622   0.302   0.844  14.630 -1.0423 -1.7334  2.0123
 3403TIP3   OH231623   3.421   6.638  15.585 -0.0955 -0.7187 -0.3599
 3403TIP3    H131624   3.492   6.682  15.540 -1.1385  0.6452 -0.7483
 3403TIP3    H231625   3.439   6.652  15.678  0.9909 -1.8127 -0.3805
 3404TIP3   OH231626   5.627   0.371  14.954  0.2896  0.4689  0.0482
 3404TIP3    H131627   5.561   0.304  14.937 -0.2575  0.9821  0.1379
 3404TIP3    H231628   5.598   0.447  14.904  2.1143 -0.0444 -1.9453
 3405TIP3   OH231629   6.330   5.850  17.452 -0.1046 -0.4710 -0.0088
 3405TIP3    H131630   6.384   5.917  17.408  0.8194 -0.8790  0.4747
 3405TIP3    H231631   6.379   5.829  17.532 -1.2509 -0.4858  0.7102
 3406TIP3   OH231632   1.054   4.663  11.735 -0.1544 -0.1853 -0.1246
 3406TIP3    H131633   1.096   4.603  11.673 -1.1778  0.0797 -1.1125
 3406TIP3    H231634   1.022   4.735  11.681 -0.5138  0.3779  0.8068
 3407TIP3   OH231635   3.971   6.497  16.567  0.7318 -0.0577 -0.2038
 3407TIP3    H131636   3.880   6.501  16.596  1.0624  0.6940  0.7640
 3407TIP3    H231637   3.969   6.440  16.490 -0.5470 -0.0671 -0.1774
 3408TIP3   OH231638   4.524   0.095   1.629  0.5580 -0.0883 -0.4029
 3408TIP3    H131639   4.560   0.023   1.577  1.3525 -1.9983  2.5533
 3408TIP3    H231640   4.557   0.174   1.587  1.1618 -1.4724 -2.7105
 3409TIP3   OH231641   0.371   6.658   0.301 -0.9983 -0.1066 -0.0176
 3409TIP3    H131642   0.403   6.740   0.266  0.3123  0.6268  2.6234
 3409TIP3    H231643   0.297   6.683   0.357 -1.1231 -0.8069  0.1430
 3410TIP3   OH231644   0.816   3.483   5.618 -0.3377 -0.2833 -0.4471
 3410TIP3    H131645   0.884   3.417   5.604 -1.1876 -1.4590  0.7736
 3410TIP3    H231646   0.860   3.553   5.666  0.4062 -0.2595 -1.1396
 3411TIP3   OH231647   0.718   2.100  12.558 -0.8143  0.5714  0.4796
 3411TIP3    H131648   0.759   2.014  12.556  1.1524  1.4553 -1.0042
 3411TIP3    H231649   0.625   2.083  12.572 -0.3446 -1.7101  1.1450
 3412TIP3   OH231650   6.318   2.433  11.726 -0.0827 -0.7822 -0.7911
 3412TIP3    H131651   6.371   2.401  11.799 -0.6493 -0.5670 -0.2671
 3412TIP3    H231652   6.229   2.438  11.763 -0.4757 -1.1825 -1.6560
 3413TIP3   OH231653   4.005   2.933  15.679  0.4667  0.1002  0.2337
 3413TIP3    H131654   4.003   3.006  15.741  0.8929 -0.3839  0.8288
 3413TIP3    H231655   3.921   2.888  15.692  0.5604 -0.0066  0.4682
 3414TIP3   OH231656   0.950   1.507  13.160 -0.1312  0.2676  0.1711
 3414TIP3    H131657   0.954   1.602  13.165  0.1326  0.2460  0.3931
 3414TIP3    H231658   0.858   1.486  13.176 -0.2682  0.5076 -0.3016
 3415TIP3   OH231659   0.358   4.123  11.512 -0.2483 -0.3845  0.2882
 3415TIP3    H131660   0.402   4.049  11.471  0.5363  0.6963 -0.8994
 3415TIP3    H231661   0.426   4.165  11.565 -0.3129  0.2891 -0.1602
 3416TIP3   OH231662   0.340   5.907   5.662 -0.2178 -0.3514 -0.1813
 3416TIP3    H131663   0.362   5.963   5.588  1.8530 -0.8554 -0.0008
 3416TIP3    H231664   0.367   5.957   5.739 -1.0143 -0.4349  0.1635
 3417TIP3   OH231665   3.820   0.349   1.770 -0.3402  0.0995  0.4164
 3417TIP3    H131666   3.854   0.420   1.825  1.3621 -0.2556 -0.1386
 3417TIP3    H231667   3.759   0.303   1.827 -0.9495  1.5740  1.0120
 3418TIP3   OH231668   5.931   0.006   0.631  0.3652 -0.4092 -0.0046
 3418TIP3    H131669   5.949   0.093   0.668 -1.5587  0.5956 -1.2532
 3418TIP3    H231670   5.840  -0.012   0.655 -0.2521 -0.6687 -2.3208
 3419TIP3   OH231671   6.071   2.322   6.512 -0.0045 -0.1742  0.3284
 3419TIP3    H131672   6.093   2.413   6.533 -3.5405  1.2815 -1.4455
 3419TIP3    H231673   6.027   2.289   6.590 -3.0224  1.4126 -0.5453
 3420TIP3   OH231674   5.738   4.959  14.132 -0.3781  0.9140  0.2620
 3420TIP3    H131675   5.829   4.976  14.108  0.4982 -3.5764 -0.5025
 3420TIP3    H231676   5.692   4.957  14.048 -0.4621  0.0666  0.3172
 3421TIP3   OH231677   3.533   0.454  15.747  0.0585  0.1624 -0.1610
 3421TIP3    H131678   3.582   0.500  15.814  1.2614  0.7197 -1.3787
 3421TIP3    H231679   3.464   0.408  15.795  0.1330  1.5051  1.3032
 3422TIP3   OH231680   1.688   1.251  12.779  0.2358 -0.1296  0.0661
 3422TIP3    H131681   1.682   1.184  12.711  0.4260 -0.7149  0.6160
 3422TIP3    H231682   1.667   1.205  12.860  1.0982  0.3136  0.5541
 3423TIP3   OH231683   1.881   3.207   6.682 -0.0703  0.3360 -0.2889
 3423TIP3    H131684   1.829   3.210   6.601 -2.5043  0.4534  1.1728
 3423TIP3    H231685   1.883   3.114   6.705 -2.6871  0.5670  1.3744
 3424TIP3   OH231686   0.860   3.202   1.204 -0.2941 -0.2723  0.3399
 3424TIP3    H131687   0.919   3.252   1.148 -1.3371 -0.5217 -1.0309
 3424TIP3    H231688   0.899   3.208   1.291  0.2905  1.8422 -0.0164
 3425TIP3   OH231689   0.452   5.608   4.914 -0.4446  0.5673 -0.1957
 3425TIP3    H131690   0.540   5.632   4.884 -0.9078  1.8925 -0.5756
 3425TIP3    H231691   0.393   5.645   4.848 -1.3025  0.0141  0.2473
 3426TIP3   OH231692   2.548   0.519   5.470  0.2294  1.2044 -0.1227
 3426TIP3    H131693   2.624   0.517   5.412  0.4584  1.3110  0.1743
 3426TIP3    H231694   2.505   0.602   5.450 -0.0038  0.9917 -0.5348
 3427TIP3   OH231695   6.052   0.177   2.576  0.1369  0.1198  0.1814
 3427TIP3    H131696   5.999   0.247   2.540  0.1105 -0.4033 -0.8471
 3427TIP3    H231697   6.070   0.120   2.501 -0.1655 -1.1741  1.0520
 3428TIP3   OH231698   0.834   2.422   0.557  0.1632 -0.6885 -0.3489
 3428TIP3    H131699   0.791   2.507   0.568  1.5054  0.3101 -2.2207
 3428TIP3    H231700   0.768   2.367   0.516 -0.7595 -0.6190  0.9868
 3429TIP3   OH231701   3.652   2.984  15.372  0.9105  0.2152 -0.6610
 3429TIP3    H131702   3.591   2.918  15.340  1.9009 -0.7832 -0.5526
 3429TIP3    H231703   3.615   3.068  15.344 -1.0491 -0.2867  0.3094
 3430TIP3   OH231704   0.876   1.938   2.794  0.3655  0.7887 -0.2420
 3430TIP3    H131705   0.883   1.962   2.701  2.1289 -2.5116 -1.1488
 3430TIP3    H231706   0.908   2.015   2.841  0.1663  2.2820 -2.4028
 3431TIP3   OH231707   4.851   0.814   3.483  0.3473 -0.4015  0.8415
 3431TIP3    H131708   4.882   0.840   3.570  1.7807 -1.3039  0.6443
 3431TIP3    H231709   4.786   0.745   3.500  0.7527 -0.7008  1.2014
 3432TIP3   OH231710   0.646   5.679  12.740  0.3282 -0.7330 -0.5526
 3432TIP3    H131711   0.645   5.692  12.835 -1.3064 -0.6832 -0.5527
 3432TIP3    H231712   0.733   5.644  12.722  0.7118 -0.6218  0.9479
 3433TIP3   OH231713   1.954   4.298   2.714  0.1020 -0.4752 -0.2077
 3433TIP3    H131714   1.886   4.246   2.671  0.0945 -0.5735 -0.0788
 3433TIP3    H231715   1.934   4.388   2.691 -0.9063 -0.3711  0.9805
 3434TIP3   OH231716   5.116   1.289   0.926 -0.0223 -0.8054  0.2883
 3434TIP3    H131717   5.058   1.225   0.968 -1.7339  0.4504 -0.0421
 3434TIP3    H231718   5.108   1.368   0.981  1.3082 -0.5596  0.1617
 3435TIP3   OH231719   3.722   6.292  12.799  0.2066 -0.5984  0.3612
 3435TIP3    H131720   3.698   6.205  12.831 -0.1379  0.6511  4.0451
 3435TIP3    H231721   3.640   6.343  12.805  1.1780  0.8841  2.1114
 3436TIP3   OH231722   3.417   2.737  14.500  0.2754  0.2545  0.2625
 3436TIP3    H131723   3.373   2.822  14.492  1.3676  0.8287  0.1414
 3436TIP3    H231724   3.452   2.737  14.589 -1.3820 -0.9217  0.9648
 3437TIP3   OH231725   4.409   4.676   5.021 -0.1976  0.2310 -0.1818
 3437TIP3    H131726   4.441   4.704   5.107  0.6914 -0.1676 -0.3705
 3437TIP3    H231727   4.438   4.585   5.013 -1.0322 -0.0103 -0.5415
 3438TIP3   OH231728   5.181   4.348   2.883  0.2459  0.0150  0.4281
 3438TIP3    H131729   5.181   4.440   2.908  0.3710 -0.4119  2.1232
 3438TIP3    H231730   5.093   4.332   2.850  1.0971  1.4457 -2.9153
 3439TIP3   OH231731   2.719   2.087   0.142 -0.3612  0.1520 -0.3726
 3439TIP3    H131732   2.771   2.021   0.187  0.2812 -0.0107 -1.3144
 3439TIP3    H231733   2.769   2.106   0.063 -0.3468  2.0028  0.0210
 3440TIP3   OH231734   1.546   2.299  16.496  0.5198 -0.5068  0.1774
 3440TIP3    H131735   1.487   2.370  16.517  1.9144  0.7499  0.0364
 3440TIP3    H231736   1.492   2.220  16.498 -1.2100  0.6304 -0.3614
 3441TIP3   OH231737   5.894   4.597  17.111 -0.0167 -0.2441  0.3129
 3441TIP3    H131738   5.882   4.663  17.180  1.1441  0.0553  0.2564
 3441TIP3    H231739   5.843   4.630  17.037  0.4620  0.5652  0.3198
 3442TIP3   OH231740   1.472   6.238   6.180 -0.0201  0.3492  0.0377
 3442TIP3    H131741   1.441   6.319   6.221 -0.7964 -0.4277  1.0306
 3442TIP3    H231742   1.565   6.236   6.200  0.1850  1.3896 -0.7023
 3443TIP3   OH231743   2.545   0.194  14.349  0.4015  0.2313 -0.4767
 3443TIP3    H131744   2.538   0.262  14.417  1.2959  0.8822 -1.0158
 3443TIP3    H231745   2.522   0.113  14.395  0.5856  0.7128  0.5060
 3444TIP3   OH231746   5.734   3.904  17.193 -0.5344 -0.2175  0.3392
 3444TIP3    H131747   5.800   3.964  17.159 -0.2667 -0.4129  0.5123
 3444TIP3    H231748   5.697   3.862  17.115 -1.0002  0.4580  0.1915
 3445TIP3   OH231749   2.393   0.152   2.668  0.0716 -0.1313 -0.4976
 3445TIP3    H131750   2.373   0.225   2.609  1.0057  0.8109  0.2996
 3445TIP3    H231751   2.487   0.141   2.661  0.1908 -0.0640  0.7120
 3446TIP3   OH231752   4.974   6.437  14.205  0.0544 -0.0767 -0.6149
 3446TIP3    H131753   5.044   6.464  14.265  1.3974 -0.9280 -1.7173
 3446TIP3    H231754   4.965   6.343  14.220  0.1723 -0.2392 -1.4886
 3447TIP3   OH231755   4.699   5.509   5.512 -0.0135 -0.2701  0.1626
 3447TIP3    H131756   4.723   5.560   5.589 -0.7488  0.2368  0.0698
 3447TIP3    H231757   4.771   5.522   5.451 -0.1264  0.5666  0.1930
 3448TIP3   OH231758   3.074   4.373   3.206  0.1302 -0.0546 -0.3477
 3448TIP3    H131759   3.160   4.392   3.168  1.2017 -2.5188  0.6309
 3448TIP3    H231760   3.068   4.431   3.281  0.3109  1.1226 -1.2194
 3449TIP3   OH231761   1.608   2.125   3.410  0.5514 -0.4937 -0.0177
 3449TIP3    H131762   1.689   2.149   3.453  1.4937  0.1921 -2.0625
 3449TIP3    H231763   1.614   2.030   3.399  2.4127 -0.2044 -2.4959
 3450TIP3   OH231764   4.028   6.221  15.379 -0.7929 -0.0118  0.3980
 3450TIP3    H131765   3.966   6.153  15.408  0.1482 -1.0928 -0.0302
 3450TIP3    H231766   4.113   6.178  15.383 -0.0994  1.3295  0.5991
 3451TIP3   OH231767   1.433   3.986   6.125  0.2875 -0.0705 -0.2501
 3451TIP3    H131768   1.499   4.022   6.183 -0.6490 -0.3156  1.0083
 3451TIP3    H231769   1.465   3.898   6.104 -0.2593 -0.7118  1.4526
 3452TIP3   OH231770   5.862   5.357  15.684 -0.2634 -0.2919  0.1228
 3452TIP3    H131771   5.772   5.387  15.680 -0.9543 -2.0690  1.0611
 3452TIP3    H231772   5.876   5.336  15.776  1.3408  0.5619  0.1078
 3453TIP3   OH231773   6.558   0.817  12.468  0.2165 -0.3693 -0.0654
 3453TIP3    H131774   6.501   0.753  12.510  0.2132 -1.9658 -2.3285
 3453TIP3    H231775   6.512   0.900  12.476 -0.2053 -0.7705  2.1588
 3454TIP3   OH231776   3.847   2.382  17.264  0.2332  0.1857 -0.3682
 3454TIP3    H131777   3.918   2.350  17.208  0.4515  0.4407 -0.2382
 3454TIP3    H231778   3.882   2.462  17.303  0.8369 -0.9539  1.5920
 3455TIP3   OH231779   2.597   0.774   1.057  0.1822 -0.1514  0.5326
 3455TIP3    H131780   2.598   0.683   1.087 -1.3033 -1.0894 -1.9867
 3455TIP3    H231781   2.550   0.821   1.126 -1.0383 -1.7424  0.8516
 3456TIP3   OH231782   5.886   4.896  13.854 -0.6278 -0.1300  0.1604
 3456TIP3    H131783   5.802   4.930  13.824  0.3127  1.5642 -0.6561
 3456TIP3    H231784   5.865   4.808  13.888 -2.5224 -0.1969 -1.0331
 3457TIP3   OH231785   6.555   5.150   5.480 -0.0857  0.3058 -0.1986
 3457TIP3    H131786   6.600   5.202   5.413  0.0557  1.1061  0.4914
 3457TIP3    H231787   6.619   5.144   5.552 -0.5105  0.1011  0.1649
 3458TIP3   OH231788   4.965   2.616   0.408 -0.0438  0.0757 -0.2374
 3458TIP3    H131789   4.960   2.607   0.313 -1.7148 -1.1720 -0.0699
 3458TIP3    H231790   5.043   2.671   0.423  1.1004 -0.8990 -2.2265
 3459TIP3   OH231791   0.113   0.629   4.566  0.3628 -0.2060  0.2991
 3459TIP3    H131792   0.119   0.534   4.580 -0.8286 -0.3242  0.1373
 3459TIP3    H231793   0.073   0.662   4.646 -2.8010 -0.3789 -1.0467
 3460TIP3   OH231794   5.467   4.658   1.994  0.1657  0.2846 -0.1854
 3460TIP3    H131795   5.495   4.641   2.084 -1.4456 -0.0067  0.2789
 3460TIP3    H231796   5.501   4.584   1.944  0.9451  0.3752  0.1914
 3461TIP3   OH231797   1.299   0.899   2.634  0.7090 -0.4095 -0.5192
 3461TIP3    H131798   1.325   0.913   2.725  1.3065  0.0446 -0.7609
 3461TIP3    H231799   1.364   0.838   2.599  0.3613 -0.7476 -0.5866
 3462TIP3   OH231800   2.147   0.607   4.046  0.0171 -0.3009  0.0732
 3462TIP3    H131801   2.211   0.678   4.038  0.3142 -0.6821 -1.3021
 3462TIP3    H231802   2.081   0.627   3.979 -1.2172 -0.0250  1.3359
 3463TIP3   OH231803   2.822   2.960   4.024 -0.2451 -0.0318 -0.5549
 3463TIP3    H131804   2.841   3.044   3.983  0.7611 -1.4110 -3.0799
 3463TIP3    H231805   2.741   2.931   3.983  0.2129 -0.9569 -0.8330
 3464TIP3   OH231806   3.676   5.634   0.763 -0.5951  0.0936 -0.5772
 3464TIP3    H131807   3.650   5.724   0.742 -0.9529  0.1284  0.0166
 3464TIP3    H231808   3.616   5.579   0.712 -0.1202  0.1814 -1.2559
 3465TIP3   OH231809   2.253   3.256  17.093  0.2147  0.2988  0.2274
 3465TIP3    H131810   2.277   3.175  17.138 -2.0795  0.0493  1.1147
 3465TIP3    H231811   2.272   3.239  17.001  0.7335 -0.8597  0.5367
 3466TIP3   OH231812   3.589   3.485   6.758  0.4636  0.1672 -0.2819
 3466TIP3    H131813   3.569   3.474   6.850 -0.1565 -0.3925 -0.4762
 3466TIP3    H231814   3.671   3.437   6.745 -0.0815 -0.7947 -0.2661
 3467TIP3   OH231815   2.971   2.027   0.743  0.3760  0.2925  0.2578
 3467TIP3    H131816   2.880   2.055   0.750  0.9695  2.2489  0.6651
 3467TIP3    H231817   2.993   2.038   0.651  0.1796 -0.2720  0.1416
 3468TIP3   OH231818   2.331   5.199  16.647 -0.1025 -0.7297 -0.2063
 3468TIP3    H131819   2.408   5.145  16.628 -0.0559 -0.9088  0.4805
 3468TIP3    H231820   2.353   5.245  16.728 -0.4866 -0.3334 -0.3231
 3469TIP3   OH231821   3.404   6.494   0.823  0.0149  0.2746 -0.1258
 3469TIP3    H131822   3.488   6.454   0.847 -1.2074 -1.8568  0.8270
 3469TIP3    H231823   3.338   6.444   0.872 -1.6720  3.6235  1.4049
 3470TIP3   OH231824   6.656   0.019   6.094  0.2113 -0.1270 -0.0786
 3470TIP3    H131825   6.600   0.003   6.018  0.0539  0.6283 -0.1233
 3470TIP3    H231826   6.604   0.076   6.151  0.8560  0.4212 -0.0281
 3471TIP3   OH231827   5.388   0.506   2.632 -0.2208 -0.3664  0.4240
 3471TIP3    H131828   5.371   0.460   2.550  2.1509 -0.6794  0.0355
 3471TIP3    H231829   5.411   0.436   2.693 -0.3751  0.0094  0.9127
 3472TIP3   OH231830   2.912   2.887   5.855 -0.2007  1.4601  0.3670
 3472TIP3    H131831   2.920   2.979   5.880 -1.2543  2.0482 -1.2574
 3472TIP3    H231832   2.835   2.885   5.798 -0.0127 -0.3870  0.1183
 3473TIP3   OH231833   3.445   0.439  12.610  0.4469 -0.0404  0.1489
 3473TIP3    H131834   3.538   0.444  12.589  0.5481 -0.6079  0.4518
 3473TIP3    H231835   3.402   0.486  12.538  0.9961  0.6459  0.2642
 3474TIP3   OH231836   2.776   0.313  17.003 -0.4683  0.1845  0.2192
 3474TIP3    H131837   2.858   0.362  16.992  0.3122 -1.1011  0.1010
 3474TIP3    H231838   2.709   0.369  16.963  0.2790  1.4336  0.6641
 3475TIP3   OH231839   2.851   4.892  15.678 -0.0760  0.3032  0.6541
 3475TIP3    H131840   2.920   4.825  15.684 -0.1411  0.2433  0.7520
 3475TIP3    H231841   2.840   4.907  15.584 -0.0953  0.1399  0.6298
 3476TIP3   OH231842   1.933   5.106   3.927  0.0053  0.1604  0.6517
 3476TIP3    H131843   1.855   5.111   3.872  2.2958  0.5520 -2.8560
 3476TIP3    H231844   1.899   5.111   4.017 -3.8456  2.0107 -0.6716
 3477TIP3   OH231845   3.089   0.997   1.027 -0.4343  0.5051 -0.1036
 3477TIP3    H131846   3.020   0.935   1.054 -0.9175  0.8666 -0.4988
 3477TIP3    H231847   3.066   1.078   1.073 -0.4223  0.7005 -0.4454
 3478TIP3   OH231848   2.502   2.398   3.231  0.2155 -0.2245 -0.1434
 3478TIP3    H131849   2.553   2.337   3.179  0.1735 -1.2092  0.9466
 3478TIP3    H231850   2.560   2.424   3.302  0.3431  1.2676 -0.7526
 3479TIP3   OH231851   0.459   5.929  10.621 -0.4422  0.5483 -0.5741
 3479TIP3    H131852   0.548   5.922  10.586 -0.4477 -0.5239 -0.4251
 3479TIP3    H231853   0.422   6.007  10.580  1.2515  2.2131  0.8929
 3480TIP3   OH231854   3.717   3.643  15.667 -0.3817  0.1210 -0.3267
 3480TIP3    H131855   3.750   3.694  15.593  0.9148 -1.0842 -0.6231
 3480TIP3    H231856   3.794   3.632  15.724 -0.8340 -0.8231  0.1163
 3481TIP3   OH231857   4.744   5.004   0.192  0.0890 -0.0401  0.1618
 3481TIP3    H131858   4.672   4.942   0.178 -0.0297  0.0556  0.3495
 3481TIP3    H231859   4.744   5.021   0.286  0.4495 -0.1472  0.1828
 3482TIP3   OH231860   5.437   0.745   3.915 -0.5907  0.3457  0.1297
 3482TIP3    H131861   5.443   0.651   3.929 -0.4579  0.4056  0.5163
 3482TIP3    H231862   5.501   0.782   3.976  0.6989  0.5880 -1.3143
 3483TIP3   OH231863   0.070   0.984  15.414  0.3246  0.1147 -0.0281
 3483TIP3    H131864   0.016   0.997  15.335  0.5411 -1.3995 -0.4568
 3483TIP3    H231865   0.154   0.953  15.380  1.2027  1.5738  0.6936
 3484TIP3   OH231866   6.282   6.708  14.060 -0.0280 -0.0358  0.8510
 3484TIP3    H131867   6.364   6.691  14.105  0.3977  0.4872  0.2842
 3484TIP3    H231868   6.305   6.714  13.968 -0.8757 -1.0097  0.5580
 3485TIP3   OH231869   1.104   4.456   3.850 -0.3677 -0.4936 -0.1356
 3485TIP3    H131870   1.067   4.494   3.929 -0.2645 -0.9725  0.1457
 3485TIP3    H231871   1.045   4.385   3.827 -0.6508 -0.0767 -0.7564
 3486TIP3   OH231872   5.148   5.266   5.587  0.1369 -0.0131  0.6144
 3486TIP3    H131873   5.151   5.274   5.491  0.0875 -0.8457  0.5304
 3486TIP3    H231874   5.219   5.205   5.608  0.1514  0.1733  1.1107
 3487TIP3   OH231875   3.073   1.603   1.757  0.3532  1.0741 -0.0319
 3487TIP3    H131876   3.151   1.641   1.717  1.5903 -0.5900  0.6832
 3487TIP3    H231877   3.033   1.550   1.688  0.3484  1.2325 -0.1501
 3488TIP3   OH231878   2.733   0.571   5.295  0.2293  0.6906 -0.3081
 3488TIP3    H131879   2.819   0.557   5.336  0.3748  0.5173 -0.6686
 3488TIP3    H231880   2.735   0.517   5.215 -0.4382  0.2066 -0.0142
 3489TIP3   OH231881   0.713   4.934  16.498 -0.1245  0.1767  0.3356
 3489TIP3    H131882   0.633   4.935  16.551  0.2124  1.4001  0.8779
 3489TIP3    H231883   0.738   4.842  16.493 -2.1087 -0.3541 -0.7198
 3490TIP3   OH231884   6.518   2.965   5.410  0.5523  0.0764 -0.1939
 3490TIP3    H131885   6.561   3.017   5.343 -0.6116  1.6654  0.2258
 3490TIP3    H231886   6.469   3.029   5.462 -0.3586 -1.3676  0.8020
 3491TIP3   OH231887   4.286   0.658  15.953  0.1093 -0.0509  0.3250
 3491TIP3    H131888   4.356   0.634  16.014 -0.3692  0.8169  1.2396
 3491TIP3    H231889   4.331   0.704  15.882  0.8449 -2.2098 -0.6999
 3492TIP3   OH231890   5.673   3.587  15.170 -0.0855 -0.4373 -0.0238
 3492TIP3    H131891   5.766   3.584  15.189  0.2308 -0.7787 -1.4654
 3492TIP3    H231892   5.668   3.619  15.080 -1.2911 -1.5052 -0.3728
 3493TIP3   OH231893   6.285   2.690   6.700 -0.2132  0.1496 -0.0991
 3493TIP3    H131894   6.360   2.690   6.760  0.2090 -1.0586 -0.5973
 3493TIP3    H231895   6.229   2.761   6.731  1.5692  1.6999 -0.2456
 3494TIP3   OH231896   1.373   2.042  14.008 -0.1114 -0.0601  0.3470
 3494TIP3    H131897   1.305   1.989  14.049 -1.7755  0.3112 -1.7513
 3494TIP3    H231898   1.334   2.129  14.000  1.0222  0.4480  0.0635
 3495TIP3   OH231899   4.312   1.752  11.444  0.4900 -0.2056  0.2581
 3495TIP3    H131900   4.388   1.743  11.386  2.0590 -0.7561  2.2350
 3495TIP3    H231901   4.251   1.808  11.396  2.2954  0.5453 -1.3127
 3496TIP3   OH231902   4.501   5.721   3.849 -0.0158 -0.5479  0.0268
 3496TIP3    H131903   4.490   5.628   3.868  0.7513 -0.5543  0.4933
 3496TIP3    H231904   4.493   5.765   3.934  1.6478 -0.4043  0.1514
 3497TIP3   OH231905   5.405   5.785  17.508 -0.0857 -0.7776  0.0693
 3497TIP3    H131906   5.464   5.719  17.471 -0.9404 -1.5025 -0.0362
 3497TIP3    H231907   5.398   5.852  17.440  1.9609  0.2112  0.7552
 3498TIP3   OH231908   4.557   5.860  16.645 -0.1362 -0.2651  0.4627
 3498TIP3    H131909   4.541   5.776  16.689  1.2692 -0.6649  0.2562
 3498TIP3    H231910   4.621   5.904  16.701 -0.0052  0.1823 -0.0373
 3499TIP3   OH231911   5.058   4.423  15.006  0.5441 -0.1377  0.3969
 3499TIP3    H131912   5.121   4.483  14.966 -1.4186  2.3247  0.6663
 3499TIP3    H231913   5.031   4.365  14.935  1.5075  0.2023 -0.2648
 3500TIP3   OH231914   4.372   0.618   4.646 -0.2358 -0.1456  0.0815
 3500TIP3    H131915   4.405   0.703   4.675  0.8740 -0.5345 -0.0186
 3500TIP3    H231916   4.324   0.584   4.722 -1.6520  1.0341 -0.2394
 3501TIP3   OH231917   4.790   5.379   6.665 -0.9003  0.1294  0.0854
 3501TIP3    H131918   4.870   5.368   6.613 -0.4946 -1.1754  0.9250
 3501TIP3    H231919   4.818   5.430   6.741 -0.6487 -1.0157  0.7862
 3502TIP3   OH231920   0.092   5.396  17.180 -0.4662 -0.1650 -0.0140
 3502TIP3    H131921   0.058   5.413  17.092 -0.6990 -0.2216  0.0613
 3502TIP3    H231922   0.019   5.420  17.238 -1.0645 -2.0781  0.0817
 3503TIP3   OH231923   5.521   5.548   5.473 -0.7942 -0.5286 -0.1474
 3503TIP3    H131924   5.428   5.560   5.454 -0.2778  0.7700 -2.2743
 3503TIP3    H231925   5.555   5.637   5.484  0.5705 -0.8120 -1.6554
 3504TIP3   OH231926   2.221   3.321  12.954 -0.3043  0.2604  0.4772
 3504TIP3    H131927   2.168   3.367  13.019 -1.2500 -0.6894  0.4116
 3504TIP3    H231928   2.300   3.294  13.001  0.3008  1.9470  0.4980
 3505TIP3   OH231929   1.741   0.950  14.607 -0.7449  0.2360  0.1758
 3505TIP3    H131930   1.767   0.942  14.516 -0.4344  1.6953  0.1049
 3505TIP3    H231931   1.823   0.964  14.654 -1.0228  0.8571  0.4877
 3506TIP3   OH231932   6.033   1.593   3.392  0.0721 -0.1281 -0.4911
 3506TIP3    H131933   6.120   1.632   3.384  0.8596 -1.8914 -1.1902
 3506TIP3    H231934   6.015   1.594   3.486  0.9567  0.0606 -0.3157
 3507TIP3   OH231935   5.566   1.943  16.478  0.4004  0.0683 -0.1924
 3507TIP3    H131936   5.540   2.034  16.493  0.2175  0.0527 -0.4039
 3507TIP3    H231937   5.484   1.894  16.478  0.5298 -0.1675  0.3688
 3508TIP3   OH231938   1.427   3.515   4.082  0.2804 -1.5943 -0.0974
 3508TIP3    H131939   1.356   3.485   4.138  0.0862  1.2378  1.3566
 3508TIP3    H231940   1.389   3.521   3.995 -2.3427  2.4548  1.0572
 3509TIP3   OH231941   6.324   4.190   5.268 -0.1981  0.0490 -0.1247
 3509TIP3    H131942   6.275   4.272   5.275 -0.8755 -0.1800 -1.6214
 3509TIP3    H231943   6.400   4.212   5.214  0.3662 -0.0199  0.6243
 3510TIP3   OH231944   6.124   0.792   1.455  0.3399  0.1573  0.1568
 3510TIP3    H131945   6.212   0.829   1.457  0.7601 -0.8282  2.1423
 3510TIP3    H231946   6.104   0.784   1.361  1.3198  2.6740 -0.3617
 3511TIP3   OH231947   1.746   4.427  15.981  0.3511 -0.5507 -0.2634
 3511TIP3    H131948   1.677   4.404  16.042  0.3574 -1.1190 -0.4626
 3511TIP3    H231949   1.804   4.486  16.030  0.8932 -1.7677  0.5976
 3512TIP3   OH231950   1.166   3.311  14.394  0.0675  0.1125 -0.1991
 3512TIP3    H131951   1.088   3.339  14.442  0.6570 -0.0419  0.8871
 3512TIP3    H231952   1.240   3.345  14.445  0.7910 -2.3340  0.5652
 3513TIP3   OH231953   5.472   1.624   3.780  0.2119 -0.2645  0.1331
 3513TIP3    H131954   5.401   1.665   3.830  1.2901  0.5398  1.0795
 3513TIP3    H231955   5.434   1.607   3.694 -1.4036 -0.7587  0.9068
 3514TIP3   OH231956   0.344   2.100   5.886  0.7887  0.1779  0.5970
 3514TIP3    H131957   0.364   2.134   5.798  0.1178 -3.8963 -1.3904
 3514TIP3    H231958   0.426   2.063   5.916  0.6007 -0.0209  0.8659
 3515TIP3   OH231959   6.703   2.161   3.720 -0.5140 -0.2152  0.0038
 3515TIP3    H131960   6.743   2.148   3.634  1.3465 -1.6250  0.9945
 3515TIP3    H231961   6.650   2.082   3.734 -0.5392 -0.1497  0.2938
 3516TIP3   OH231962   4.926   5.224  12.812  0.0211 -0.4986 -0.1637
 3516TIP3    H131963   4.831   5.214  12.821 -0.1079  0.5277 -0.2970
 3516TIP3    H231964   4.944   5.199  12.721  0.1194 -2.2400  0.2891
 3517TIP3   OH231965   4.586   2.031  13.442 -0.4412  0.0602  0.6337
 3517TIP3    H131966   4.559   1.939  13.436 -1.5192  0.3030  1.4428
 3517TIP3    H231967   4.562   2.057  13.531  1.7758  0.5512  1.1366
 3518TIP3   OH231968   4.000   3.417   1.953  0.8005 -0.0207  0.2084
 3518TIP3    H131969   3.954   3.372   2.024  2.5480 -0.1079  1.3689
 3518TIP3    H231970   4.033   3.497   1.994  1.7922 -0.0420 -0.5091
 3519TIP3   OH231971   2.395   4.856  16.749 -0.4404 -0.4094 -0.1281
 3519TIP3    H131972   2.305   4.863  16.781 -0.1554  2.1138  0.3397
 3519TIP3    H231973   2.386   4.837  16.656 -1.5611  1.7354 -0.5184
 3520TIP3   OH231974   0.687   0.989   5.771 -0.1223 -0.2778 -0.1045
 3520TIP3    H131975   0.606   0.956   5.732 -0.6940  0.8078  0.1286
 3520TIP3    H231976   0.741   0.911   5.784 -1.8112 -1.2822  1.3863
 3521TIP3   OH231977   3.045   5.473  12.616  0.2450 -0.1807 -0.1023
 3521TIP3    H131978   3.108   5.539  12.644  0.3693 -0.7443  0.9604
 3521TIP3    H231979   2.962   5.521  12.610  0.8704  0.7653 -2.3264
 3522TIP3   OH231980   4.383   4.954  11.936 -0.1738  0.1773  0.0063
 3522TIP3    H131981   4.345   4.868  11.921 -1.0426  0.5826 -0.1695
 3522TIP3    H231982   4.381   4.965  12.032  1.4544 -0.6518  0.1776
 3523TIP3   OH231983   0.957   1.318   5.012 -0.0250 -0.6335 -0.1325
 3523TIP3    H131984   1.017   1.271   4.954  1.8970  0.0071  1.2467
 3523TIP3    H231985   0.966   1.410   4.985 -0.6018 -0.5569 -0.0796
 3524TIP3   OH231986   4.611   2.507   4.432 -0.0115  0.8354 -0.4995
 3524TIP3    H131987   4.681   2.482   4.491 -1.2368 -2.2434 -0.1552
 3524TIP3    H231988   4.650   2.502   4.345  0.6956  1.1989 -0.2127
 3525TIP3   OH231989   4.546   3.533  17.367  1.4199  0.5015  0.1487
 3525TIP3    H131990   4.583   3.593  17.431  0.4874  1.2894 -0.0225
 3525TIP3    H231991   4.559   3.577  17.283 -1.4307  1.7151  0.2163
 3526TIP3   OH231992   6.345   5.989  15.236  0.6899 -0.8561  0.0210
 3526TIP3    H131993   6.328   5.975  15.329 -0.9654 -1.1719 -0.3010
 3526TIP3    H231994   6.271   6.042  15.205  2.5817  1.6596 -0.5606
 3527TIP3   OH231995   6.672   4.702   4.363  0.5678 -0.1184 -0.1561
 3527TIP3    H131996   6.619   4.687   4.285  2.2225 -0.9998 -1.1854
 3527TIP3    H231997   6.703   4.792   4.354  1.6531 -0.5615 -1.1419
 3528TIP3   OH231998   2.670   2.746   5.050  0.2671  0.6605  0.4407
 3528TIP3    H131999   2.720   2.782   4.977  2.4653 -1.2397  0.9173
 3528TIP3    H232000   2.636   2.663   5.017  0.2282  0.3802  1.1775
 3529TIP3   OH232001   0.030   5.815   0.654 -0.1039 -0.9887 -0.1546
 3529TIP3    H132002   0.118   5.843   0.678 -1.5532  1.8024  2.5592
 3529TIP3    H232003   0.035   5.803   0.559  2.8600  0.3814 -0.3100
 3530TIP3   OH232004   0.855   1.375  16.883  0.2189  0.3616 -0.0808
 3530TIP3    H132005   0.945   1.341  16.879 -0.3954 -1.2727 -2.4467
 3530TIP3    H232006   0.858   1.456  16.833  0.6624  1.1648  1.2084
 3531TIP3   OH232007   5.758   3.279  13.134 -0.1884  0.0642  0.1971
 3531TIP3    H132008   5.680   3.264  13.080 -0.8016  1.1273  0.7465
 3531TIP3    H232009   5.781   3.370  13.117  0.7887 -0.1607  0.2583
 3532TIP3   OH232010   2.406   5.602   1.418  0.0186  0.1993 -0.1348
 3532TIP3    H132011   2.469   5.656   1.466  0.9080 -0.4604 -0.5546
 3532TIP3    H232012   2.459   5.538   1.372 -1.0780 -1.7683  1.2041
 3533TIP3   OH232013   1.056   0.007   6.256 -0.0912  0.7080 -0.3139
 3533TIP3    H132014   1.007  -0.028   6.330  0.7032  1.4153  0.5856
 3533TIP3    H232015   1.147   0.009   6.287  0.4142  0.0502 -1.6919
 3534TIP3   OH232016   5.814   5.038   0.035  0.2330  0.0727 -0.2953
 3534TIP3    H132017   5.886   5.100   0.045  0.4628 -0.1393 -0.5714
 3534TIP3    H232018   5.855   4.961  -0.007 -0.3578  0.3539 -1.4365
 3535TIP3   OH232019   1.470   1.200   2.994  0.1161  0.0434  0.8576
 3535TIP3    H132020   1.485   1.207   3.089 -1.0197  0.0358  1.0555
 3535TIP3    H232021   1.411   1.273   2.974  0.3485  0.0412  0.1503
 3536TIP3   OH232022   4.933   5.955  15.349  0.2120  0.6520  0.3411
 3536TIP3    H132023   5.010   5.993  15.390 -0.0540 -0.4896  1.9667
 3536TIP3    H232024   4.865   5.957  15.417  0.1650 -2.6162  0.5756
 3537TIP3   OH232025   2.063   6.054  11.909  0.0791 -0.9396  0.0067
 3537TIP3    H132026   2.128   6.090  11.970  0.1075 -0.0204 -0.5439
 3537TIP3    H232027   2.109   6.050  11.825 -0.6723  0.1052 -0.4802
 3538TIP3   OH232028   3.781   5.751   2.359 -0.1227 -0.2766 -0.1589
 3538TIP3    H132029   3.849   5.683   2.365 -1.2245 -1.4352 -0.5215
 3538TIP3    H232030   3.710   5.719   2.414  0.3309  1.8627  1.8458
 3539TIP3   OH232031   1.573   3.960   0.633  0.1210  0.1595  0.2976
 3539TIP3    H132032   1.537   3.872   0.646  0.0498 -0.2184 -2.1459
 3539TIP3    H232033   1.515   4.001   0.569  0.1990  1.9968  1.3258
 3540TIP3   OH232034   0.602   4.903  13.540 -0.5051  0.2843  0.0245
 3540TIP3    H132035   0.648   4.825  13.510  0.1713 -0.2985  2.3531
 3540TIP3    H232036   0.551   4.873  13.616  0.3947  2.2002  1.4822
 3541TIP3   OH232037   3.948   3.878   4.515 -0.6217 -0.3796 -0.4878
 3541TIP3    H132038   3.973   3.946   4.451  1.2154  0.2044  0.7752
 3541TIP3    H232039   3.890   3.924   4.576  0.6018  0.0801  0.3533
 3542TIP3   OH232040   5.506   1.025  16.908 -0.5782 -0.1793  0.5998
 3542TIP3    H132041   5.584   1.072  16.937 -0.1126 -1.0789  0.8658
 3542TIP3    H232042   5.447   1.027  16.983 -0.1774 -0.7982  0.9497
 3543TIP3   OH232043   6.678   5.533   0.651  0.1331 -0.5142 -0.5670
 3543TIP3    H132044   6.662   5.514   0.744 -0.0953 -1.7555 -0.8390
 3543TIP3    H232045   6.694   5.627   0.648  1.9449 -0.7228  0.9891
 3544TIP3   OH232046   0.451   5.760  10.845 -0.2437  0.4102  0.0343
 3544TIP3    H132047   0.505   5.690  10.809 -0.0377  0.6705 -0.1686
 3544TIP3    H232048   0.428   5.814  10.770 -2.6269 -0.8808 -0.2880
 3545TIP3   OH232049   6.242   3.690  14.766  0.5717 -0.5228  0.1944
 3545TIP3    H132050   6.222   3.637  14.689  1.6377  1.2963 -1.4124
 3545TIP3    H232051   6.165   3.746  14.778  0.9018  0.0671 -0.3563
 3546TIP3   OH232052   3.730   0.186   2.263 -0.3901  0.2002 -0.0962
 3546TIP3    H132053   3.673   0.252   2.224 -0.7118 -0.4514 -0.7368
 3546TIP3    H232054   3.680   0.105   2.259 -0.2754  0.0273  1.3041
 3547TIP3   OH232055   6.660   5.596   3.875  0.5788 -0.1516 -0.1456
 3547TIP3    H132056   6.628   5.511   3.845 -0.2926 -0.4445  1.5184
 3547TIP3    H232057   6.752   5.598   3.847  0.2506 -1.0535 -1.3732
 3548TIP3   OH232058   0.502   3.839   0.525  0.0975  0.0852  0.0743
 3548TIP3    H132059   0.593   3.813   0.543  0.3528  0.7361 -0.2422
 3548TIP3    H232060   0.457   3.827   0.609  0.4422 -0.3890  0.1928
 3549TIP3   OH232061   0.718   1.962  16.217 -0.5445  0.2283  0.0999
 3549TIP3    H132062   0.713   2.026  16.288  2.4326  0.7099  0.0047
 3549TIP3    H232063   0.751   1.883  16.259  1.1272  0.4836 -0.6811
 3550TIP3   OH232064   2.124   5.620  11.225  0.3767  0.0664  0.1659
 3550TIP3    H132065   2.168   5.692  11.270 -1.3959  0.6620  1.0138
 3550TIP3    H232066   2.115   5.650  11.135  1.4134  0.0480  0.0395
 3551TIP3   OH232067   4.077   4.571  17.051  0.3438 -0.4635 -0.0964
 3551TIP3    H132068   4.137   4.633  17.010 -0.6397  1.3056  0.9935
 3551TIP3    H232069   4.133   4.508  17.095  1.5034  1.6449  1.6577
 3552TIP3   OH232070   5.520   3.434   0.335  0.0207 -0.6329  0.3188
 3552TIP3    H132071   5.580   3.455   0.406 -1.0769  1.8510  0.6237
 3552TIP3    H232072   5.463   3.366   0.370 -0.6154  0.6693  1.9619
 3553TIP3   OH232073   1.439   2.508   5.031  0.6137 -0.5416 -0.0880
 3553TIP3    H132074   1.410   2.575   4.969 -1.1275 -0.7803  0.4173
 3553TIP3    H232075   1.468   2.436   4.976  1.6714  0.2588 -0.6260
 3554TIP3   OH232076   4.611   6.263  15.556  0.7340 -0.2238 -0.3279
 3554TIP3    H132077   4.540   6.264  15.621  1.0307 -0.1792  0.0004
 3554TIP3    H232078   4.615   6.353  15.524 -0.4778 -0.5877 -1.5947
 3555TIP3   OH232079   0.126   4.578  14.286 -0.1745 -0.3272 -0.0482
 3555TIP3    H132080   0.133   4.616  14.374  0.0923 -0.6667  0.0835
 3555TIP3    H232081   0.056   4.513  14.294  0.6021 -1.1602  0.2234
 3556TIP3   OH232082   1.210   2.462  17.057  0.7627 -0.2007 -0.5640
 3556TIP3    H132083   1.157   2.509  17.121  0.3368 -0.3017 -0.8349
 3556TIP3    H232084   1.154   2.391  17.028  0.7026  0.2230 -1.5234
 3557TIP3   OH232085   3.633   5.465  13.487 -0.3002  0.1135 -0.1474
 3557TIP3    H132086   3.713   5.418  13.464  0.3605  1.6702 -1.2258
 3557TIP3    H232087   3.579   5.400  13.533  1.9414 -0.7305  1.4764
 3558TIP3   OH232088   5.314   4.056  12.767  0.1356  0.3871 -0.2492
 3558TIP3    H132089   5.355   3.991  12.825  2.3008  2.5153  0.8032
 3558TIP3    H232090   5.272   4.118  12.826  1.1019  1.7950 -0.9796
 3559TIP3   OH232091   5.627   5.933  13.346  0.3343  0.0405  0.1470
 3559TIP3    H132092   5.649   5.859  13.290 -0.0973 -1.6558  2.0822
 3559TIP3    H232093   5.539   5.958  13.319 -0.2117 -1.3184  0.5794
 3560TIP3   OH232094   1.344   0.861  12.878  0.4820 -0.1565  0.8484
 3560TIP3    H132095   1.280   0.800  12.914 -0.3474 -0.4958 -1.1051
 3560TIP3    H232096   1.422   0.807  12.863 -0.2459 -0.7820 -0.8687
 3561TIP3   OH232097   0.245   0.563   1.218  0.1820  0.0974 -0.7642
 3561TIP3    H132098   0.316   0.500   1.232  1.0657  1.3459  0.7209
 3561TIP3    H232099   0.259   0.597   1.130  1.3738  0.2514 -0.5260
 3562TIP3   OH232100   1.034   2.933   4.316 -0.1705 -0.4976 -0.1806
 3562TIP3    H132101   1.012   3.021   4.286 -1.1925 -0.4004  0.7880
 3562TIP3    H232102   0.961   2.878   4.287  0.0239 -0.8551  0.0020
 3563TIP3   OH232103   2.530   2.502   0.078 -0.2266  0.4994  0.4785
 3563TIP3    H132104   2.597   2.442   0.109 -0.8831 -0.8735 -0.6470
 3563TIP3    H232105   2.578   2.569   0.029  0.3228 -0.8871 -0.9842
 3564TIP3   OH232106   3.579   0.446   2.104 -0.1180  0.2320 -0.4180
 3564TIP3    H132107   3.601   0.539   2.095 -1.2339  0.5109 -0.3824
 3564TIP3    H232108   3.500   0.446   2.159 -1.6119 -0.5639 -2.4537
 3565TIP3   OH232109   2.806   1.690  12.434  0.1892 -0.2608  0.2908
 3565TIP3    H132110   2.769   1.604  12.451 -0.0500 -0.1900  0.1362
 3565TIP3    H232111   2.816   1.693  12.339 -2.8252  1.0846 -0.1053
 3566TIP3   OH232112   4.299   3.150  16.323 -0.4551  0.3805 -0.1153
 3566TIP3    H132113   4.309   3.240  16.292  0.4404  0.3614  0.1092
 3566TIP3    H232114   4.234   3.157  16.393 -0.6580  0.7961 -0.3378
 3567TIP3   OH232115   0.919   6.090  14.117  0.3589  0.0362 -0.6960
 3567TIP3    H132116   0.927   6.007  14.070  0.1470  1.1871 -2.9008
 3567TIP3    H232117   1.005   6.105  14.157  1.1132 -0.1751 -2.1900
 3568TIP3   OH232118   3.897   5.674   1.068  0.0377 -0.0684  0.4068
 3568TIP3    H132119   3.968   5.700   1.010  0.6720 -1.0908  0.7132
 3568TIP3    H232120   3.868   5.589   1.035 -0.4880 -0.0429  0.7847
 3569TIP3   OH232121   5.959   2.387  13.473  1.0246  0.1071 -0.3146
 3569TIP3    H132122   5.920   2.302  13.450  2.2068 -0.2141 -1.2336
 3569TIP3    H232123   5.895   2.427  13.532  0.1538 -1.1567 -0.3475
 3570TIP3   OH232124   3.054   2.913   1.905  0.3580 -0.1055  0.1756
 3570TIP3    H132125   3.120   2.855   1.945 -0.1781  1.2599  3.3154
 3570TIP3    H232126   3.024   2.865   1.827  0.7000 -3.5695  1.9832
 3571TIP3   OH232127   3.884   1.973  16.739  0.5358 -0.0061  0.0579
 3571TIP3    H132128   3.923   1.939  16.819  2.0734 -0.3092 -0.7618
 3571TIP3    H232129   3.819   2.037  16.768 -1.0035 -2.1432  1.5838
 3572TIP3   OH232130   5.706   2.284  12.875 -0.4382 -0.3310  0.2535
 3572TIP3    H132131   5.652   2.291  12.796  1.2399  1.3680 -0.8159
 3572TIP3    H232132   5.780   2.231  12.849 -0.1898 -0.2896  0.8734
 3573TIP3   OH232133   3.675   4.586  13.636 -0.6289 -0.0072 -0.3042
 3573TIP3    H132134   3.629   4.669  13.629  0.6008  0.8212  0.8674
 3573TIP3    H232135   3.607   4.519  13.630 -2.1271  1.1558  2.1781
 3574TIP3   OH232136   4.898   1.628   3.627 -0.4180  0.1764 -0.4733
 3574TIP3    H132137   4.911   1.693   3.558 -0.5141 -0.6506 -1.2882
 3574TIP3    H232138   4.980   1.631   3.677 -0.0736  0.3022 -1.0321
 3575TIP3   OH232139   3.685   2.557  15.091 -0.2617 -0.1332  0.2613
 3575TIP3    H132140   3.716   2.569  15.001  0.0940 -1.2429  0.2188
 3575TIP3    H232141   3.747   2.606  15.144  0.2844 -0.5288 -0.0011
 3576TIP3   OH232142   1.191   2.072   4.553  0.2141 -0.3328 -0.8518
 3576TIP3    H132143   1.182   2.150   4.609 -0.0112  0.8946 -2.5315
 3576TIP3    H232144   1.206   2.000   4.615  2.3907  1.3123  0.6894
 3577TIP3   OH232145   3.695   6.101   1.883 -0.2152 -0.2476 -0.0007
 3577TIP3    H132146   3.739   6.155   1.949 -1.3519  1.0232 -0.2517
 3577TIP3    H232147   3.617   6.068   1.926 -0.1635 -0.6906 -0.2373
 3578TIP3   OH232148   0.181   3.225   7.020  0.1759 -0.4609  0.3730
 3578TIP3    H132149   0.201   3.300   7.075 -0.2669 -0.3069  0.3270
 3578TIP3    H232150   0.251   3.224   6.954  0.2706 -0.1854  0.4699
 3579TIP3   OH232151   3.410   3.765   2.093  0.0861 -0.5547  0.1617
 3579TIP3    H132152   3.482   3.721   2.046 -0.4163 -0.0704 -1.1144
 3579TIP3    H232153   3.332   3.737   2.046 -0.4458 -0.0973  0.7730
 3580TIP3   OH232154   6.599   3.792  16.433  0.6646  0.3609  0.0022
 3580TIP3    H132155   6.638   3.784  16.520 -1.8150  1.1341  1.2737
 3580TIP3    H232156   6.526   3.731  16.433 -0.2944  1.4416 -0.9642
 3581TIP3   OH232157   6.275   5.962   1.129  0.4202  0.1384  0.4543
 3581TIP3    H132158   6.294   5.958   1.223 -1.1120  0.4938  0.8009
 3581TIP3    H232159   6.240   5.875   1.108  1.6730 -0.2684 -0.0158
 3582TIP3   OH232160   6.071   5.480   6.350  0.3086  0.3888  0.0822
 3582TIP3    H132161   6.005   5.542   6.321 -0.8093 -0.9599 -0.3357
 3582TIP3    H232162   6.037   5.444   6.432  2.2018  2.2244  1.7911
 3583TIP3   OH232163   6.657   1.658   0.029  0.2003  0.6428 -0.3573
 3583TIP3    H132164   6.719   1.605   0.080  1.6184  2.5924  0.0994
 3583TIP3    H232165   6.619   1.718   0.094 -0.5356  0.9076 -1.0213
 3584TIP3   OH232166   5.343   4.583  17.460  0.1275  0.1767 -0.4981
 3584TIP3    H132167   5.353   4.678  17.459 -3.3122  0.6701 -1.5030
 3584TIP3    H232168   5.339   4.560  17.553 -0.7650  1.3168 -0.2264
 3585TIP3   OH232169   1.714   1.102  17.284  0.3387  0.2562  0.0051
 3585TIP3    H132170   1.771   1.177  17.301  0.4887 -0.0019  0.6679
 3585TIP3    H232171   1.761   1.027  17.321  0.1981 -0.1684 -0.6654
 3586TIP3   OH232172   1.911   6.442   4.415  0.3379 -0.8028  0.6199
 3586TIP3    H132173   1.939   6.351   4.424 -1.4102 -1.3025  1.4054
 3586TIP3    H232174   1.950   6.486   4.491  0.2955 -1.1232  0.8290
 3587TIP3   OH232175   3.881   2.100  11.218 -0.2643 -0.3410  0.4463
 3587TIP3    H132176   3.835   2.052  11.149 -0.1009  0.6168 -0.3498
 3587TIP3    H232177   3.971   2.107  11.187 -0.4202  1.0003  0.2574
 3588TIP3   OH232178   4.703   3.195   2.040  0.2596  0.1423 -0.0392
 3588TIP3    H132179   4.631   3.256   2.055  0.4296 -0.0842  2.0945
 3588TIP3    H232180   4.703   3.180   1.946 -1.7219  1.0615 -0.2401
 3589TIP3   OH232181   0.164   3.842   0.973 -0.5981 -0.2758 -0.9286
 3589TIP3    H132182   0.193   3.787   0.900  0.2726  1.1145 -1.6856
 3589TIP3    H232183   0.186   3.931   0.946  1.2966  0.1762  1.7131
 3590TIP3   OH232184   2.962   1.349  11.486  0.5917  0.0783 -0.0419
 3590TIP3    H132185   3.005   1.427  11.520  0.6045  0.4691 -0.9134
 3590TIP3    H232186   3.029   1.281  11.490  0.6233  0.1450  0.5948
 3591TIP3   OH232187   0.860   0.100   0.180  0.4784  0.6536 -0.6916
 3591TIP3    H132188   0.902   0.054   0.107  0.3401 -0.5915 -0.0191
 3591TIP3    H232189   0.816   0.174   0.139  1.0037  0.3915 -1.7760
 3592TIP3   OH232190   0.667   6.590   0.833 -0.2547  0.0011  0.3570
 3592TIP3    H132191   0.622   6.674   0.841  0.0904  0.0304  2.6576
 3592TIP3    H232192   0.743   6.597   0.892 -0.7516 -2.2343  1.3806
 3593TIP3   OH232193   6.292   0.156  11.989 -0.0431 -0.3551  0.4230
 3593TIP3    H132194   6.370   0.209  12.007  1.6357 -2.3129 -0.6215
 3593TIP3    H232195   6.242   0.208  11.926  0.1401  1.1391  1.4565
 3594TIP3   OH232196   1.811   5.760  10.870  0.4018 -0.2964  0.0625
 3594TIP3    H132197   1.891   5.723  10.906 -0.4498 -3.1893 -0.7763
 3594TIP3    H232198   1.830   5.774  10.778  0.3601  0.3676  0.1470
 3595TIP3   OH232199   5.552   6.292   3.030  0.1501  0.1102  0.2311
 3595TIP3    H132200   5.537   6.379   2.993  1.8137  0.6347  0.7102
 3595TIP3    H232201   5.617   6.307   3.099  1.7447 -1.7367 -0.7835
 3596TIP3   OH232202   4.756   3.922  15.197  0.0793  0.1979  0.2459
 3596TIP3    H132203   4.827   3.858  15.199 -1.4034 -1.5132 -0.0326
 3596TIP3    H232204   4.741   3.938  15.103  1.0469  1.6996  0.3154
 3597TIP3   OH232205   6.693   4.423  15.967 -0.1186  0.6868 -0.2271
 3597TIP3    H132206   6.715   4.352  15.907 -0.2103 -1.3797  2.0061
 3597TIP3    H232207   6.626   4.385  16.024  0.0077  2.5056  1.2124
 3598TIP3   OH232208   2.839   1.749  14.563 -0.3276 -0.1082 -0.2462
 3598TIP3    H132209   2.816   1.662  14.530  0.7211 -0.7964  0.7372
 3598TIP3    H232210   2.932   1.758  14.543  0.2644 -0.4013  2.0631
 3599TIP3   OH232211   1.786   5.147  12.044 -0.0443  0.0883  0.8942
 3599TIP3    H132212   1.810   5.055  12.032 -1.3993 -0.1530 -0.2894
 3599TIP3    H232213   1.868   5.191  12.067  0.9599 -1.1178 -0.2439
 3600TIP3   OH232214   4.514   3.484   5.429  0.2332  0.4581 -0.2202
 3600TIP3    H132215   4.551   3.525   5.507 -0.0637  0.3240 -0.0070
 3600TIP3    H232216   4.421   3.474   5.449 -0.2196  2.0769 -1.2832
 3601TIP3   OH232217   5.605   6.102  12.036 -0.1828 -0.5195  0.5950
 3601TIP3    H132218   5.532   6.163  12.027 -0.0327 -0.1975  1.4423
 3601TIP3    H232219   5.568   6.017  12.011 -0.2826 -0.0397 -1.0019
 3602TIP3   OH232220   0.856   2.852  14.272 -0.2752  0.5654 -0.2258
 3602TIP3    H132221   0.875   2.765  14.237  1.9493  0.1708  1.7081
 3602TIP3    H232222   0.814   2.898  14.200 -1.1033 -1.9415 -1.4651
 3603TIP3   OH232223   2.716   6.157  15.957 -0.0714 -0.2199 -0.3327
 3603TIP3    H132224   2.745   6.066  15.945  0.0699 -0.0778 -1.0614
 3603TIP3    H232225   2.621   6.152  15.948 -0.0741 -0.3076 -0.2658
 3604TIP3   OH232226   3.802   2.221  12.250  0.2576  0.3252  0.3955
 3604TIP3    H132227   3.894   2.239  12.268  0.8876 -1.5107 -0.7241
 3604TIP3    H232228   3.772   2.173  12.327 -0.0323  1.6809  1.1493
 3605TIP3   OH232229   1.015   0.814   2.791 -0.8580 -0.5560 -0.0603
 3605TIP3    H132230   1.001   0.848   2.702  1.9699  1.2155  0.0242
 3605TIP3    H232231   0.945   0.853   2.843  0.8540  3.5856 -0.4483
 3606TIP3   OH232232   1.716   0.196  11.419 -0.1271  0.7705  0.2313
 3606TIP3    H132233   1.672   0.278  11.398  0.3243  0.8397 -0.4762
 3606TIP3    H232234   1.738   0.158  11.334 -0.0412  0.0769  0.5564
 3607TIP3   OH232235   3.046   0.715   0.668  0.1398  0.3248  0.6697
 3607TIP3    H132236   3.010   0.709   0.579  0.9533  1.0314  0.2807
 3607TIP3    H232237   3.078   0.805   0.675  0.7510  0.0613  1.4232
 3608TIP3   OH232238   2.619   1.552  17.198 -0.4165 -0.2034  0.2014
 3608TIP3    H132239   2.670   1.535  17.119 -0.5831 -1.3229  0.3185
 3608TIP3    H232240   2.669   1.511  17.269 -0.9786 -0.4620  0.4617
 3609TIP3   OH232241   4.074   6.396   4.096  0.3458 -1.2507 -0.6455
 3609TIP3    H132242   4.052   6.399   4.003 -0.7545 -1.0211 -0.3884
 3609TIP3    H232243   4.075   6.303   4.118 -1.0633 -1.2507 -0.5164
 3610TIP3   OH232244   0.149   4.544  12.732 -0.3746  0.1990 -0.5277
 3610TIP3    H132245   0.054   4.546  12.742 -0.3436 -0.8748  0.1352
 3610TIP3    H232246   0.182   4.522  12.819  0.5375  1.2911 -0.5757
 3611TIP3   OH232247   0.152   5.922   3.742 -0.0938 -0.2906  0.3820
 3611TIP3    H132248   0.235   5.969   3.738 -0.4503  0.3080 -0.4986
 3611TIP3    H232249   0.173   5.833   3.713  0.1891 -0.0476 -0.1830
 3612TIP3   OH232250   3.820   5.493  11.192  0.5242  0.1002  0.2824
 3612TIP3    H132251   3.884   5.505  11.263 -0.0478  0.2175  0.7835
 3612TIP3    H232252   3.759   5.428  11.225  1.0515 -0.9044 -0.6640
 3613TIP3   OH232253   3.428   6.100   4.912 -0.1551 -0.4921  0.2810
 3613TIP3    H132254   3.423   6.004   4.910  0.9290 -0.5679 -1.6477
 3613TIP3    H232255   3.518   6.119   4.938 -0.2765 -0.0012  0.3552
 3614TIP3   OH232256   5.739   2.851   0.310 -0.3773  0.7913  0.0843
 3614TIP3    H132257   5.740   2.755   0.310  1.2343  0.7782  0.6250
 3614TIP3    H232258   5.659   2.874   0.357 -0.7600 -0.2783 -0.0096
 3615TIP3   OH232259   3.334   4.313   1.170  0.5519  0.1357  0.0772
 3615TIP3    H132260   3.380   4.376   1.225  0.3902 -0.2888  0.7179
 3615TIP3    H232261   3.378   4.318   1.085  2.2360 -0.7025  0.8343
 3616TIP3   OH232262   3.184   4.023  14.716  0.2147 -0.1894  0.3414
 3616TIP3    H132263   3.155   4.106  14.753 -0.8094  0.1310 -1.0960
 3616TIP3    H232264   3.231   4.047  14.636 -0.4581 -0.9908 -0.3152
 3617TIP3   OH232265   1.688   6.244   0.807 -0.0261 -0.4201  0.1887
 3617TIP3    H132266   1.760   6.287   0.854  0.3237 -0.4467 -0.3165
 3617TIP3    H232267   1.662   6.172   0.864  1.6066 -1.5898 -0.4507
 3618TIP3   OH232268   3.893   6.066  12.597 -0.3837 -0.1291  0.3889
 3618TIP3    H132269   3.981   6.084  12.566 -0.5449 -0.4418 -0.2881
 3618TIP3    H232270   3.901   6.057  12.692  0.3415 -0.3504  0.3099
 3619TIP3   OH232271   3.604   3.843  11.424 -0.3908 -0.6905 -0.0852
 3619TIP3    H132272   3.695   3.819  11.405 -0.5113 -0.8276 -0.5203
 3619TIP3    H232273   3.563   3.846  11.338 -0.8596 -0.8758  0.1325
 3620TIP3   OH232274   4.972   2.024  13.230  0.1263 -0.1684 -0.4301
 3620TIP3    H132275   4.905   2.092  13.236 -0.4181 -0.7523  0.3928
 3620TIP3    H232276   5.052   2.067  13.260 -0.0520  0.3167 -0.6379
 3621TIP3   OH232277   6.477   2.647   6.205  0.3106 -0.2375  0.8336
 3621TIP3    H132278   6.436   2.600   6.132 -0.4888  0.1583  1.0206
 3621TIP3    H232279   6.563   2.606   6.214  2.4529  2.6143 -3.2724
 3622TIP3   OH232280   3.203   1.245  14.754  0.4083  0.2549  0.0024
 3622TIP3    H132281   3.164   1.332  14.755  1.1808  0.6492 -1.8602
 3622TIP3    H232282   3.297   1.259  14.745  0.7842 -0.7639  1.6589
 3623TIP3   OH232283   1.530   4.480   1.593  0.2347 -0.4675  0.7299
 3623TIP3    H132284   1.436   4.469   1.607  0.1614 -0.5313  0.2306
 3623TIP3    H232285   1.551   4.420   1.522  0.1585  1.3358 -0.9092
 3624TIP3   OH232286   5.558   5.635  14.364  0.4262 -0.3737  0.1601
 3624TIP3    H132287   5.611   5.581  14.304  0.1672  1.5130 -1.8948
 3624TIP3    H232288   5.508   5.571  14.415  0.5376 -2.1314 -1.7659
 3625TIP3   OH232289   6.404   5.751   4.050 -0.2248  0.9573 -0.3523
 3625TIP3    H132290   6.383   5.668   4.091  0.6262  0.5967 -0.6219
 3625TIP3    H232291   6.349   5.815   4.095 -0.4422  0.3393  0.2676
 3626TIP3   OH232292   1.507   2.374  14.142  0.5494  0.0035 -0.1697
 3626TIP3    H132293   1.542   2.429  14.212  0.6699  1.6942 -1.5032
 3626TIP3    H232294   1.441   2.320  14.185  1.4547  0.1177  1.4711
 3627TIP3   OH232295   5.358   4.318   4.521 -0.0894  0.3991  0.0292
 3627TIP3    H132296   5.329   4.285   4.436 -1.3166  0.9139  0.2120
 3627TIP3    H232297   5.445   4.280   4.534 -1.4359 -2.9343  0.3232
 3628TIP3   OH232298   3.258   6.480   5.695 -0.4131 -0.2285  0.3327
 3628TIP3    H132299   3.310   6.484   5.615  0.6646  2.1723  1.0449
 3628TIP3    H232300   3.282   6.397   5.736 -1.6124 -1.9010 -2.1535
 3629TIP3   OH232301   4.692   5.180   3.939 -0.2199  0.0223 -0.0917
 3629TIP3    H132302   4.748   5.103   3.953  1.5187  1.2997  0.2860
 3629TIP3    H232303   4.745   5.238   3.884 -0.6258  1.8303  1.3349
 3630TIP3   OH232304   3.671   3.754  13.068 -0.4992 -0.0461  0.1564
 3630TIP3    H132305   3.691   3.716  12.982 -0.3313  1.0283 -0.3000
 3630TIP3    H232306   3.754   3.750  13.115 -0.3659  0.1969 -0.0590
 3631TIP3   OH232307   0.885   0.560   0.647 -0.3783 -0.8032  0.0277
 3631TIP3    H132308   0.920   0.568   0.558  2.4066 -0.1366  1.0753
 3631TIP3    H232309   0.882   0.465   0.662  1.0927 -0.9127 -0.1469
 3632TIP3   OH232310   5.764   1.012   0.040 -0.7671 -0.4747 -0.1799
 3632TIP3    H132311   5.856   0.996   0.061 -0.9902 -0.7572  0.6322
 3632TIP3    H232312   5.766   1.058  -0.043  0.1678  0.6474  0.4360
 3633TIP3   OH232313   3.908   4.720   0.094  0.2050  0.0996  0.2172
 3633TIP3    H132314   3.843   4.778   0.134 -1.4340 -1.1038 -0.5684
 3633TIP3    H232315   3.973   4.706   0.163  0.5050  2.5824  0.5188
 3634TIP3   OH232316   3.924   6.579   0.807  0.6291  0.3329 -0.1110
 3634TIP3    H132317   3.847   6.558   0.755  0.6851  1.6102 -0.7384
 3634TIP3    H232318   3.988   6.610   0.744  0.0736  3.7246  0.8110
 3635TIP3   OH232319   5.157   2.160  13.375 -0.2591 -0.2179  0.0349
 3635TIP3    H132320   5.106   2.227  13.330 -0.6905 -1.6251 -1.6863
 3635TIP3    H232321   5.161   2.189  13.466  0.6022  2.7273 -0.8421
 3636TIP3   OH232322   6.493   4.943   4.264 -0.0167  0.7532  0.2143
 3636TIP3    H132323   6.436   4.883   4.312  1.0289 -0.2748  0.2008
 3636TIP3    H232324   6.454   4.948   4.177 -2.0039  2.7384  1.1256
 3637TIP3   OH232325   6.450   1.652  15.198 -0.8372 -0.0793  0.5893
 3637TIP3    H132326   6.401   1.627  15.120 -1.0324  1.1724  0.2955
 3637TIP3    H232327   6.539   1.620  15.182 -0.5601  1.2314 -0.7131
 3638TIP3   OH232328   1.340   2.718   1.789 -0.1023 -0.7361 -0.1803
 3638TIP3    H132329   1.349   2.697   1.882 -0.2935  0.3191  0.0849
 3638TIP3    H232330   1.420   2.765   1.767 -0.4455 -0.2067 -0.3228
 3639TIP3   OH232331   5.170   0.574  16.295 -0.6052  0.3221 -0.1854
 3639TIP3    H132332   5.120   0.621  16.228 -1.4078 -2.3352 -1.5993
 3639TIP3    H232333   5.107   0.517  16.337  0.6657 -1.0144 -0.0062
 3640TIP3   OH232334   6.669   1.997  10.924 -0.1398 -0.0725 -0.5158
 3640TIP3    H132335   6.608   1.925  10.938 -0.8819  0.8281  1.3452
 3640TIP3    H232336   6.754   1.956  10.912 -0.7216 -1.2781 -0.5946
 3641TIP3   OH232337   2.497   5.234   4.372  0.2223  0.6001 -0.1451
 3641TIP3    H132338   2.583   5.248   4.412  0.5415 -1.1005 -0.1356
 3641TIP3    H232339   2.509   5.258   4.280  1.5107 -1.9761 -0.7640
 3642TIP3   OH232340   2.903   2.725  14.054 -0.4943 -0.5673 -0.3414
 3642TIP3    H132341   2.949   2.658  14.005  0.0211 -0.9776  0.6798
 3642TIP3    H232342   2.920   2.704  14.146  0.6532  1.6243  0.0150
 3643TIP3   OH232343   5.499   0.133   1.064  0.0672  0.3328  0.8950
 3643TIP3    H132344   5.439   0.196   1.026  0.2256  0.7428  1.3131
 3643TIP3    H232345   5.550   0.183   1.128  3.2461  0.8218 -1.7604
 3644TIP3   OH232346   4.630   5.266  17.314  0.2163 -0.0336  0.5606
 3644TIP3    H132347   4.654   5.358  17.316  0.2170  0.1038 -2.2314
 3644TIP3    H232348   4.562   5.260  17.247  0.5040 -2.1168  0.3800
 3645TIP3   OH232349   2.751   3.849   1.896  0.1806 -0.5771  0.1022
 3645TIP3    H132350   2.734   3.923   1.954 -1.6105 -0.1850 -0.8508
 3645TIP3    H232351   2.665   3.808   1.884  1.1018 -2.8548  0.6116
 3646TIP3   OH232352   4.239   3.216  12.367 -0.3154 -0.3603 -0.5129
 3646TIP3    H132353   4.189   3.229  12.447 -0.7091 -1.7363 -0.5109
 3646TIP3    H232354   4.189   3.150  12.318  1.5976 -2.0197 -0.3715
 3647TIP3   OH232355   3.872   3.560   2.491 -0.1855  0.1288 -0.1925
 3647TIP3    H132356   3.793   3.581   2.542  0.5196  0.3523  0.8409
 3647TIP3    H232357   3.920   3.499   2.546 -0.1552 -0.8945 -1.3135
 3648TIP3   OH232358   4.835   4.689  14.915  0.5022 -0.0471  0.1451
 3648TIP3    H132359   4.754   4.654  14.953 -0.0252 -0.4128 -1.2599
 3648TIP3    H232360   4.905   4.646  14.964 -0.1397  0.0653  1.2005
 3649TIP3   OH232361   4.763   4.485  13.690  0.2876 -0.1464  0.2226
 3649TIP3    H132362   4.751   4.576  13.664  0.6932 -0.0574  0.3320
 3649TIP3    H232363   4.748   4.434  13.611 -0.0706  0.0067  0.1925
 3650TIP3   OH232364   0.059   3.849   6.240 -0.0079 -0.0455  0.5247
 3650TIP3    H132365   0.017   3.925   6.280  1.1267  0.8942  0.0013
 3650TIP3    H232366   0.040   3.777   6.300 -3.0618  0.0904 -0.1070
 3651TIP3   OH232367   0.474   2.278  14.133 -0.5144 -0.4595 -0.3602
 3651TIP3    H132368   0.506   2.242  14.050  2.3403  0.7957  0.0702
 3651TIP3    H232369   0.403   2.337  14.108 -0.4987 -1.0112 -1.7774
 3652TIP3   OH232370   1.483   0.258  17.501  0.3080  0.0031 -0.5128
 3652TIP3    H132371   1.517   0.170  17.512 -0.8568 -0.4319 -0.1608
 3652TIP3    H232372   1.547   0.303  17.446  1.4679 -0.7208  0.2137
 3653TIP3   OH232373   2.757   6.382  11.325 -0.1046  0.6035  0.6610
 3653TIP3    H132374   2.751   6.289  11.343 -1.0559  0.2857 -1.0853
 3653TIP3    H232375   2.846   6.395  11.292  0.3826  0.5338  1.9023
 3654TIP3   OH232376   3.697   4.924  13.592 -0.0197  0.7709 -0.0028
 3654TIP3    H132377   3.771   4.890  13.642  0.1315 -0.3963 -0.9596
 3654TIP3    H232378   3.731   5.002  13.548  0.9046 -0.1916 -1.0534
 3655TIP3   OH232379   2.844   3.606   2.004  0.3748 -0.1254  0.4794
 3655TIP3    H132380   2.856   3.694   1.968 -1.1963 -0.4004 -0.8444
 3655TIP3    H232381   2.893   3.549   1.945  0.2299 -0.2776  0.5058
 3656TIP3   OH232382   4.245   5.289   3.512 -0.2205  0.0485 -0.4265
 3656TIP3    H132383   4.298   5.347   3.457 -0.4688  0.5362 -0.1643
 3656TIP3    H232384   4.237   5.208   3.462  1.2323 -0.2317 -0.2305
 3657TIP3   OH232385   6.146   1.114  15.823  0.4266  0.1055 -0.8300
 3657TIP3    H132386   6.094   1.116  15.903  2.5737  0.3685  0.6407
 3657TIP3    H232387   6.081   1.110  15.752 -1.5476  0.3154  0.8750
 3658TIP3   OH232388   4.846   4.523   5.460 -0.8129  0.2938 -0.1679
 3658TIP3    H132389   4.825   4.600   5.513 -1.0299  0.3007 -0.2614
 3658TIP3    H232390   4.889   4.558   5.383  0.3066  0.2188  0.4025
 3659TIP3   OH232391   4.696   6.349   1.387 -0.1029  0.3109  0.0895
 3659TIP3    H132392   4.780   6.361   1.344 -0.5449  0.4861 -0.7389
 3659TIP3    H232393   4.647   6.429   1.366 -0.5939  0.0649  0.2953
 3660TIP3   OH232394   6.546   1.315   3.443  0.0952  0.3714 -0.3396
 3660TIP3    H132395   6.636   1.327   3.413  0.7113 -0.4715  1.0575
 3660TIP3    H232396   6.550   1.330   3.538 -1.0018 -0.7727 -0.0863
 3661TIP3   OH232397   4.824   2.707   6.392  0.1612 -0.0971  0.4214
 3661TIP3    H132398   4.755   2.641   6.404  0.5815 -0.3331  1.8555
 3661TIP3    H232399   4.865   2.684   6.309 -0.0771 -1.3206  0.6152
 3662TIP3   OH232400   2.949   6.100  15.151 -0.1487  0.2031  0.4427
 3662TIP3    H132401   2.872   6.080  15.204 -0.2737  0.6838  0.4486
 3662TIP3    H232402   3.014   6.034  15.178 -0.8361 -0.7679 -0.1997
 3663TIP3   OH232403   5.977   0.101  12.464  0.2442  0.2252  0.2337
 3663TIP3    H132404   5.992   0.122  12.556 -0.4853  1.0077  0.1859
 3663TIP3    H232405   6.064   0.081  12.430  0.6153  0.6457  0.9128
 3664TIP3   OH232406   4.695   5.339   4.840 -0.0714 -0.5157 -0.6658
 3664TIP3    H132407   4.775   5.381   4.807  0.1448  0.3617  0.8684
 3664TIP3    H232408   4.700   5.350   4.935 -1.3963 -1.6073 -0.4427
 3665TIP3   OH232409   4.234   4.915  15.644  0.1300 -0.0962  0.3753
 3665TIP3    H132410   4.310   4.938  15.591  0.6738 -1.3932  0.5513
 3665TIP3    H232411   4.250   4.955  15.729 -0.8267  2.1450 -0.4042
 3666TIP3   OH232412   4.567   5.210  13.115 -0.0689  0.4451  0.6495
 3666TIP3    H132413   4.553   5.245  13.203 -1.7073  1.0915  0.1575
 3666TIP3    H232414   4.492   5.240  13.065 -0.6550 -2.2755 -0.2633
 3667TIP3   OH232415   1.129   3.947   1.199  0.0704 -0.5536 -0.5878
 3667TIP3    H132416   1.070   3.887   1.152  1.5338 -1.8687 -0.8118
 3667TIP3    H232417   1.135   3.911   1.288  0.3432 -0.2768 -0.4898
 3668TIP3   OH232418   2.127   3.210   1.679 -0.3501  0.3402  0.1645
 3668TIP3    H132419   2.060   3.243   1.738 -1.3184 -2.3554  0.7148
 3668TIP3    H232420   2.201   3.187   1.736 -0.7877 -1.0464  0.2052
 3669TIP3   OH232421   4.627   2.501   2.124  0.0323  0.0598 -0.4938
 3669TIP3    H132422   4.644   2.570   2.059 -0.7700  1.8389  1.0869
 3669TIP3    H232423   4.563   2.540   2.184  1.2381 -1.2261  1.7616
 3670TIP3   OH232424   0.288   6.301  10.984  0.1422 -0.1343  0.2108
 3670TIP3    H132425   0.381   6.283  10.990  0.1740  0.0319  0.2359
 3670TIP3    H232426   0.259   6.254  10.906 -0.3652 -2.6725  1.8297
 3671TIP3   OH232427   3.993   4.086   0.915 -0.1472 -0.0386 -0.9543
 3671TIP3    H132428   3.994   4.102   1.009  3.4235  0.2119 -0.8899
 3671TIP3    H232429   3.963   4.168   0.877  0.4133  0.5934 -0.0668
 3672TIP3   OH232430   0.823   4.861   3.998 -0.0228 -0.5768 -0.1597
 3672TIP3    H132431   0.764   4.933   4.019  0.7598 -0.0346  0.2371
 3672TIP3    H232432   0.774   4.807   3.936 -1.4591 -0.9010  1.2068
 3673TIP3   OH232433   4.947   0.723   6.039  0.0296 -0.5417 -0.1611
 3673TIP3    H132434   4.988   0.769   6.112 -1.0485 -0.3907  0.3834
 3673TIP3    H232435   4.913   0.642   6.078 -0.9748 -0.2404 -0.3743
 3674TIP3   OH232436   2.338   1.927  13.670  0.4038  0.3025  0.2353
 3674TIP3    H132437   2.325   1.968  13.756  1.4556  0.5353  0.2989
 3674TIP3    H232438   2.350   2.001  13.610  0.8235  0.1201  0.0895
 3675TIP3   OH232439   5.472   3.250  12.496  0.0481 -1.2654 -0.2538
 3675TIP3    H132440   5.507   3.187  12.559  0.1244  0.0180  1.0237
 3675TIP3    H232441   5.505   3.219  12.411  2.0742 -1.6183  0.5974
 3676TIP3   OH232442   1.839   1.684  15.071  0.3211  0.6796  0.5175
 3676TIP3    H132443   1.915   1.661  15.019 -0.1102  0.9327 -0.2430
 3676TIP3    H232444   1.861   1.657  15.160  1.4289  1.0541  0.3686
 3677TIP3   OH232445   2.728   3.477   3.870 -0.3581  0.8632  0.0173
 3677TIP3    H132446   2.664   3.540   3.837 -0.8353  0.5644  0.3493
 3677TIP3    H232447   2.795   3.473   3.803  1.0312  3.6392  1.0861
 3678TIP3   OH232448   2.435   5.305  12.731 -0.3034  0.0011  0.4097
 3678TIP3    H132449   2.496   5.251  12.781  0.0602  0.4976  0.4997
 3678TIP3    H232450   2.407   5.374  12.791 -0.6397  0.0180  0.2417
 3679TIP3   OH232451   6.200   1.920   2.356  0.0866  0.3930 -0.6054
 3679TIP3    H132452   6.209   1.826   2.373  0.0882  0.2243 -1.4945
 3679TIP3    H232453   6.151   1.953   2.431 -2.5630 -0.8519 -1.6634
 3680TIP3   OH232454   6.174   3.967   2.084 -0.0102 -0.4888 -0.1125
 3680TIP3    H132455   6.225   3.886   2.094  1.5279  0.1939 -1.9266
 3680TIP3    H232456   6.235   4.036   2.111 -0.6332  0.2181 -0.5088
 3681TIP3   OH232457   0.535   0.787  16.985 -0.3253  0.0389 -0.0002
 3681TIP3    H132458   0.514   0.864  17.038 -1.1853 -0.3692  0.2645
 3681TIP3    H232459   0.610   0.747  17.029 -0.1175  0.5119  0.0795
 3682TIP3   OH232460   1.187   1.376  13.373  0.5754  0.1510 -0.3900
 3682TIP3    H132461   1.117   1.441  13.381 -0.7793 -1.3250  0.4331
 3682TIP3    H232462   1.252   1.417  13.316 -1.0090  1.5375 -1.2949
 3683TIP3   OH232463   6.099   2.473  11.446 -0.0995  0.2891  0.0374
 3683TIP3    H132464   6.167   2.538  11.462 -0.0661  0.2947 -0.1238
 3683TIP3    H232465   6.092   2.469  11.351 -0.5181  0.4913  0.0573
 3684TIP3   OH232466   6.471   2.169   2.682  0.0280  0.2428 -0.1027
 3684TIP3    H132467   6.381   2.197   2.700  0.5210  1.3399  0.7835
 3684TIP3    H232468   6.506   2.147   2.768 -0.1349 -2.6829 -0.6684
 3685TIP3   OH232469   4.329   3.463   0.141  0.0150 -0.1897  0.1961
 3685TIP3    H132470   4.374   3.502   0.216 -0.6458  0.7059  0.1392
 3685TIP3    H232471   4.341   3.369   0.152  2.5791  0.0105 -0.2244
 3686TIP3   OH232472   2.627   0.967  15.248 -0.2447 -0.4154  0.6280
 3686TIP3    H132473   2.703   0.908  15.249  0.3728  0.3684  0.9619
 3686TIP3    H232474   2.646   1.031  15.317  0.2122  1.5576 -1.2336
 3687TIP3   OH232475   6.180   3.130   4.863 -0.1072  0.1801 -0.3748
 3687TIP3    H132476   6.130   3.154   4.785 -1.0225 -1.3420 -0.2892
 3687TIP3    H232477   6.270   3.117   4.831 -0.3073  0.3428 -1.0129
 3688TIP3   OH232478   0.973   1.017  14.302 -0.0763 -0.5190  0.4444
 3688TIP3    H132479   1.000   1.061  14.383 -0.2718  1.4600 -0.5144
 3688TIP3    H232480   0.902   1.071  14.268  0.2404 -1.1072 -1.2221
 3689TIP3   OH232481   2.818   5.468   1.274  0.2774 -0.3895  0.1891
 3689TIP3    H132482   2.741   5.419   1.301 -0.3267  0.0708 -0.6665
 3689TIP3    H232483   2.787   5.526   1.204  1.4789 -0.5063 -0.4721
 3690TIP3   OH232484   0.699   4.079   2.493 -0.0864 -0.2283 -0.0816
 3690TIP3    H132485   0.792   4.087   2.477  0.0850  2.2999  1.5020
 3690TIP3    H232486   0.670   4.169   2.512 -2.3445 -1.2141  1.7331
 3691TIP3   OH232487   6.672   0.583  11.969  0.2867  0.3775 -0.8443
 3691TIP3    H132488   6.610   0.642  12.012  0.4664  0.4898 -0.7409
 3691TIP3    H232489   6.707   0.529  12.039  0.1637  0.1799 -0.9310
 3692TIP3   OH232490   3.781   0.209   1.168  0.4936  0.1089 -0.0073
 3692TIP3    H132491   3.859   0.213   1.223 -0.3585  0.5096  1.2139
 3692TIP3    H232492   3.721   0.151   1.216 -1.2807  2.5489  0.9069
 3693TIP3   OH232493   4.735   0.627  14.478 -0.3446 -0.0945  0.0812
 3693TIP3    H132494   4.693   0.606  14.394 -0.2925 -0.0380  0.0410
 3693TIP3    H232495   4.773   0.544  14.507 -1.4872 -0.4307  0.6889
 3694TIP3   OH232496   0.050   6.615  13.498 -0.5542 -0.5923 -0.7604
 3694TIP3    H132497   0.044   6.702  13.537  1.5098 -0.0000 -1.6258
 3694TIP3    H232498  -0.017   6.564  13.543 -2.1377  1.5412 -0.5582
 3695TIP3   OH232499   2.288   5.395  16.304 -0.1203  0.4332  0.4098
 3695TIP3    H132500   2.262   5.308  16.274 -2.6761  0.6538  1.7113
 3695TIP3    H232501   2.362   5.419  16.248  0.1510 -2.2205 -0.5055
 3696TIP3   OH232502   4.974   4.842  12.239 -0.1298  0.2364  0.1002
 3696TIP3    H132503   4.929   4.821  12.158 -1.4460  1.0739  0.5856
 3696TIP3    H232504   4.959   4.766  12.296  0.7483 -0.3266 -0.3827
 3697TIP3   OH232505   6.352   4.178   3.768  0.2265 -0.3006 -0.0645
 3697TIP3    H132506   6.355   4.121   3.691  1.1844  1.2335 -1.2081
 3697TIP3    H232507   6.283   4.241   3.749  1.2251  0.7874 -0.2217
 3698TIP3   OH232508   3.664   1.636   1.085 -0.1073 -0.3333 -0.0382
 3698TIP3    H132509   3.642   1.550   1.122  0.3866 -0.7217 -0.6197
 3698TIP3    H232510   3.583   1.685   1.089 -0.9679 -1.5473 -1.6517
 3699TIP3   OH232511   0.399   3.137  14.581  0.1989 -0.7353 -0.4623
 3699TIP3    H132512   0.320   3.171  14.623 -0.3913 -1.6198 -0.8412
 3699TIP3    H232513   0.470   3.188  14.620 -0.5642  0.2005 -0.2538
 3700TIP3   OH232514   2.859   3.225  15.569  0.3953  0.8876  0.0400
 3700TIP3    H132515   2.952   3.203  15.570  0.3347  0.4725 -1.3580
 3700TIP3    H232516   2.828   3.195  15.483 -1.4671 -0.7451  1.1919
 3701TIP3   OH232517   3.526   3.208   2.610  0.7017 -0.3001  0.6472
 3701TIP3    H132518   3.571   3.139   2.561  0.1544 -0.2754  0.1004
 3701TIP3    H232519   3.506   3.169   2.695 -0.3836 -1.1208  0.0312
 3702TIP3   OH232520   6.067   4.595  15.682 -0.1417 -0.2684  0.2073
 3702TIP3    H132521   5.980   4.636  15.688  0.1023  0.1046  1.5715
 3702TIP3    H232522   6.062   4.519  15.740 -0.2311 -1.5810 -1.4385
 3703TIP3   OH232523   4.198   2.937   6.024  0.4986  0.2212  0.1206
 3703TIP3    H132524   4.274   2.941   6.082  1.5571 -0.2631 -1.1846
 3703TIP3    H232525   4.140   2.874   6.066  0.9796  0.3115  0.9478
 3704TIP3   OH232526   3.464   5.407  12.675 -0.4042  0.3069 -0.0966
 3704TIP3    H132527   3.429   5.364  12.753  1.4032  0.4669  0.8646
 3704TIP3    H232528   3.418   5.491  12.672 -0.1368  0.5234  1.1295
 3705TIP3   OH232529   6.131   5.568  13.375  0.3714 -0.1236 -0.1661
 3705TIP3    H132530   6.120   5.662  13.386  1.0514 -0.1642  1.1077
 3705TIP3    H232531   6.047   5.530  13.401  0.7112  0.0425  1.2972
 3706TIP3   OH232532   5.230   5.052   3.330  0.1997 -0.1567  0.1105
 3706TIP3    H132533   5.216   5.141   3.363  1.5037 -0.5497  1.8765
 3706TIP3    H232534   5.325   5.045   3.322  0.3364 -2.1989  2.5405
 3707TIP3   OH232535   0.887   5.138  11.733  0.0467  0.2814  0.3843
 3707TIP3    H132536   0.873   5.122  11.640  1.8497  0.1320  0.1030
 3707TIP3    H232537   0.881   5.233  11.742 -2.0323  0.1883  0.5010
 3708TIP3   OH232538   5.448   4.559   4.314  0.2397 -0.1756 -0.4588
 3708TIP3    H132539   5.375   4.503   4.286  0.7502 -1.4892  0.7284
 3708TIP3    H232540   5.452   4.627   4.247 -0.9847 -1.0441 -1.4775
 3709TIP3   OH232541   2.237   1.975  11.981 -0.3265  0.1914 -0.5436
 3709TIP3    H132542   2.323   2.002  12.014  0.0438 -1.6675  0.1157
 3709TIP3    H232543   2.175   2.033  12.026  0.4797  0.4596  0.2508
 3710TIP3   OH232544   0.322   1.764  13.045  0.1446 -0.2917 -0.0655
 3710TIP3    H132545   0.338   1.724  12.959  2.1750 -1.4406  0.7766
 3710TIP3    H232546   0.354   1.854  13.036 -1.2181  0.1467 -0.9501
 3711TIP3   OH232547   0.049   4.392   3.452 -0.1443 -0.0603 -0.1442
 3711TIP3    H132548   0.019   4.339   3.378 -2.1043 -0.7166  1.0464
 3711TIP3    H232549   0.142   4.369   3.462 -0.1549 -0.8775 -1.6047
 3712TIP3   OH232550   5.328   3.829   2.383  0.2999 -0.4487 -0.1044
 3712TIP3    H132551   5.322   3.865   2.294 -3.0548  0.3179  0.3341
 3712TIP3    H232552   5.333   3.905   2.440 -2.2201 -0.7024  0.5627
 3713TIP3   OH232553   5.647   4.648  17.497 -0.2668 -0.2716 -0.6126
 3713TIP3    H132554   5.587   4.716  17.468  0.3465  1.0589  1.0732
 3713TIP3    H232555   5.627   4.572  17.441 -0.9013  1.2898 -2.6069
 3714TIP3   OH232556   4.129   3.542  16.811 -0.4941 -0.3296 -0.3999
 3714TIP3    H132557   4.092   3.611  16.756  2.1022  1.3245 -0.2571
 3714TIP3    H232558   4.222   3.563  16.816  0.0202 -2.6287  1.4925
 3715TIP3   OH232559   0.069   3.788   1.806 -0.2092  0.0607  0.4340
 3715TIP3    H132560   0.065   3.869   1.858  0.5999  0.4272 -0.0524
 3715TIP3    H232561  -0.022   3.766   1.789 -0.4374  1.8867 -0.9591
 3716TIP3   OH232562   5.771   2.102  12.339  0.2145 -0.3027  0.3788
 3716TIP3    H132563   5.806   2.171  12.395  2.1901 -0.0462 -1.0772
 3716TIP3    H232564   5.786   2.133  12.250 -1.3344 -1.4339 -0.3399
 3717TIP3   OH232565   0.878   0.303   3.750 -0.4436 -0.6868  0.3357
 3717TIP3    H132566   0.929   0.383   3.737 -2.6605  1.0919  1.7428
 3717TIP3    H232567   0.897   0.277   3.840 -1.4698 -0.3324  0.6793
 3718TIP3   OH232568   5.395   6.610  17.409  0.6962 -0.2667 -0.9771
 3718TIP3    H132569   5.304   6.591  17.387  0.3835 -0.2666  0.2394
 3718TIP3    H232570   5.422   6.536  17.465  0.8567  0.6141  0.1523
 3719TIP3   OH232571   3.987   4.819  15.128 -0.5118 -0.2807 -0.1644
 3719TIP3    H132572   4.047   4.836  15.200  0.3521 -0.3429 -0.8472
 3719TIP3    H232573   4.001   4.891  15.067 -1.3515 -0.1392 -0.2047
 3720TIP3   OH232574   5.905   6.565   0.083 -0.6035  0.2443 -0.0676
 3720TIP3    H132575   5.867   6.553   0.170 -1.1415 -0.1612 -0.3552
 3720TIP3    H232576   5.960   6.487   0.069 -2.9374 -1.2862 -1.3301
 3721TIP3   OH232577   3.696   2.495  14.122  0.2870 -0.2093  0.5390
 3721TIP3    H132578   3.618   2.519  14.172  1.0545  2.3588  0.6460
 3721TIP3    H232579   3.669   2.505  14.031  0.5086  0.8703  0.5786
 3722TIP3   OH232580   0.777   5.693   3.019 -0.7946 -0.3725 -0.5092
 3722TIP3    H132581   0.843   5.625   3.034 -0.5583 -0.0610 -0.1478
 3722TIP3    H232582   0.728   5.661   2.942  0.2368 -0.2563 -1.2331
 3723TIP3   OH232583   0.353   4.385  13.293  0.2703  0.0650  0.1444
 3723TIP3    H132584   0.290   4.420  13.230  0.4702  1.3990  0.6405
 3723TIP3    H232585   0.413   4.458  13.309 -0.4377  0.1769  2.7303
 3724TIP3   OH232586   2.932   0.819   5.787 -0.0064 -0.0465  0.1173
 3724TIP3    H132587   2.945   0.726   5.807  0.4179 -0.4067 -1.6570
 3724TIP3    H232588   2.837   0.829   5.780 -0.0777 -0.2367  0.7401
 3725TIP3   OH232589   6.507   3.154   1.022 -0.3759  0.2336 -1.0747
 3725TIP3    H132590   6.556   3.181   1.100  0.4113  1.0025 -1.8110
 3725TIP3    H232591   6.561   3.185   0.949 -0.9980 -0.6544 -1.9259
 3726TIP3   OH232592   4.768   5.025   1.155 -0.1394 -0.1900  0.1567
 3726TIP3    H132593   4.718   4.981   1.223 -2.2622 -1.1534 -1.8934
 3726TIP3    H232594   4.814   4.954   1.109 -0.7803  0.1151 -0.9892
 3727TIP3   OH232595   0.542   2.182   1.588  0.1562 -0.6629 -0.7003
 3727TIP3    H132596   0.547   2.110   1.525  1.0842 -0.8473 -0.4280
 3727TIP3    H232597   0.604   2.157   1.657 -1.4733 -0.8995  0.7354
 3728TIP3   OH232598   3.455   1.457  17.240  0.5977 -0.1929 -0.3922
 3728TIP3    H132599   3.482   1.507  17.164  0.5816  0.9223  0.3204
 3728TIP3    H232600   3.426   1.373  17.204 -3.4841  1.6777 -2.1824
 3729TIP3   OH232601   0.624   0.090   3.089  0.1169 -0.1130 -0.1339
 3729TIP3    H132602   0.698   0.039   3.121  1.0653  1.0112 -0.4532
 3729TIP3    H232603   0.619   0.069   2.996  0.7485  0.6417 -0.3459
 3730TIP3   OH232604   5.186   6.436  15.023  0.5798  0.6182 -0.3086
 3730TIP3    H132605   5.143   6.420  14.939  0.1628  1.7669 -0.3314
 3730TIP3    H232606   5.139   6.511  15.060  0.1455 -0.4403  1.3918
 3731TIP3   OH232607   6.505   3.070   1.982  0.0663  0.3630  0.2629
 3731TIP3    H132608   6.500   2.980   1.952 -0.6724  0.3479  0.4093
 3731TIP3    H232609   6.592   3.078   2.022  0.7837  0.1850 -1.1998
 3732TIP3   OH232610   0.746   5.868  12.938  0.1641 -0.0499 -0.2788
 3732TIP3    H132611   0.681   5.834  13.000  2.5619  0.0015  2.5128
 3732TIP3    H232612   0.711   5.952  12.910 -0.8097  0.2071  1.5449
 3733TIP3   OH232613   1.700   5.709   1.248  0.2708 -1.0103  0.4100
 3733TIP3    H132614   1.667   5.627   1.212  0.4190 -1.0184  0.2895
 3733TIP3    H232615   1.794   5.709   1.226 -0.1728  0.3727 -1.8980
 3734TIP3   OH232616   0.243   2.112   5.541  0.5219  0.0533  0.7054
 3734TIP3    H132617   0.295   2.150   5.470 -1.4981 -0.4831 -1.1650
 3734TIP3    H232618   0.282   2.025   5.555  0.4074 -0.1751 -0.3509
 3735TIP3   OH232619   3.553   0.929   4.783 -0.1059 -0.6532  0.2233
 3735TIP3    H132620   3.609   0.985   4.728 -1.2775 -0.9066 -1.2923
 3735TIP3    H232621   3.603   0.847   4.791  0.2005 -0.5195 -0.2503
 3736TIP3   OH232622   1.721   0.531  13.967 -0.2806 -0.1548  0.1503
 3736TIP3    H132623   1.678   0.503  13.886 -0.8132  0.4344  0.2209
 3736TIP3    H232624   1.701   0.624  13.974  1.9519  0.4453 -0.3955
 3737TIP3   OH232625   2.028   6.174   4.448  0.1027 -0.3736 -0.0304
 3737TIP3    H132626   1.953   6.115   4.457 -1.0314  0.7705 -1.5730
 3737TIP3    H232627   2.087   6.148   4.519 -1.0453 -2.3139  0.2975
 3738TIP3   OH232628   1.765   2.342  16.078 -0.3436  0.4909  0.0412
 3738TIP3    H132629   1.791   2.253  16.054  0.8389  0.3312  1.7835
 3738TIP3    H232630   1.764   2.342  16.174  0.9256  2.6897  0.1181
 3739TIP3   OH232631   6.014   2.313   1.622 -0.3422 -0.0940  0.6283
 3739TIP3    H132632   5.987   2.222   1.631 -0.4576  0.0997  2.7447
 3739TIP3    H232633   5.941   2.356   1.577  0.0460 -1.1390 -1.1249
 3740TIP3   OH232634   3.773   5.216   4.226  0.5610  0.3893  0.0225
 3740TIP3    H132635   3.834   5.157   4.269 -1.1101 -1.3281  0.1483
 3740TIP3    H232636   3.736   5.268   4.297  1.3672  1.0007  0.0165
 3741TIP3   OH232637   1.185   3.410   0.593  0.0967 -0.4709 -0.1469
 3741TIP3    H132638   1.230   3.346   0.648 -1.4988 -0.5960  1.0733
 3741TIP3    H232639   1.093   3.383   0.594 -0.6135  1.8016  0.3652
 3742TIP3   OH232640   0.783   3.601   4.416 -0.0546 -0.4902  0.0427
 3742TIP3    H132641   0.834   3.521   4.410 -0.5235 -0.6757 -2.7273
 3742TIP3    H232642   0.692   3.571   4.424 -0.0591 -0.1774  1.4211
 3743TIP3   OH232643   0.653   5.342  14.758  0.3016  0.7286 -0.6247
 3743TIP3    H132644   0.623   5.403  14.826  1.1164  1.4591 -0.8903
 3743TIP3    H232645   0.612   5.372  14.678 -1.8640 -1.0305 -0.2742
 3744TIP3   OH232646   4.357   0.901  12.582 -0.1225  0.3155  0.3658
 3744TIP3    H132647   4.401   0.983  12.606  0.3495  0.5379 -1.1550
 3744TIP3    H232648   4.270   0.929  12.554 -0.1038  0.2472  0.2425
 3745TIP3   OH232649   3.398   6.354  13.390  0.1079 -0.6187  0.5679
 3745TIP3    H132650   3.359   6.430  13.348  1.5330 -1.2495 -2.1572
 3745TIP3    H232651   3.438   6.388  13.470 -1.2291  1.0260  0.5835
 3746TIP3   OH232652   5.858   2.180  12.080 -0.0869 -0.5203  0.5048
 3746TIP3    H132653   5.818   2.099  12.051  0.9380 -1.5023  1.7092
 3746TIP3    H232654   5.930   2.196  12.019 -0.8661  0.0192 -0.2961
 3747TIP3   OH232655   0.585   2.017   2.121 -0.4568  0.3156 -0.3162
 3747TIP3    H132656   0.539   2.101   2.123 -0.4179  0.3472 -0.6567
 3747TIP3    H232657   0.516   1.951   2.123 -0.5209  0.3628 -0.8538
 3748TIP3   OH232658   6.222   1.598   4.905 -0.0869 -0.2516 -0.2824
 3748TIP3    H132659   6.167   1.576   4.981  0.4552  0.0148  0.1942
 3748TIP3    H232660   6.162   1.597   4.831 -0.8624  0.6261  0.3170
 3749TIP3   OH232661   1.029   6.057   0.740 -0.1561 -0.2963 -0.3870
 3749TIP3    H132662   1.122   6.035   0.751  0.4123  2.1708  0.3684
 3749TIP3    H232663   1.028   6.151   0.724 -2.6117 -0.0702  0.6366
 3750TIP3   OH232664   3.568   2.605   0.591 -0.2390  0.2949  0.3552
 3750TIP3    H132665   3.612   2.546   0.530  0.6818  1.7784 -0.4711
 3750TIP3    H232666   3.475   2.593   0.573 -0.1705 -1.7479  1.0460
 3751TIP3   OH232667   5.186   3.316  17.394 -0.3514 -0.4738  0.4149
 3751TIP3    H132668   5.144   3.401  17.382 -0.1258 -0.5327 -0.8714
 3751TIP3    H232669   5.195   3.280  17.306 -0.7166 -1.9714  0.9588
 3752TIP3   OH232670   2.776   4.116   0.657  0.1996 -0.2537  0.0130
 3752TIP3    H132671   2.750   4.205   0.683  0.1938 -0.3738  0.4172
 3752TIP3    H232672   2.773   4.065   0.738 -0.7376 -0.8580 -0.3922
 3753TIP3   OH232673   3.625   3.207  14.792 -0.1889  0.7547  0.3927
 3753TIP3    H132674   3.693   3.197  14.725  1.3840  0.5294  1.9648
 3753TIP3    H232675   3.563   3.269  14.753  1.1498  1.3454 -0.9114
 3754TIP3   OH232676   6.571   1.378  12.378 -0.4333 -0.1522  0.3977
 3754TIP3    H132677   6.561   1.314  12.449  1.5097 -1.0242 -0.0525
 3754TIP3    H232678   6.574   1.326  12.298 -0.4021  0.6390 -0.1311
 3755TIP3   OH232679   2.308   6.144   4.161 -0.6843  0.3586 -0.4481
 3755TIP3    H132680   2.349   6.228   4.140 -0.1581  0.5926  1.3332
 3755TIP3    H232681   2.380   6.091   4.196 -1.7434  0.7072  2.5605
 3756TIP3   OH232682   4.046   4.107  16.031  0.1145  0.2623 -0.0167
 3756TIP3    H132683   4.098   4.127  15.953  1.7600 -1.8661  0.4326
 3756TIP3    H232684   4.091   4.156  16.101  0.1216  0.2333 -0.0013
 3757TIP3   OH232685   4.392   0.484   2.407 -0.1737  0.5411 -0.1832
 3757TIP3    H132686   4.311   0.450   2.446 -1.0796  2.5196 -0.2180
 3757TIP3    H232687   4.459   0.468   2.473 -0.2639 -2.1651 -0.5963
 3758TIP3   OH232688   2.042   0.460   4.286  0.5111  0.4059  0.3616
 3758TIP3    H132689   2.039   0.510   4.205 -0.7405 -0.6538 -0.2956
 3758TIP3    H232690   1.962   0.407   4.284  1.3918 -1.0283  1.3743
 3759TIP3   OH232691   6.314   6.261   6.263 -0.3033 -0.1919  0.2384
 3759TIP3    H132692   6.271   6.205   6.328 -1.0278  0.5855  0.4559
 3759TIP3    H232693   6.297   6.218   6.179  0.1831 -0.9266  0.5153
 3760TIP3   OH232694   4.916   2.419   4.945  0.1601 -0.0322 -0.1300
 3760TIP3    H132695   4.862   2.444   4.870  1.8918  0.3673 -1.2901
 3760TIP3    H232696   5.004   2.451   4.924  0.7488 -0.0750  1.9954
 3761TIP3   OH232697   0.625   1.148  13.716 -0.3698  0.1533 -0.0333
 3761TIP3    H132698   0.579   1.067  13.694 -0.7767  0.6264 -0.9147
 3761TIP3    H232699   0.564   1.218  13.697  0.2477  0.7228  0.0265
 3762TIP3   OH232700   5.811   2.235   1.856  0.3614  0.3501 -0.3487
 3762TIP3    H132701   5.718   2.215   1.844 -0.4660  1.7776  2.7247
 3762TIP3    H232702   5.846   2.239   1.768 -1.8048 -3.0983 -1.5550
 3763TIP3   OH232703   6.262   4.440  16.637  0.6125  0.3110  0.1371
 3763TIP3    H132704   6.306   4.442  16.552 -0.8941 -0.3075 -0.6873
 3763TIP3    H232705   6.201   4.367  16.631  0.8052 -0.0477  1.9431
 3764TIP3   OH232706   0.138   3.522  12.847  0.5242  0.1769 -0.3920
 3764TIP3    H132707   0.152   3.489  12.936  0.9669  1.5597  0.0924
 3764TIP3    H232708   0.203   3.593  12.838 -1.7497  2.3854 -0.5166
 3765TIP3   OH232709   2.348   2.249   4.609  0.0158 -0.6158  0.3144
 3765TIP3    H132710   2.308   2.335   4.623 -0.9645 -0.9728 -0.1983
 3765TIP3    H232711   2.400   2.234   4.688  1.9317  1.3535 -0.4713
 3766TIP3   OH232712   4.367   3.798  12.969 -0.1691  0.3776  0.4161
 3766TIP3    H132713   4.308   3.731  12.933 -0.0626  0.9453 -0.8862
 3766TIP3    H232714   4.344   3.878  12.921  1.0760  0.8045  0.5026
 3767TIP3   OH232715   3.708   4.866   1.589  0.1696 -0.5372 -0.1057
 3767TIP3    H132716   3.720   4.907   1.503 -1.6877 -0.2333 -0.2796
 3767TIP3    H232717   3.740   4.931   1.652 -2.0441  1.0097 -0.4195
 3768TIP3   OH232718   5.200   3.746   0.907  0.3569 -0.7255 -0.0149
 3768TIP3    H132719   5.210   3.653   0.885 -0.1166 -0.5754 -0.9107
 3768TIP3    H232720   5.289   3.777   0.919  0.6457 -0.8926 -1.5015
 3769TIP3   OH232721   2.639   5.622   5.093 -0.4043  0.1250 -0.0447
 3769TIP3    H132722   2.711   5.560   5.105  0.1829  0.7725 -0.1945
 3769TIP3    H232723   2.674   5.706   5.122 -1.4808  0.2384  1.0135
 3770TIP3   OH232724   5.692   1.690  14.312 -0.0747  0.1742  0.5548
 3770TIP3    H132725   5.676   1.610  14.263 -1.3739  0.6935  0.0996
 3770TIP3    H232726   5.627   1.689  14.382 -1.5203  1.7754 -0.6641
 3771TIP3   OH232727   0.061   5.498  11.840 -0.2242 -0.9683 -0.0526
 3771TIP3    H132728   0.095   5.412  11.817  0.5100 -0.8368  0.5103
 3771TIP3    H232729   0.032   5.489  11.931  1.7248 -0.1021  0.6971
 3772TIP3   OH232730   0.245   1.693   2.857  0.3941 -0.0166 -0.0643
 3772TIP3    H132731   0.281   1.779   2.876  0.3774  0.2676 -1.2769
 3772TIP3    H232732   0.183   1.677   2.929 -0.2844  1.3798 -0.2951
 3773TIP3   OH232733   6.420   5.629   1.788  0.2663 -0.0805 -0.2449
 3773TIP3    H132734   6.416   5.670   1.874  0.1404 -1.7344  0.5909
 3773TIP3    H232735   6.506   5.585   1.786 -0.5098 -1.6994 -0.1159
 3774TIP3   OH232736   3.119   2.279   2.623 -0.7156  0.5904 -0.2787
 3774TIP3    H132737   3.043   2.312   2.576  0.2514  3.0810 -0.2364
 3774TIP3    H232738   3.103   2.302   2.714 -0.4269  0.0755 -0.0954
 3775TIP3   OH232739   1.884   0.909  11.707 -0.4367  0.1228 -0.0276
 3775TIP3    H132740   1.818   0.887  11.772 -0.1078 -0.0485  0.2534
 3775TIP3    H232741   1.960   0.938  11.758 -0.4747  0.8399 -0.3555
 3776TIP3   OH232742   4.097   2.741   4.845 -0.0469 -0.4295 -0.2464
 3776TIP3    H132743   4.165   2.738   4.911  0.1202 -0.4313 -0.4171
 3776TIP3    H232744   4.061   2.653   4.843 -0.7442 -0.1690  0.5583
 3777TIP3   OH232745   0.943   3.552  16.074 -0.6501  0.1860  0.2077
 3777TIP3    H132746   0.857   3.528  16.040  0.6149 -2.5559 -1.4278
 3777TIP3    H232747   0.997   3.566  15.995  1.3459 -2.2062  1.0307
 3778TIP3   OH232748   6.451   0.013  13.817 -0.5472 -0.4083  0.1307
 3778TIP3    H132749   6.406   0.078  13.764 -1.3470 -2.3761 -1.7389
 3778TIP3    H232750   6.491  -0.047  13.754 -0.7355 -2.3178  1.7114
 3779TIP3   OH232751   1.157   1.584   5.930 -0.3865  0.0558 -0.1781
 3779TIP3    H132752   1.241   1.630   5.937  0.6965 -1.9824  1.2198
 3779TIP3    H232753   1.139   1.582   5.836  0.8233  1.0189 -0.4654
 3780TIP3   OH232754   3.067   6.394  13.271  0.3205  0.0198  0.3021
 3780TIP3    H132755   3.162   6.404  13.261  0.3788 -1.5963 -1.3745
 3780TIP3    H232756   3.052   6.300  13.258 -1.4432  0.1178  1.3802
 3781TIP3   OH232757   2.342   1.062   3.161  0.0512  0.4446  0.4696
 3781TIP3    H132758   2.434   1.070   3.133 -0.0568 -2.0172 -0.8409
 3781TIP3    H232759   2.292   1.069   3.080 -0.7266 -0.7442  0.8252
 3782TIP3   OH232760   0.616   1.308   1.211 -0.3179 -0.1408 -0.1099
 3782TIP3    H132761   0.616   1.359   1.130  0.2499 -0.4935 -0.3352
 3782TIP3    H232762   0.566   1.362   1.273  0.6166  0.8809 -0.2223
 3783TIP3   OH232763   2.753   5.872  13.773  0.3462 -0.4664 -0.5632
 3783TIP3    H132764   2.827   5.920  13.735  1.1322 -1.1593  0.0278
 3783TIP3    H232765   2.712   5.827  13.699  1.0950 -0.8085 -0.7873
 3784TIP3   OH232766   1.060   3.832  13.534  0.1333  0.6268  0.7611
 3784TIP3    H132767   0.973   3.793  13.532 -0.0012  0.8488 -2.0494
 3784TIP3    H232768   1.046   3.923  13.558 -0.5703  0.8630 -0.4454
 3785TIP3   OH232769   0.356   2.680   0.479  0.5817 -0.2838  0.1010
 3785TIP3    H132770   0.353   2.772   0.504  1.2919 -0.5241  1.1350
 3785TIP3    H232771   0.291   2.638   0.536 -0.3837 -0.3059 -0.9808
 3786TIP3   OH232772   5.699   3.513  11.622 -0.3020 -0.0120 -0.3529
 3786TIP3    H132773   5.768   3.532  11.685 -0.5067  0.3295 -0.2328
 3786TIP3    H232774   5.745   3.468  11.550  0.1497  0.7729 -0.5646
 3787TIP3   OH232775   0.201   3.171  12.502  0.2113 -0.3198  0.3154
 3787TIP3    H132776   0.139   3.242  12.520  0.4916 -0.0950  0.3957
 3787TIP3    H232777   0.204   3.121  12.584  1.9126  1.0274  1.1324
 3788TIP3   OH232778   1.869   0.280  14.482  0.4497  0.0068  0.5036
 3788TIP3    H132779   1.802   0.240  14.538  1.1439  0.2517  1.5523
 3788TIP3    H232780   1.885   0.366  14.521  1.3290 -0.0244  0.2407
 3789TIP3   OH232781   2.706   4.257  15.328  0.1587  0.0245  0.6435
 3789TIP3    H132782   2.681   4.170  15.361 -0.1628 -0.4950 -0.8833
 3789TIP3    H232783   2.770   4.289  15.392 -0.5177 -0.8645  1.8146
 3790TIP3   OH232784   4.762   3.508  16.423  0.3021  0.2806  0.5532
 3790TIP3    H132785   4.811   3.542  16.348  0.2057  0.9155  0.7706
 3790TIP3    H232786   4.755   3.414  16.407  1.5564  0.1809  0.5010
 3791TIP3   OH232787   4.682   0.085  17.292  0.5363  0.2120  0.1392
 3791TIP3    H132788   4.717   0.166  17.255 -0.2941  1.1492  1.3421
 3791TIP3    H232789   4.665   0.029  17.216  0.4097  1.4456 -0.7651
 3792TIP3   OH232790   3.481   4.475   4.525  0.1170 -0.1085  0.1206
 3792TIP3    H132791   3.497   4.396   4.576 -1.2501  0.2245  1.1231
 3792TIP3    H232792   3.539   4.468   4.450  2.2470 -0.5833  1.7384
 3793TIP3   OH232793   5.761   2.407   5.440 -0.1259  0.1054  0.1375
 3793TIP3    H132794   5.703   2.443   5.508 -0.3284 -0.2429  0.1525
 3793TIP3    H232795   5.841   2.459   5.446 -0.8454  1.3400 -0.6308
 3794TIP3   OH232796   3.703   2.126   5.657  0.1432 -0.3165 -0.8383
 3794TIP3    H132797   3.680   2.107   5.748  0.1567 -1.9830 -1.1537
 3794TIP3    H232798   3.796   2.103   5.651 -0.7937 -4.6912 -2.2807
 3795TIP3   OH232799   4.244   0.616  12.065 -0.1064 -0.6129 -0.2608
 3795TIP3    H132800   4.234   0.644  11.974  0.7901  1.2901  0.1754
 3795TIP3    H232801   4.230   0.696  12.116  1.1551 -1.2587  1.1699
 3796TIP3   OH232802   5.823   3.096  17.101 -0.5059  0.2433  0.4185
 3796TIP3    H132803   5.731   3.069  17.108 -0.0500 -1.0154  2.1940
 3796TIP3    H232804   5.852   3.106  17.192  1.1822  0.4297 -0.1079
 3797TIP3   OH232805   5.878   1.891  11.303  0.0519  0.0708  0.6374
 3797TIP3    H132806   5.936   1.962  11.275  1.0439 -0.0610  2.2199
 3797TIP3    H232807   5.790   1.929  11.301 -0.0349 -0.0185 -2.7744
 3798TIP3   OH232808   6.313   2.988   4.651 -0.4751 -0.2547  0.4258
 3798TIP3    H132809   6.372   3.062   4.635 -0.2318 -0.6965 -0.8534
 3798TIP3    H232810   6.371   2.916   4.678 -0.7668  0.1459  2.2356
 3799TIP3   OH232811   5.684   4.129  16.128 -0.6143  0.4473  0.5820
 3799TIP3    H132812   5.598   4.169  16.144 -0.5973  0.9084 -0.4065
 3799TIP3    H232813   5.728   4.132  16.212 -1.7127 -0.1477  1.2056
 3800TIP3   OH232814   5.958   1.295  15.545  0.4908 -0.0415  0.7503
 3800TIP3    H132815   5.980   1.203  15.532  1.8572  0.4550 -0.8958
 3800TIP3    H232816   5.910   1.298  15.628  0.7962 -2.1585  1.0419
 3801TIP3   OH232817   5.310   1.035  12.653 -0.3996  0.1356  0.1754
 3801TIP3    H132818   5.402   1.023  12.627 -0.4858  2.0601 -1.1374
 3801TIP3    H232819   5.305   0.994  12.740  1.9419  0.7561  0.6794
 3802TIP3   OH232820   2.347   1.931   6.329  0.3395  0.5593  0.2820
 3802TIP3    H132821   2.396   1.924   6.411 -0.6164  0.1249  0.8339
 3802TIP3    H232822   2.256   1.913   6.354 -0.2274  2.0496 -0.5822
 3803TIP3   OH232823   0.204   0.717   1.452  0.0650 -0.6746 -0.7092
 3803TIP3    H132824   0.239   0.677   1.373  0.8732 -0.6687 -0.3718
 3803TIP3    H232825   0.223   0.654   1.521  1.8936  0.4760 -0.0653
 3804TIP3   OH232826   5.803   3.130  11.221  0.1490  0.0227 -0.2677
 3804TIP3    H132827   5.745   3.064  11.259  0.0964 -0.7769 -1.6904
 3804TIP3    H232828   5.744   3.201  11.194 -0.5374 -1.5539 -3.3968
 3805TIP3   OH232829   0.861   2.568   3.283 -0.3961  0.0126  0.9135
 3805TIP3    H132830   0.837   2.655   3.314  0.8154  0.9100 -0.4860
 3805TIP3    H232831   0.919   2.533   3.351  1.1856  1.4000  0.3446
 3806TIP3   OH232832   1.144   3.470  15.848  0.3438  0.1574  0.5015
 3806TIP3    H132833   1.102   3.413  15.783  0.0955 -0.6814  1.3692
 3806TIP3    H232834   1.221   3.421  15.876  0.1609  0.2763  1.2169
 3807TIP3   OH232835   6.398   3.197   3.886  0.4584  0.2191 -0.1288
 3807TIP3    H132836   6.440   3.116   3.913  1.7517  0.7963 -0.3468
 3807TIP3    H232837   6.359   3.177   3.801 -1.3083 -0.8281  0.8787
 3808TIP3   OH232838   0.443   5.464  17.601  0.0346  0.3835  0.2649
 3808TIP3    H132839   0.424   5.401  17.670  1.1158  1.2550  1.4003
 3808TIP3    H232840   0.503   5.418  17.542 -0.2494 -0.0961  0.3480
 3809TIP3   OH232841   5.624   5.025   0.251  0.3361 -0.4402 -0.0161
 3809TIP3    H132842   5.600   5.117   0.245  0.0316 -0.5611 -0.6591
 3809TIP3    H232843   5.712   5.021   0.214 -0.0042 -0.5479 -0.8334
 3810TIP3   OH232844   0.837   2.874   3.081  0.5407 -0.2976  0.3340
 3810TIP3    H132845   0.756   2.878   3.132 -0.9353  3.2207 -1.9456
 3810TIP3    H232846   0.900   2.832   3.140 -2.0452 -0.2068  3.4492
 3811TIP3   OH232847   2.507   4.879  17.367 -0.3092 -0.5053 -0.0534
 3811TIP3    H132848   2.490   4.803  17.312  1.1433 -1.0801  0.2438
 3811TIP3    H232849   2.425   4.928  17.367 -0.2222 -0.1784 -3.1654
 3812TIP3   OH232850   6.241   0.759  11.442  0.0048 -0.2300  0.0560
 3812TIP3    H132851   6.167   0.782  11.497 -0.7890 -1.5432 -0.4357
 3812TIP3    H232852   6.278   0.844  11.416 -0.5993  0.4243  1.2402
 3813TIP3   OH232853   5.922   6.446   5.716 -0.6454 -0.2618 -0.8601
 3813TIP3    H132854   5.844   6.500   5.724 -0.5180 -0.1354 -0.4896
 3813TIP3    H232855   5.991   6.507   5.690 -0.9211 -0.5592 -2.4426
 3814TIP3   OH232856   2.320   3.033   5.909 -0.1892  0.2261  0.1128
 3814TIP3    H132857   2.409   3.034   5.945 -0.0554  1.1988 -0.2257
 3814TIP3    H232858   2.263   3.036   5.985  0.0837  0.7148  0.3024
 3815TIP3   OH232859   3.090   1.469  16.158  0.6025  0.5791 -0.1776
 3815TIP3    H132860   3.101   1.512  16.243  1.0942  0.9252 -0.4084
 3815TIP3    H232861   3.028   1.525  16.111  1.1178  0.9541 -0.4191
 3816TIP3   OH232862   3.042   3.992  16.047  0.1823  0.0813 -0.4181
 3816TIP3    H132863   2.966   3.964  15.997  0.9393  0.2516 -1.7114
 3816TIP3    H232864   3.108   3.924  16.030  0.4463  0.1335  0.3651
 3817TIP3   OH232865   2.554   4.320  11.287 -0.0643  0.1723  0.6062
 3817TIP3    H132866   2.466   4.334  11.322 -0.5299 -0.1139 -0.4106
 3817TIP3    H232867   2.558   4.374  11.209  0.8608  0.5903  0.9292
 3818TIP3   OH232868   1.477   4.836  13.977 -0.3297 -0.1951  0.7987
 3818TIP3    H132869   1.509   4.917  14.018 -1.1094  1.3098 -1.3749
 3818TIP3    H232870   1.529   4.828  13.896 -3.6139  1.0765 -1.6767
 3819TIP3   OH232871   2.981   0.082   4.592  0.2133 -0.3383 -0.0430
 3819TIP3    H132872   3.022   0.004   4.556  1.9946  0.2343  0.6481
 3819TIP3    H232873   2.983   0.069   4.687 -1.8162 -0.5469  0.0346
 3820TIP3   OH232874   1.155   4.909   4.580 -0.3301 -0.4529  0.0040
 3820TIP3    H132875   1.141   4.978   4.515 -4.0175 -1.6216 -0.6667
 3820TIP3    H232876   1.199   4.839   4.532 -1.2841 -0.5532 -0.7469
 3821TIP3   OH232877   5.747   0.123  15.412  0.0964 -0.0668  0.3425
 3821TIP3    H132878   5.709   0.176  15.483 -0.7365 -0.5911  0.3001
 3821TIP3    H232879   5.709   0.160  15.332 -0.1578 -0.4626  0.2813
 3822TIP3   OH232880   1.352   3.257  11.426  0.4232 -0.3976 -0.1756
 3822TIP3    H132881   1.354   3.167  11.458 -1.1598 -1.2121 -2.1215
 3822TIP3    H232882   1.259   3.275  11.409  0.7615  1.4211 -0.3089
 3823TIP3   OH232883   5.559   0.417  14.095 -0.5412  0.3478  0.5835
 3823TIP3    H132884   5.591   0.485  14.036  2.7428 -0.7507  0.8815
 3823TIP3    H232885   5.540   0.342  14.038 -1.5750  0.6433  0.5253
 3824TIP3   OH232886   0.053   3.507   3.760 -0.1516 -0.1027  0.2176
 3824TIP3    H132887   0.059   3.467   3.673 -1.3521  1.4804 -0.6490
 3824TIP3    H232888  -0.009   3.452   3.808 -0.0240 -0.5893 -0.1681
 3825TIP3   OH232889   4.128   3.660  13.385  0.0863  0.1323 -0.0361
 3825TIP3    H132890   4.134   3.585  13.325 -0.8439 -0.7027  0.8768
 3825TIP3    H232891   4.218   3.676  13.413  0.4094 -0.0418 -0.9612
 3826TIP3   OH232892   3.610   1.190   3.026 -0.8103  0.1267  0.3981
 3826TIP3    H132893   3.558   1.114   3.050 -2.0330  0.7454 -0.2067
 3826TIP3    H232894   3.638   1.173   2.937  0.0524 -0.1987  0.7162
 3827TIP3   OH232895   1.837   4.722   5.865 -0.1583 -0.0636  0.5504
 3827TIP3    H132896   1.769   4.782   5.893 -0.0271  0.3825 -0.0738
 3827TIP3    H232897   1.791   4.640   5.845 -0.3319 -0.1884  1.4219
 3828TIP3   OH232898   1.782   1.733  17.405  0.7006 -0.0690 -0.5846
 3828TIP3    H132899   1.752   1.728  17.314  0.2224 -0.1171 -0.4279
 3828TIP3    H232900   1.703   1.755  17.455  0.1185 -3.5510  0.2740
 3829TIP3   OH232901   4.234   5.562  14.636  0.3843 -0.2865  0.2071
 3829TIP3    H132902   4.195   5.601  14.715  1.3142  0.9586  0.0826
 3829TIP3    H232903   4.165   5.569  14.570  0.6431  1.6819  0.0577
 3830TIP3   OH232904   4.296   2.323  11.813 -0.1909 -0.1998 -0.4700
 3830TIP3    H132905   4.364   2.277  11.764 -0.3709 -1.1389  0.1486
 3830TIP3    H232906   4.292   2.278  11.897  0.9540  2.1031  0.9519
 3831TIP3   OH232907   5.726   0.157   4.108 -0.5140 -0.0066 -0.5521
 3831TIP3    H132908   5.647   0.111   4.079 -0.0978 -0.8268 -0.4163
 3831TIP3    H232909   5.794   0.090   4.107 -0.5985 -0.3297  2.9604
 3832TIP3   OH232910   5.261   3.770  14.537  0.1482 -0.6398 -0.0483
 3832TIP3    H132911   5.202   3.821  14.482  0.9403 -0.7635 -1.0227
 3832TIP3    H232912   5.255   3.812  14.623  0.1789  0.6041 -0.6353
 3833TIP3   OH232913   4.421   3.391  12.244  0.4174 -0.5659  0.0574
 3833TIP3    H132914   4.338   3.353  12.273  0.0425  1.2319  1.5302
 3833TIP3    H232915   4.418   3.481  12.276  2.6683 -0.2658 -0.4404
 3834TIP3   OH232916   5.430   3.779   3.195 -0.5618  0.1503  0.0254
 3834TIP3    H132917   5.516   3.778   3.238  0.8400 -0.7549 -2.5802
 3834TIP3    H232918   5.407   3.872   3.189  0.4609  0.4386  0.3723
 3835TIP3   OH232919   5.582   2.481  16.333  1.0752  0.2309  0.1309
 3835TIP3    H132920   5.493   2.479  16.297  1.7087 -1.9863 -1.5673
 3835TIP3    H232921   5.571   2.507  16.424 -1.2947  0.0816 -0.0518
 3836TIP3   OH232922   2.864   1.027   2.101 -0.1726  0.1039 -0.3614
 3836TIP3    H132923   2.926   1.069   2.160 -0.9388  1.6788 -0.6182
 3836TIP3    H232924   2.874   0.933   2.118 -0.7845  0.5099  2.7116
 3837TIP3   OH232925   3.172   5.755   4.530  0.8505 -0.0081  0.1009
 3837TIP3    H132926   3.154   5.763   4.623  1.2063  2.8975  0.0001
 3837TIP3    H232927   3.230   5.679   4.523 -0.8591 -1.5722  1.9289
 3838TIP3   OH232928   4.665   2.225  15.484  0.7200 -0.2498 -0.6224
 3838TIP3    H132929   4.637   2.304  15.530  0.8801 -0.8364  0.5177
 3838TIP3    H232930   4.629   2.153  15.535  1.2860 -0.9412 -1.1664
 3839TIP3   OH232931   1.630   5.160  11.036 -0.3260 -0.4246 -0.2135
 3839TIP3    H132932   1.555   5.128  11.086 -1.2235  1.3198 -0.3486
 3839TIP3    H232933   1.601   5.157  10.944  0.5054 -1.5566 -0.4598
 3840TIP3   OH232934   2.107   0.742   5.262 -0.4252  0.0051 -0.2510
 3840TIP3    H132935   2.173   0.807   5.284 -0.3770 -0.5130  1.2777
 3840TIP3    H232936   2.093   0.694   5.343  0.2686 -2.5462 -1.5248
 3841TIP3   OH232937   1.912   5.668   1.883  0.8249  0.6030  0.0944
 3841TIP3    H132938   1.983   5.618   1.925 -0.6528 -2.2652 -0.5392
 3841TIP3    H232939   1.936   5.670   1.791  0.2323 -0.1766 -0.0865
 3842TIP3   OH232940   2.255   6.448   2.018 -0.5992  0.2721 -0.3683
 3842TIP3    H132941   2.213   6.507   2.082 -0.3421 -1.4521  1.5038
 3842TIP3    H232942   2.219   6.362   2.038  1.6409 -0.7941 -0.6318
 3843TIP3   OH232943   2.081   0.645  11.354 -0.3853 -0.2824  0.2823
 3843TIP3    H132944   2.163   0.598  11.370  0.6037  0.1758 -2.8219
 3843TIP3    H232945   2.092   0.728  11.400 -0.2730 -1.2383  2.0733
 3844TIP3   OH232946   1.340   6.176   5.681  0.1741  0.1814  0.4396
 3844TIP3    H132947   1.428   6.142   5.696 -0.2579 -0.2120  2.3202
 3844TIP3    H232948   1.337   6.194   5.587  2.4696  0.8435  0.4330
 3845TIP3   OH232949   3.062   5.743  14.459 -0.0989 -0.0247  0.0803
 3845TIP3    H132950   3.116   5.664  14.455  2.2206  1.5245 -0.8651
 3845TIP3    H232951   3.069   5.772  14.549  0.3445 -0.0381  0.0519
 3846TIP3   OH232952   4.671   1.509  14.042  0.2003 -0.2634 -0.0358
 3846TIP3    H132953   4.582   1.536  14.063  0.1964  1.8382 -2.3651
 3846TIP3    H232954   4.661   1.423  14.001 -0.6441 -0.4098  0.4544
 3847TIP3   OH232955   3.966   3.145  14.109  0.0394 -0.4484 -0.3558
 3847TIP3    H132956   3.879   3.121  14.141 -0.0490 -1.4298 -1.2607
 3847TIP3    H232957   3.973   3.239  14.126 -1.7665 -0.0489 -1.5155
 3848TIP3   OH232958   6.561   1.321   4.399  0.7049 -0.7776 -0.0335
 3848TIP3    H132959   6.647   1.331   4.357  0.8575 -1.2747  0.1473
 3848TIP3    H232960   6.582   1.295   4.489  0.3717 -0.2626  0.1939
 3849TIP3   OH232961   1.877   6.311  16.236 -0.3022 -0.0082  0.0887
 3849TIP3    H132962   1.900   6.384  16.293  1.4623 -0.2375 -0.2555
 3849TIP3    H232963   1.929   6.238  16.270 -1.1260 -0.7936 -0.3023
 3850TIP3   OH232964   2.812   1.521  10.834 -0.2331 -0.2018  0.0209
 3850TIP3    H132965   2.848   1.576  10.763 -0.1342 -0.3692 -0.0578
 3850TIP3    H232966   2.878   1.526  10.903 -0.9514  1.0809  0.6552
 3851TIP3   OH232967   3.403   4.369  16.949 -0.1114 -0.1685 -0.4365
 3851TIP3    H132968   3.415   4.387  17.043 -1.2758 -0.5888 -0.1846
 3851TIP3    H232969   3.393   4.455  16.909 -0.0462 -0.0080 -0.1154
 3852TIP3   OH232970   2.847   1.501   5.826 -0.0644  0.0369  0.1637
 3852TIP3    H132971   2.847   1.409   5.854 -1.0663 -0.6311 -1.7932
 3852TIP3    H232972   2.937   1.530   5.841  1.4755 -2.5539 -2.7596
 3853TIP3   OH232973   6.108   5.395  13.657 -0.2047  0.3959 -0.4081
 3853TIP3    H132974   6.063   5.310  13.664 -0.0640  0.4480  1.6024
 3853TIP3    H232975   6.119   5.407  13.562 -1.2144 -1.2968 -0.8075
 3854TIP3   OH232976   1.241   5.727  15.425  0.1305 -0.3509  0.0950
 3854TIP3    H132977   1.228   5.762  15.513  1.1973  0.7502 -0.1654
 3854TIP3    H232978   1.231   5.802  15.367  0.9688 -0.7551 -0.6014
 3855TIP3   OH232979   5.617   1.241   3.097  0.0230 -0.6745 -0.6288
 3855TIP3    H132980   5.662   1.161   3.069 -0.1707 -1.4526  1.1783
 3855TIP3    H232981   5.563   1.265   3.021  0.4283 -1.9960 -1.3647
 3856TIP3   OH232982   3.025   0.771   6.077 -0.4037 -0.1569  0.1178
 3856TIP3    H132983   2.983   0.686   6.085  0.5774 -0.6967 -0.3385
 3856TIP3    H232984   3.068   0.769   5.991  1.9650 -0.2777  1.2358
 3857TIP3   OH232985   3.019   4.716  15.530 -0.0755 -0.9276  0.7481
 3857TIP3    H132986   2.947   4.672  15.485  0.5794 -2.8401  1.4596
 3857TIP3    H232987   3.097   4.667  15.503  0.6937 -0.2339  1.6579
 3858TIP3   OH232988   3.071   5.168   1.628 -1.0751 -0.1567  0.8756
 3858TIP3    H132989   3.087   5.099   1.563  2.1163  2.2641 -1.2621
 3858TIP3    H232990   3.001   5.221   1.590 -0.7977 -0.0203  0.5543
 3859TIP3   OH232991   6.189   1.683   1.072  0.0673 -0.2204  0.4238
 3859TIP3    H132992   6.190   1.624   1.147  0.6419 -0.8020 -0.0251
 3859TIP3    H232993   6.228   1.764   1.104 -1.6345  0.2843  1.3172
 3860TIP3   OH232994   2.439   5.710  11.951 -0.1195  0.2871 -0.0847
 3860TIP3    H132995   2.517   5.654  11.947 -0.4678 -0.3189  1.2296
 3860TIP3    H232996   2.427   5.728  12.044 -2.8494 -1.4718 -0.0087
 3861TIP3   OH232997   0.847   6.129  16.554  0.2625 -0.2069 -0.2628
 3861TIP3    H132998   0.845   6.152  16.461 -1.4220  2.8414  0.4206
 3861TIP3    H232999   0.768   6.167  16.590  0.5573 -1.8458  2.3686
 3862TIP3   OH233000   5.230   5.509   0.397  0.5508  0.4494  0.3375
 3862TIP3    H133001   5.198   5.454   0.326 -2.1796  0.3031  1.5401
 3862TIP3    H233002   5.271   5.583   0.353  0.0360 -0.2246 -1.3730
 3863TIP3   OH233003   6.016   0.665   0.651  0.6191 -0.3189 -0.1889
 3863TIP3    H133004   6.059   0.582   0.667  1.2927  0.0781  0.1061
 3863TIP3    H233005   5.950   0.646   0.584  1.3636 -0.9058 -0.7724
 3864TIP3   OH233006   5.458   5.160   0.574 -0.0790  0.0278  0.8231
 3864TIP3    H133007   5.477   5.229   0.637  1.2225  0.9270 -0.5150
 3864TIP3    H233008   5.461   5.203   0.489 -2.2740 -1.0534  0.1038
 3865TIP3   OH233009   6.594   4.962  13.142 -0.3750  0.3329 -0.3552
 3865TIP3    H133010   6.597   5.025  13.215 -0.1420  0.0774 -0.1403
 3865TIP3    H233011   6.674   4.910  13.153 -0.3439  0.2904 -0.7940
 3866TIP3   OH233012   3.618   4.894  15.611  0.0286  0.1592 -0.1663
 3866TIP3    H133013   3.591   4.979  15.646  2.2742  0.9225 -0.0918
 3866TIP3    H233014   3.592   4.897  15.519 -3.6481 -0.8483  0.6767
 3867TIP3   OH233015   2.823   1.175   1.114 -0.1679  0.1562  0.1654
 3867TIP3    H133016   2.885   1.200   1.046 -0.3618  3.3642  1.0373
 3867TIP3    H233017   2.738   1.171   1.069  0.0266 -0.0048 -0.1919
 3868TIP3   OH233018   5.483   4.389   0.418  0.2708  0.0362 -0.3233
 3868TIP3    H133019   5.432   4.324   0.369 -0.2357  0.6391 -0.6083
 3868TIP3    H233020   5.451   4.473   0.386  0.2440  0.4367  0.7392
 3869TIP3   OH233021   2.348   4.785   6.319  0.3652 -0.0393 -0.3536
 3869TIP3    H133022   2.280   4.792   6.385  1.0551  1.5989  0.2371
 3869TIP3    H233023   2.343   4.695   6.288 -1.5695 -0.1540  0.1854
 3870TIP3   OH233024   6.348   5.724   0.721 -0.1224  0.2856 -0.1112
 3870TIP3    H133025   6.325   5.741   0.813 -0.4384 -1.0130  0.0659
 3870TIP3    H233026   6.401   5.800   0.696 -0.7150  1.0644  0.8884
 3871TIP3   OH233027   0.742   2.558  16.548 -0.1424 -0.6286 -0.2554
 3871TIP3    H133028   0.688   2.523  16.618  0.0439 -1.2863 -0.4337
 3871TIP3    H233029   0.704   2.644  16.529  1.1151  0.5198  2.1138
 3872TIP3   OH233030   6.531   1.069  16.488  0.2758 -0.3513  0.4584
 3872TIP3    H133031   6.578   1.009  16.430 -0.1749 -0.5704  0.3123
 3872TIP3    H233032   6.469   1.013  16.534  0.5301 -0.1525  1.0459
 3873TIP3   OH233033   1.900   2.788  14.615  0.0697  1.1811 -0.2743
 3873TIP3    H133034   1.857   2.776  14.531 -1.0118 -0.2310  0.4449
 3873TIP3    H233035   1.886   2.881  14.636 -1.0623  1.1698 -0.9064
 3874TIP3   OH233036   2.100   5.506   5.362 -0.0980 -0.4256  0.7165
 3874TIP3    H133037   2.048   5.569   5.313  0.9705  0.1401  0.2965
 3874TIP3    H233038   2.121   5.550   5.444 -0.0965 -0.5772  0.7985
 3875TIP3   OH233039   1.967   2.442  17.165 -0.1760  0.2609 -0.2400
 3875TIP3    H133040   2.040   2.383  17.147 -1.5244 -1.0696 -1.7177
 3875TIP3    H233041   1.930   2.410  17.247  0.4314  0.4736  0.1237
 3876TIP3   OH233042   5.574   2.180   3.377  0.4570 -0.4435 -0.2222
 3876TIP3    H133043   5.604   2.249   3.318  1.4298 -0.1120  0.6328
 3876TIP3    H233044   5.548   2.226   3.457  2.2359 -1.1281  0.8060
 3877TIP3   OH233045   0.049   5.183  15.080 -0.5677 -0.5055  0.2810
 3877TIP3    H133046   0.049   5.274  15.050 -0.7781 -0.4106  0.5601
 3877TIP3    H233047   0.015   5.187  15.170 -0.4070 -0.8393  0.3592
 3878TIP3   OH233048   2.575   5.063   1.847  0.0696  0.2331 -0.8876
 3878TIP3    H133049   2.637   5.051   1.919  1.8986  3.0150 -1.8070
 3878TIP3    H233050   2.613   5.014   1.774 -1.3042 -1.8232 -0.3009
 3879TIP3   OH233051   4.688   6.404  14.153  0.6809 -0.1862 -0.1367
 3879TIP3    H133052   4.671   6.498  14.139  1.0758 -0.1576 -0.4594
 3879TIP3    H233053   4.772   6.402  14.200  0.8338 -0.3848 -0.4136
 3880TIP3   OH233054   1.623   0.785   0.836  0.5210 -0.5390 -0.5948
 3880TIP3    H133055   1.559   0.721   0.805  1.4161 -1.7281 -0.0847
 3880TIP3    H233056   1.598   0.867   0.795 -2.1344 -0.6498  0.6193
 3881TIP3   OH233057   4.501   4.965  15.918  0.0626  0.3981 -0.5189
 3881TIP3    H133058   4.491   5.059  15.904  0.0101  0.5811  0.6467
 3881TIP3    H233059   4.419   4.939  15.962  0.9729  0.2479  1.1742
 3882TIP3   OH233060   0.269   6.001  16.193  0.9177  0.7263 -0.4427
 3882TIP3    H133061   0.226   6.032  16.272 -0.5468 -0.5755 -0.6652
 3882TIP3    H233062   0.241   6.062  16.124 -1.3904 -0.5754 -0.7543
 3883TIP3   OH233063   4.938   6.713  12.863  0.2092  0.3670 -0.4973
 3883TIP3    H133064   5.009   6.649  12.860  0.0826  0.2516 -1.4490
 3883TIP3    H233065   4.858   6.661  12.852 -0.0436  0.4809  0.6918
 3884TIP3   OH233066   4.058   1.654   1.352 -0.4977  0.0136 -0.3034
 3884TIP3    H133067   4.124   1.701   1.299 -0.1088  1.5104  1.3935
 3884TIP3    H233068   3.976   1.698   1.331 -0.8941 -1.4163 -1.9172
 3885TIP3   OH233069   4.836   2.303   4.028 -0.7403  0.0205  0.5546
 3885TIP3    H133070   4.762   2.255   3.989  1.0461 -2.7003  0.2514
 3885TIP3    H233071   4.897   2.315   3.955 -0.0357  0.5059  1.2153
 3886TIP3   OH233072   2.633   6.035  14.228 -0.2736 -0.1972  0.0462
 3886TIP3    H133073   2.578   5.968  14.268  0.6121 -0.0295  1.6175
 3886TIP3    H233074   2.681   5.989  14.159 -1.6377 -0.5446 -0.7022
 3887TIP3   OH233075   1.936   3.033   4.948 -0.4752  0.1464 -0.0263
 3887TIP3    H133076   1.942   3.118   4.903 -1.2255  0.9047  1.2388
 3887TIP3    H233077   1.878   3.050   5.022 -1.5324 -1.7531 -0.3640
 3888TIP3   OH233078   6.371   4.586  16.204 -1.0543  0.6411 -0.4703
 3888TIP3    H133079   6.394   4.601  16.112  1.9987  0.0339  0.0647
 3888TIP3    H233080   6.365   4.674  16.241  0.9936  0.9101 -0.6404
 3889TIP3   OH233081   0.901   4.251  14.761  0.1937 -0.4394 -0.1079
 3889TIP3    H133082   0.806   4.238  14.761  0.1515 -0.2264  0.7856
 3889TIP3    H233083   0.928   4.225  14.849  1.1523 -1.7334 -0.7482
 3890TIP3   OH233084   1.953   0.907   2.601 -0.3423  0.7645 -0.0703
 3890TIP3    H133085   1.880   0.966   2.583 -2.1233 -1.1755  0.4253
 3890TIP3    H233086   1.939   0.833   2.541 -0.1082 -0.6689  1.5822
 3891TIP3   OH233087   3.251   2.577   1.761 -0.0485  0.0083  0.5647
 3891TIP3    H133088   3.178   2.535   1.716 -0.2745  0.8023  0.1772
 3891TIP3    H233089   3.310   2.603   1.691  0.0293  0.4446  0.7893
 3892TIP3   OH233090   2.292   3.159   4.651 -0.2909  0.3679  0.2623
 3892TIP3    H133091   2.277   3.067   4.673 -0.2521  0.6445  1.5534
 3892TIP3    H233092   2.364   3.185   4.709  0.2916  0.9781 -0.7212
 3893TIP3   OH233093   0.937   2.730  13.999 -0.1361 -0.0396  0.2006
 3893TIP3    H133094   0.893   2.669  13.940  0.5524 -2.1432  1.7565
 3893TIP3    H233095   1.008   2.767  13.946 -0.8278 -0.2322 -0.9010
 3894TIP3   OH233096   1.224   0.629  11.427  0.1200 -0.7679  0.3167
 3894TIP3    H133097   1.206   0.620  11.334  0.5349 -1.5488  0.3024
 3894TIP3    H233098   1.298   0.570  11.443 -0.4258 -1.2123  1.2765
 3895TIP3   OH233099   1.629   5.525  11.321 -0.9074  0.1432 -0.0385
 3895TIP3    H133100   1.711   5.544  11.366 -0.8297  2.0375 -0.9251
 3895TIP3    H233101   1.655   5.498  11.233 -1.2295  0.7460 -0.3211
 3896TIP3   OH233102   0.863   5.244   0.069 -0.2128 -0.6226  0.2051
 3896TIP3    H133103   0.869   5.245  -0.027  2.3354 -2.3455  0.2509
 3896TIP3    H233104   0.779   5.204   0.088 -1.5874  1.3682 -1.2407
 3897TIP3   OH233105   3.216   4.618   0.202  0.2268 -0.3677 -0.3895
 3897TIP3    H133106   3.221   4.522   0.196  2.4865 -0.4625  1.5736
 3897TIP3    H233107   3.140   4.641   0.148 -1.5814 -3.3983  0.6083
 3898TIP3   OH233108   2.855   6.237  13.534 -0.7002  0.5754 -0.0174
 3898TIP3    H133109   2.876   6.250  13.626 -1.7244 -1.4262  0.5516
 3898TIP3    H233110   2.866   6.143  13.520 -1.9569  0.6146 -1.5640
 3899TIP3   OH233111   1.576   4.916   1.937  0.1807 -0.2347 -0.0715
 3899TIP3    H133112   1.664   4.891   1.909  0.1321 -0.6856  0.1643
 3899TIP3    H233113   1.535   4.951   1.859  0.8600  0.8036  0.0224
 3900TIP3   OH233114   4.703   6.127   2.750  0.7409  0.1800  0.5657
 3900TIP3    H133115   4.742   6.047   2.713 -0.1604  0.2734 -0.6676
 3900TIP3    H233116   4.679   6.103   2.839  1.5343 -0.5735  0.5882
 3901TIP3   OH233117   0.719   1.379  12.530  0.1437  0.3977 -0.0988
 3901TIP3    H133118   0.671   1.461  12.543  0.8881  0.5533  2.0049
 3901TIP3    H233119   0.738   1.347  12.618  2.1239 -0.7158 -0.8519
 3902TIP3   OH233120   4.974   3.405   2.935  0.1610  0.5126 -0.1412
 3902TIP3    H133121   4.932   3.403   2.850 -0.5175  1.1177  0.1750
 3902TIP3    H233122   4.953   3.491   2.972  0.8443  0.4492  0.4398
 3903TIP3   OH233123   1.312   3.652   0.436  0.1393  0.4871 -0.2856
 3903TIP3    H133124   1.230   3.694   0.409 -1.3531  0.3577  3.3615
 3903TIP3    H233125   1.284   3.574   0.484  2.3173  0.6512  1.4510
 3904TIP3   OH233126   5.066   2.995   6.491  0.3809 -0.2852  0.1256
 3904TIP3    H133127   5.136   3.026   6.549 -0.6502  0.4299  1.0230
 3904TIP3    H233128   5.019   2.929   6.542 -0.2901  0.0473 -0.0546
 3905TIP3   OH233129   0.052   5.838  10.914 -0.0345  0.7287 -0.0878
 3905TIP3    H133130  -0.031   5.810  10.952  0.4428 -0.9251 -0.1888
 3905TIP3    H233131   0.108   5.760  10.917  1.9225  2.0753  1.0458
 3906TIP3   OH233132   3.375   1.643  14.353  0.3025  0.1799 -0.6305
 3906TIP3    H133133   3.378   1.567  14.410 -1.0288 -0.4192 -1.3146
 3906TIP3    H233134   3.328   1.613  14.275  2.2319  0.9122 -2.1611
 3907TIP3   OH233135   1.760   2.651   0.917 -0.4789 -0.5990  0.5709
 3907TIP3    H133136   1.761   2.670   0.823 -0.1372 -1.0951  0.4707
 3907TIP3    H233137   1.766   2.736   0.959  2.4802 -0.5143  0.1450
 3908TIP3   OH233138   1.463   0.310  14.145  0.2475 -0.4600  0.5473
 3908TIP3    H133139   1.411   0.294  14.224  1.7041  0.6929  1.8154
 3908TIP3    H233140   1.553   0.292  14.173  0.6318 -1.9034 -1.4237
 3909TIP3   OH233141   5.343   0.612  15.904 -0.2058 -0.0348 -0.2591
 3909TIP3    H133142   5.267   0.657  15.866 -2.4595 -2.0720  1.5260
 3909TIP3    H233143   5.352   0.533  15.852 -0.0625 -0.3586  0.2566
 3910TIP3   OH233144   4.781   5.590  14.058 -0.8428 -0.7178 -0.7851
 3910TIP3    H133145   4.867   5.564  14.090 -0.6534 -0.2359 -0.8926
 3910TIP3    H233146   4.793   5.602  13.964 -0.5807  1.0760 -0.5512
 3911TIP3   OH233147   3.056   2.399  17.356  0.3670  0.7219  0.8843
 3911TIP3    H133148   3.080   2.480  17.311  1.1205  0.7341  1.2966
 3911TIP3    H233149   3.123   2.336  17.327 -1.4800 -0.4211 -1.2612
 3912TIP3   OH233150   0.187   6.301   2.904  0.5307 -0.1349  0.2425
 3912TIP3    H133151   0.191   6.337   2.815  1.7456 -0.9054 -0.0412
 3912TIP3    H233152   0.120   6.234   2.900  0.5917 -0.1747 -0.1006
 3913TIP3   OH233153   5.066   5.909   1.217 -0.2880  0.3792  0.2019
 3913TIP3    H133154   5.038   5.889   1.306  0.3276 -0.4334  0.2239
 3913TIP3    H233155   5.123   5.836   1.193 -0.0833  0.8219 -0.6907
 3914TIP3   OH233156   4.649   1.707  14.536 -0.5511 -0.2065 -0.1796
 3914TIP3    H133157   4.643   1.616  14.508 -0.6392 -1.7755  4.1480
 3914TIP3    H233158   4.559   1.738  14.538 -0.6458 -0.4629 -0.4360
 3915TIP3   OH233159   6.243   5.200  15.978 -0.1486  0.0748 -0.2823
 3915TIP3    H133160   6.279   5.195  16.066 -0.3190 -0.7927 -0.2520
 3915TIP3    H233161   6.310   5.244  15.927  0.0704  0.3288  0.2185
 3916TIP3   OH233162   3.977   0.935  13.823  0.3577 -0.0060  0.5760
 3916TIP3    H133163   3.967   0.841  13.806 -0.3584  0.5514 -2.7439
 3916TIP3    H233164   4.071   0.948  13.832  0.9918 -0.5783 -3.4226
 3917TIP3   OH233165   1.341   1.893  16.206 -0.1989  0.2294 -0.0854
 3917TIP3    H133166   1.432   1.909  16.181 -0.5574 -1.7260 -2.9892
 3917TIP3    H233167   1.291   1.906  16.126 -2.4117  0.2215  1.2045
 3918TIP3   OH233168   2.047   3.589   5.000  0.1567  0.3984  0.0914
 3918TIP3    H133169   2.053   3.612   4.908 -0.3839  0.8226  0.1593
 3918TIP3    H233170   2.028   3.671   5.045 -2.3516 -0.2121  0.2761
 3919TIP3   OH233171   1.762   6.702  14.807  0.2915 -0.2740  0.2319
 3919TIP3    H133172   1.806   6.785  14.828  0.0143  0.1747 -0.9307
 3919TIP3    H233173   1.725   6.715  14.720  1.0918 -1.9590 -0.4164
 3920TIP3   OH233174   3.111   6.482   2.522  0.1267  0.9175  0.5213
 3920TIP3    H133175   3.061   6.484   2.440  1.8415  0.0722 -0.5865
 3920TIP3    H233176   3.061   6.423   2.579 -0.9543  1.3233  0.0239
 3921TIP3   OH233177   0.086   4.111  16.149  0.6055 -0.2711  0.4533
 3921TIP3    H133178   0.031   4.164  16.092  0.8961  0.6746  1.0226
 3921TIP3    H233179   0.159   4.169  16.172  1.4061 -1.2211  0.3731
 3922TIP3   OH233180   2.808   1.013   1.398 -0.2428 -0.1598  0.0763
 3922TIP3    H133181   2.759   1.070   1.338  2.1818  1.0299 -0.9086
 3922TIP3    H233182   2.823   0.933   1.348 -1.4545 -0.6949  0.5294
 3923TIP3   OH233183   5.034   0.435   5.179 -0.0417 -0.1952  0.8720
 3923TIP3    H133184   5.001   0.464   5.094 -0.0800 -2.5105  0.0329
 3923TIP3    H233185   5.059   0.516   5.223 -0.4231  1.1164 -1.1586
 3924TIP3   OH233186   0.618   2.472  15.537 -0.1531 -0.2803  0.0703
 3924TIP3    H133187   0.687   2.506  15.595  0.2131  1.2717 -1.2058
 3924TIP3    H233188   0.636   2.378  15.530  3.4228  0.3685 -2.1693
 3925TIP3   OH233189   4.912   2.259  15.336  0.0650 -0.0019 -0.3103
 3925TIP3    H133190   4.831   2.248  15.386  0.3322 -0.4722  0.0214
 3925TIP3    H233191   4.931   2.353  15.342  0.4155 -0.1335  0.9767
 3926TIP3   OH233192   0.694   0.546  14.546  0.4118  0.5989 -0.0269
 3926TIP3    H133193   0.622   0.575  14.489  0.7324  1.0158 -0.2244
 3926TIP3    H233194   0.767   0.603  14.522  1.1803 -0.6437 -0.7150
 3927TIP3   OH233195   1.239   1.368   0.993 -0.0206 -0.3343 -0.1460
 3927TIP3    H133196   1.302   1.383   0.922  1.1553  3.4365  1.4097
 3927TIP3    H233197   1.293   1.344   1.068 -0.7096  0.1314  0.5192
 3928TIP3   OH233198   1.978   5.653   6.533 -0.4243 -0.3594 -0.0999
 3928TIP3    H133199   2.036   5.579   6.550  0.1186 -0.0661 -0.6537
 3928TIP3    H233200   1.984   5.707   6.612  0.0205 -0.3459 -0.1449
 3929TIP3   OH233201   6.402   0.493  16.899 -0.2005 -0.1265 -0.2957
 3929TIP3    H133202   6.469   0.544  16.853 -0.9351  1.1723  0.0166
 3929TIP3    H233203   6.451   0.430  16.951  0.7661  0.4500 -0.4828
 3930TIP3   OH233204   5.069   4.722   5.932  0.0551  0.3186  0.3115
 3930TIP3    H133205   5.017   4.730   6.011 -0.7540  1.6653 -0.3237
 3930TIP3    H233206   5.159   4.739   5.960 -0.2728  1.1341  0.8717
 3931TIP3   OH233207   5.524   0.737   4.755  0.1890 -0.2930 -0.3116
 3931TIP3    H133208   5.466   0.736   4.831 -0.2593  2.4767 -0.5269
 3931TIP3    H233209   5.492   0.809   4.701  2.4315 -0.1543 -1.5800
 3932TIP3   OH233210   5.681   6.264   2.266  0.3932  0.0739 -0.0932
 3932TIP3    H133211   5.701   6.347   2.308 -0.4141 -0.5575  1.6586
 3932TIP3    H233212   5.587   6.254   2.276  0.5654 -1.3604  0.3802
 3933TIP3   OH233213   2.112   1.403  12.635  0.2025  0.2587 -0.4543
 3933TIP3    H133214   2.161   1.471  12.590 -0.3335  0.5123 -0.6564
 3933TIP3    H233215   2.081   1.445  12.715 -0.9647  0.5560 -1.0461
 3934TIP3   OH233216   2.610   0.270   1.212 -0.0924 -0.0251 -0.2185
 3934TIP3    H133217   2.694   0.254   1.253  0.6582 -3.4508 -2.7164
 3934TIP3    H233218   2.546   0.232   1.272  0.5262 -0.7871 -0.0262
 3935TIP3   OH233219   0.459   5.289  10.884 -0.0707 -0.1705  0.1405
 3935TIP3    H133220   0.481   5.200  10.908  0.8627 -0.0034 -0.0551
 3935TIP3    H233221   0.374   5.306  10.926  1.2060 -0.0618  2.8444
 3936TIP3   OH233222   5.553   0.132  17.121  0.4479 -0.0198  0.1430
 3936TIP3    H133223   5.472   0.081  17.118  1.5630 -1.8241 -1.6936
 3936TIP3    H233224   5.605   0.091  17.190  1.6006 -1.8878 -1.7539
 3937TIP3   OH233225   3.889   1.275  10.886  0.1098  0.2442 -0.0134
 3937TIP3    H133226   3.820   1.313  10.831 -1.0986 -0.5110  0.9396
 3937TIP3    H233227   3.880   1.180  10.872  0.5469  0.1096  0.6080
 3938TIP3   OH233228   5.585   4.047   5.018  0.2076  0.5065  1.1353
 3938TIP3    H133229   5.636   3.993   5.078 -0.3324 -0.0550  1.1062
 3938TIP3    H233230   5.518   3.988   4.984  1.1483  0.4945 -0.8609
 3939TIP3   OH233231   5.324   3.508   2.226 -0.1974  0.2749 -0.3889
 3939TIP3    H133232   5.294   3.417   2.230 -0.3070  0.3106 -0.3855
 3939TIP3    H233233   5.345   3.522   2.134  2.3604 -0.5577  0.0056
 3940TIP3   OH233234   3.964   1.327  14.799  0.2885  0.1110  0.2276
 3940TIP3    H133235   3.960   1.282  14.714 -0.5773  1.1893 -0.3338
 3940TIP3    H233236   3.970   1.256  14.863  1.9775 -0.7044 -0.7527
 3941TIP3   OH233237   6.711   1.316   5.645  0.0569  0.0814  0.0940
 3941TIP3    H133238   6.616   1.311   5.633  0.1045  1.3769 -1.2066
 3941TIP3    H233239   6.744   1.346   5.560  1.7287 -1.1139  0.2655
 3942TIP3   OH233240   6.571   2.322   4.255 -0.3416  0.3390  0.2849
 3942TIP3    H133241   6.662   2.329   4.284 -0.9491  0.2235  2.3471
 3942TIP3    H233242   6.545   2.233   4.278 -0.2605 -0.5538 -2.6621
 3943TIP3   OH233243   4.950   1.402  16.280 -0.0932 -0.2884  0.1264
 3943TIP3    H133244   4.947   1.405  16.376 -1.4094 -1.2328  0.1461
 3943TIP3    H233245   5.043   1.387  16.259  0.1544 -0.4175  1.2676
 3944TIP3   OH233246   1.409   4.395   3.216  0.1560  0.0263 -0.8370
 3944TIP3    H133247   1.331   4.409   3.270  0.2075 -1.5752 -0.3027
 3944TIP3    H233248   1.382   4.419   3.127 -1.1169 -1.0259 -0.7480
 3945TIP3   OH233249   0.984   0.307   1.497 -0.3352  0.0963  0.2041
 3945TIP3    H133250   1.002   0.305   1.403  0.9818  0.3403  0.4244
 3945TIP3    H233251   0.918   0.375   1.507 -1.8142 -1.1538 -0.7187
 3946TIP3   OH233252   1.420   6.347  16.245  0.0230  0.2670  0.6312
 3946TIP3    H133253   1.414   6.443  16.245  0.0965  0.2901  1.9442
 3946TIP3    H233254   1.495   6.328  16.189  0.6572  1.0438  1.1940
 3947TIP3   OH233255   4.409   4.218  16.862  0.3593 -0.7049 -0.3171
 3947TIP3    H133256   4.325   4.201  16.906  2.5734 -2.1730  3.8192
 3947TIP3    H233257   4.406   4.312  16.843 -1.7918 -0.4769  0.7427
 3948TIP3   OH233258   4.636   0.290  12.896  0.2441  0.4237 -0.3510
 3948TIP3    H133259   4.573   0.356  12.869  1.3062  0.9826 -1.6011
 3948TIP3    H233260   4.591   0.239  12.963 -0.2404  3.0602  1.4486
 3949TIP3   OH233261   0.448   3.505  15.362 -0.1785  0.2414 -0.0067
 3949TIP3    H133262   0.357   3.491  15.390 -0.2377 -0.3456 -0.4722
 3949TIP3    H233263   0.492   3.422  15.382  0.0704  0.2544 -0.4784
 3950TIP3   OH233264   0.094   2.575   6.832 -0.1448 -0.5061  0.2457
 3950TIP3    H133265   0.052   2.513   6.772  1.2289  0.1675 -1.5073
 3950TIP3    H233266   0.182   2.539   6.846  0.0201  0.0684  0.7425
 3951TIP3   OH233267   1.775   0.360  11.683  0.1502 -0.7551  0.4479
 3951TIP3    H133268   1.702   0.368  11.622  1.3833 -0.2186 -1.0092
 3951TIP3    H233269   1.746   0.295  11.747 -0.9435 -1.7867 -1.0447
 3952TIP3   OH233270   3.530   6.669   2.178 -0.0018 -0.2970  0.6619
 3952TIP3    H133271   3.495   6.753   2.148 -0.6648 -0.5965  0.5758
 3952TIP3    H233272   3.514   6.609   2.105 -0.0369 -0.6229  0.9349
 3953TIP3   OH233273   4.309   1.579   0.990 -0.3658 -0.2617  0.0356
 3953TIP3    H133274   4.265   1.494   0.988  0.2310 -0.6194  1.2975
 3953TIP3    H233275   4.241   1.641   1.017 -0.5213 -0.5193  0.2353
 3954TIP3   OH233276   4.399   4.867  16.532  0.2464  0.1676  0.6479
 3954TIP3    H133277   4.358   4.924  16.597 -0.2598 -0.9388  1.3148
 3954TIP3    H233278   4.466   4.819  16.581 -1.5432 -2.2280  0.8981
 3955TIP3   OH233279   6.538   3.978   2.393  0.4298 -0.5744 -0.2546
 3955TIP3    H133280   6.467   3.968   2.456  0.4786 -0.8462 -0.2413
 3955TIP3    H233281   6.494   3.997   2.310  0.3790  0.1553 -0.0736
 3956TIP3   OH233282   6.272   2.565  17.059  0.4348 -0.0225  0.0418
 3956TIP3    H133283   6.216   2.631  17.099  1.5519  0.6071  0.6141
 3956TIP3    H233284   6.317   2.523  17.133  1.1417 -0.1219 -0.4316
 3957TIP3   OH233285   1.225   1.596   1.734  0.2334  0.3729 -0.3498
 3957TIP3    H133286   1.159   1.537   1.698  1.0868  1.0378 -3.2365
 3957TIP3    H233287   1.203   1.602   1.827 -3.3357  0.0319 -1.0225
 3958TIP3   OH233288   0.063   2.982   4.468  0.5829  0.6751  0.1413
 3958TIP3    H133289  -0.018   2.940   4.438 -0.5404  2.7360  0.1160
 3958TIP3    H233290   0.073   2.952   4.558 -1.1231  1.5929  0.6836
 3959TIP3   OH233291   4.473   1.233  16.404  0.1321  0.0710  0.0770
 3959TIP3    H133292   4.411   1.265  16.337 -0.8170 -0.8398  0.4911
 3959TIP3    H233293   4.550   1.290  16.394  0.0750 -0.1082 -1.8749
 3960TIP3   OH233294   4.653   2.755   1.941 -0.1642  0.2389  0.1821
 3960TIP3    H133295   4.599   2.815   1.890  1.0463  0.8749 -0.3938
 3960TIP3    H233296   4.722   2.728   1.881 -0.6095 -1.6711  0.4686
 3961TIP3   OH233297   4.936   0.579  13.043 -0.1151  0.0783 -0.0098
 3961TIP3    H133298   4.906   0.541  13.126 -1.5737  0.9484 -0.1024
 3961TIP3    H233299   4.982   0.508  12.999 -1.9808 -1.3260  0.2132
 3962TIP3   OH233300   1.451   0.268  13.548 -0.1523 -0.3202  0.0066
 3962TIP3    H133301   1.419   0.302  13.464  0.2553 -0.4627 -0.2105
 3962TIP3    H233302   1.505   0.192  13.524  4.3372  2.5344 -0.1453
 3963TIP3   OH233303   0.105   4.161   4.746 -0.1315  0.2766 -0.0509
 3963TIP3    H133304   0.146   4.086   4.788 -0.7093  0.0345  0.0890
 3963TIP3    H233305   0.064   4.126   4.667  0.6489  0.6681 -0.6442
 3964TIP3   OH233306   5.540   3.254   4.501 -0.0285  0.2010 -0.3048
 3964TIP3    H133307   5.513   3.187   4.563 -1.7731  0.2483 -0.9581
 3964TIP3    H233308   5.608   3.212   4.449  0.9496 -0.0741  1.1392
 3965TIP3   OH233309   6.679   5.088  12.585  0.6074  0.2720 -0.4649
 3965TIP3    H133310   6.606   5.087  12.523  1.4247  0.4296 -1.4454
 3965TIP3    H233311   6.699   4.996  12.601 -1.0001  0.1650  1.2803
 3966TIP3   OH233312   0.898   4.029   3.018  0.5773 -0.3022 -0.9595
 3966TIP3    H133313   0.942   4.044   3.102  1.3227 -1.5469 -1.1020
 3966TIP3    H233314   0.820   4.085   3.022  1.8611  1.5436 -0.4730
 3967TIP3   OH233315   4.356   3.021  15.923 -0.6209  0.0479 -0.3126
 3967TIP3    H133316   4.366   2.952  15.988  0.2149 -1.4462 -1.9341
 3967TIP3    H233317   4.278   3.070  15.951 -1.2526 -1.5617  0.8819
 3968TIP3   OH233318   5.122   3.849   4.173  0.1630 -0.4088  0.0158
 3968TIP3    H133319   5.166   3.925   4.136  0.6307 -1.2094 -1.1165
 3968TIP3    H233320   5.140   3.854   4.267  0.3588  0.7534 -0.0697
 3969TIP3   OH233321   4.632   2.505   0.112  0.3430  0.3259 -0.2468
 3969TIP3    H133322   4.580   2.584   0.128 -0.3031 -0.2516  0.5915
 3969TIP3    H233323   4.576   2.433   0.140 -0.4465 -0.7621 -4.0816
 3970TIP3   OH233324   4.983   2.094  10.973 -0.1031  0.1212 -0.5985
 3970TIP3    H133325   4.978   2.013  11.023 -0.2773 -0.0350 -0.8701
 3970TIP3    H233326   4.920   2.152  11.016 -0.2024  0.0108 -0.5943
 3971TIP3   OH233327   3.477   6.448   6.080 -0.2544  0.6509  0.4862
 3971TIP3    H133328   3.552   6.455   6.139  2.0515  0.8091 -2.2204
 3971TIP3    H233329   3.471   6.355   6.059 -0.0629  0.7759 -0.1571
 3972TIP3   OH233330   2.915   1.591  13.626  0.4615  0.1422 -0.2239
 3972TIP3    H133331   2.848   1.656  13.647 -1.3916 -1.5932 -0.4194
 3972TIP3    H233332   2.957   1.572  13.710 -1.0309 -0.5165  0.4216
 3973TIP3   OH233333   4.135   3.664   1.993  0.8267 -0.7478 -0.0875
 3973TIP3    H133334   4.059   3.716   2.019  0.7966 -0.1683 -1.2580
 3973TIP3    H233335   4.196   3.671   2.066  0.9309  1.1474 -0.3128
 3974TIP3   OH233336   6.211   2.447  13.413  0.7178 -0.6371 -0.2767
 3974TIP3    H133337   6.226   2.539  13.436  1.6672 -1.3071  2.0718
 3974TIP3    H233338   6.118   2.433  13.429  1.3086 -1.0679  3.6742
 3975TIP3   OH233339   2.095   1.564  16.475 -0.2544 -0.9151  0.2147
 3975TIP3    H133340   2.013   1.516  16.488 -0.2222 -0.8540  0.6425
 3975TIP3    H233341   2.153   1.530  16.543 -0.1444 -0.4543  0.3473
 3976TIP3   OH233342   1.454   6.576   1.589 -0.2477 -0.0714  0.3497
 3976TIP3    H133343   1.386   6.548   1.650 -0.6366  0.0886 -0.0065
 3976TIP3    H233344   1.469   6.668   1.611  0.5055 -0.3426  1.0293
 3977TIP3   OH233345   4.277   2.571  11.638  0.3622 -0.1276 -0.4297
 3977TIP3    H133346   4.252   2.488  11.678 -0.8879  0.7485  0.6979
 3977TIP3    H233347   4.197   2.624  11.639  0.5291  0.3459 -3.1621
 3978TIP3   OH233348   5.364   0.785  15.125  0.0752  0.2054  0.2860
 3978TIP3    H133349   5.444   0.746  15.161  0.6077  2.5188  1.8712
 3978TIP3    H233350   5.391   0.819  15.039  0.2868 -0.6491  0.0119
 3979TIP3   OH233351   2.032   6.518   1.717 -0.2970 -0.3230 -0.2307
 3979TIP3    H133352   1.990   6.499   1.802  0.1683  0.5005  0.1971
 3979TIP3    H233353   2.110   6.463   1.716 -1.5385 -2.1791 -1.2103
 3980TIP3   OH233354   5.574   0.973   6.096  0.2769 -0.2922  0.3475
 3980TIP3    H133355   5.532   1.023   6.026 -0.3756 -0.6399  0.4780
 3980TIP3    H233356   5.622   0.904   6.051  0.7411  0.1280  0.1937
 3981TIP3   OH233357   0.354   5.390   6.242 -0.0390  0.1075 -0.5074
 3981TIP3    H133358   0.281   5.380   6.303  0.1395  0.4143 -0.2456
 3981TIP3    H233359   0.379   5.300   6.220  0.3036 -0.0127  0.3442
 3982TIP3   OH233360   3.998   1.799   5.692  0.0180  0.5904 -0.4498
 3982TIP3    H133361   3.957   1.880   5.659 -0.3739  0.7174  0.2995
 3982TIP3    H233362   4.071   1.830   5.746 -0.1302  0.4503 -0.1647
 3983TIP3   OH233363   2.360   0.550  11.282  0.0635  0.2580  0.0110
 3983TIP3    H133364   2.352   0.537  11.188 -0.1164  0.8837 -0.0659
 3983TIP3    H233365   2.425   0.620  11.292 -0.4070  0.6624  0.3133
 3984TIP3   OH233366   2.770   1.052  16.529 -0.2918 -0.0724  0.7631
 3984TIP3    H133367   2.716   0.994  16.474  0.1981 -1.3613  1.5967
 3984TIP3    H233368   2.829   1.095  16.467 -0.5873 -0.5615  0.1324
 3985TIP3   OH233369   0.893   3.328   5.289 -0.4665 -0.6439 -0.2301
 3985TIP3    H133370   0.942   3.320   5.371  0.8021  1.1459 -0.7592
 3985TIP3    H233371   0.810   3.283   5.306 -0.1610 -0.4678  1.9812
 3986TIP3   OH233372   3.818   6.581  13.732  0.6304 -0.0355  0.4417
 3986TIP3    H133373   3.771   6.664  13.725 -0.9834 -0.6753  2.5460
 3986TIP3    H233374   3.764   6.518  13.685  2.2674  0.1615 -1.8689
 3987TIP3   OH233375   0.633   3.957  11.108 -0.1747 -0.2225 -0.4812
 3987TIP3    H133376   0.699   3.903  11.065  0.1872 -0.0409 -0.1580
 3987TIP3    H233377   0.562   3.896  11.128 -0.6489 -0.1800 -1.9272
 3988TIP3   OH233378   5.595   5.231  11.778  0.0654 -0.8080  0.2046
 3988TIP3    H133379   5.503   5.211  11.800  0.2314 -0.2159  1.4737
 3988TIP3    H233380   5.628   5.149  11.741 -1.0475 -0.9516 -0.5126
 3989TIP3   OH233381   1.026   5.032  15.945  0.3800  0.4788 -0.2499
 3989TIP3    H133382   0.938   5.034  15.907  1.1593  2.8224 -2.2526
 3989TIP3    H233383   1.015   5.065  16.034 -0.5592  3.1511 -1.2542
 3990TIP3   OH233384   2.316   3.157  12.493  0.2268 -0.5771  0.0725
 3990TIP3    H133385   2.304   3.247  12.522  3.5496  0.7319 -2.1158
 3990TIP3    H233386   2.361   3.115  12.566 -3.0753 -1.2391  1.9491
 3991TIP3   OH233387   2.411   4.422   4.004 -0.3386  0.7367  0.6006
 3991TIP3    H133388   2.433   4.493   3.944  0.9674  0.4418  0.6862
 3991TIP3    H233389   2.494   4.377   4.018 -0.1395  1.8112  3.9559
 3992TIP3   OH233390   4.407   5.226  15.890  0.2955  0.1526 -0.3515
 3992TIP3    H133391   4.467   5.244  15.817  1.0071 -0.1268  0.1521
 3992TIP3    H233392   4.335   5.286  15.877  0.9016  0.8130 -0.7243
 3993TIP3   OH233393   1.240   5.235  12.815  0.1357 -0.2899  0.2558
 3993TIP3    H133394   1.223   5.180  12.891  0.1982 -0.0736  0.4281
 3993TIP3    H233395   1.333   5.256  12.820  0.6293 -1.9658 -1.0162
 3994TIP3   OH233396   2.418   0.292  11.877  0.3753  0.1294  0.8918
 3994TIP3    H133397   2.497   0.277  11.929  0.7969  0.5394  0.3851
 3994TIP3    H233398   2.354   0.326  11.939  0.8985  0.6869  1.1307
 3995TIP3   OH233399   2.645   0.458  13.254  0.4603 -0.0029  0.3404
 3995TIP3    H133400   2.594   0.523  13.207  0.4329 -0.8969 -0.9266
 3995TIP3    H233401   2.676   0.503  13.333  1.3010  1.8588 -0.9933
 3996TIP3   OH233402   1.090   0.078  12.365  0.1895 -0.1504 -0.2098
 3996TIP3    H133403   1.101   0.034  12.281  1.2046  0.0880 -0.2197
 3996TIP3    H233404   1.062   0.167  12.342  1.8196  0.3634 -0.4097
 3997TIP3   OH233405   3.478   5.421   4.166 -0.2134 -0.4982 -0.8947
 3997TIP3    H133406   3.551   5.401   4.107 -0.9840  0.8009 -2.3639
 3997TIP3    H233407   3.490   5.512   4.190 -0.3751 -0.7779  0.3429
 3998TIP3   OH233408   5.416   2.628   2.727  0.2136 -0.2087 -0.5879
 3998TIP3    H133409   5.326   2.648   2.754  1.1168  0.3458  2.4075
 3998TIP3    H233410   5.452   2.712   2.698  0.4286  0.0661  0.4427
 3999TIP3   OH233411   6.345   5.636  12.753 -0.1504 -0.1538 -0.0126
 3999TIP3    H133412   6.367   5.568  12.690  0.8857  0.1617 -0.0038
 3999TIP3    H233413   6.297   5.701  12.701  2.0001  0.8382 -0.8752
 4000TIP3   OH233414   1.077   4.822  17.509 -0.1822 -0.7868 -0.3868
 4000TIP3    H133415   1.157   4.792  17.465 -0.6011 -0.1028 -1.6768
 4000TIP3    H233416   1.021   4.851  17.437 -0.7530  0.7528  0.6479
 4001TIP3   OH233417   6.239   2.624   4.694  0.1771 -0.2538  0.1537
 4001TIP3    H133418   6.160   2.570   4.706 -1.1327  1.5689  0.1089
 4001TIP3    H233419   6.230   2.694   4.759  0.0136  1.9181 -2.0802
 4002TIP3   OH233420   4.550   0.951   1.087 -0.2303  0.2800  0.3199
 4002TIP3    H133421   4.622   0.967   1.149 -1.1678  0.8057  1.3032
 4002TIP3    H233422   4.504   1.034   1.082  0.1552  0.4116 -1.5528
 4003TIP3   OH233423   4.403   3.931  17.130 -0.2100 -0.1398 -0.5074
 4003TIP3    H133424   4.323   3.882  17.153  0.6616 -0.8213  1.2832
 4003TIP3    H233425   4.393   3.949  17.036 -1.5469 -1.9563 -0.7913
 4004TIP3   OH233426   3.945   6.435  12.889 -0.1481 -0.0646  0.2637
 4004TIP3    H133427   3.990   6.445  12.805 -0.5705 -0.2788  0.0103
 4004TIP3    H233428   3.872   6.376  12.870 -0.7107  0.5086  0.6027
 4005TIP3   OH233429   2.903   0.058   5.642 -0.1399  0.0220 -0.1855
 4005TIP3    H133430   2.988   0.067   5.599 -0.3961 -0.3022 -0.7602
 4005TIP3    H233431   2.925   0.035   5.733  0.3787 -1.2729 -0.6248
 4006TIP3   OH233432   0.995   5.489  13.416  0.4111  0.0630  0.0410
 4006TIP3    H133433   1.088   5.477  13.394  0.8690 -1.7018  2.5037
 4006TIP3    H233434   0.996   5.542  13.495 -0.8994  2.2163 -1.2837
 4007TIP3   OH233435   3.894   6.478  11.511 -0.4082 -0.4915 -0.0015
 4007TIP3    H133436   3.862   6.388  11.511 -1.5454 -0.1021 -0.4538
 4007TIP3    H233437   3.872   6.511  11.424 -0.1028  0.2652  0.2032
 4008TIP3   OH233438   1.569   1.519   5.969  0.4014  0.0985 -0.2258
 4008TIP3    H133439   1.505   1.485   5.907 -0.0689  1.8247 -0.7388
 4008TIP3    H233440   1.520   1.528   6.051  0.2905  0.3713 -0.3225
 4009TIP3   OH233441   4.634   2.105   2.569 -0.7816 -0.0891 -0.4128
 4009TIP3    H133442   4.571   2.147   2.511 -1.1284  1.6839  1.1601
 4009TIP3    H233443   4.580   2.048   2.625 -1.3597  2.5751  1.9671
 4010TIP3   OH233444   3.349   4.732   2.448  0.1378 -0.1777 -0.2680
 4010TIP3    H133445   3.353   4.673   2.523 -0.9602 -1.5800 -1.2558
 4010TIP3    H233446   3.395   4.685   2.378 -2.7671 -1.0161 -1.7548
 4011TIP3   OH233447   4.248   4.336   6.106 -0.8185  0.1917  0.7884
 4011TIP3    H133448   4.236   4.275   6.179  1.2487  0.4371  1.4053
 4011TIP3    H233449   4.176   4.316   6.045  0.7276 -4.1116  0.0599
 4012TIP3   OH233450   6.461   5.043   2.576  0.0232  0.1858  0.1052
 4012TIP3    H133451   6.387   5.099   2.598 -0.8618 -0.2326 -1.6535
 4012TIP3    H233452   6.425   4.955   2.571  1.2387 -0.4732  1.9996
 4013TIP3   OH233453   2.365   6.636  13.062 -0.4453 -0.2179 -0.2691
 4013TIP3    H133454   2.371   6.727  13.033  1.7465 -0.3955 -0.5550
 4013TIP3    H233455   2.424   6.632  13.138 -1.3772 -1.1639  0.4276
 4014TIP3   OH233456   6.178   4.661   4.701  0.4959  0.2528  0.5951
 4014TIP3    H133457   6.175   4.602   4.775  1.5579 -0.0660  0.4032
 4014TIP3    H233458   6.086   4.679   4.680  0.1862  0.0966  1.7697
 4015TIP3   OH233459   0.043   2.627   3.503 -0.0656  0.0146  0.0751
 4015TIP3    H133460  -0.051   2.631   3.519 -0.1078  0.9535 -0.3677
 4015TIP3    H233461   0.071   2.548   3.549 -1.1449 -0.5517 -0.1860
 4016TIP3   OH233462   6.436   1.094   5.463  0.9152 -0.3966  0.4772
 4016TIP3    H133463   6.425   1.159   5.533 -1.9198 -2.3090  1.9928
 4016TIP3    H233464   6.480   1.020   5.506 -0.7154 -1.5291  0.2847
 4017TIP3   OH233465   1.379   0.456   5.531 -0.0063 -0.1855  0.0296
 4017TIP3    H133466   1.299   0.479   5.484  0.2573  0.8816  0.0804
 4017TIP3    H233467   1.449   0.503   5.485  0.5723 -0.9587  0.0990
 4018TIP3   OH233468   5.955   4.177  16.368  0.7944  0.1902  0.0209
 4018TIP3    H133469   6.045   4.211  16.363  1.5143 -1.4506  0.8950
 4018TIP3    H233470   5.966   4.082  16.362 -0.8233 -0.0744  0.8734
 4019TIP3   OH233471   3.172   5.962   3.457  0.2309  0.0973 -0.2606
 4019TIP3    H133472   3.130   6.047   3.444 -0.7810 -0.0773  1.6016
 4019TIP3    H233473   3.239   5.957   3.388 -1.6729  1.0982 -2.2840
 4020TIP3   OH233474   4.857   3.361  14.009 -0.4224 -0.3851  0.1882
 4020TIP3    H133475   4.906   3.441  13.989  0.3180 -0.8378  0.1417
 4020TIP3    H233476   4.912   3.290  13.974 -0.8263 -0.9466  0.6740
 4021TIP3   OH233477   3.952   2.446  14.308  0.7743 -0.3085 -0.3623
 4021TIP3    H133478   3.973   2.537  14.327  1.9207  0.1791 -3.3489
 4021TIP3    H233479   3.873   2.450  14.254  1.6489 -0.8829 -1.7642
 4022TIP3   OH233480   2.062   2.062  14.864 -0.0751 -0.2315 -0.1621
 4022TIP3    H133481   2.133   2.116  14.828  0.9552  0.4015  2.5814
 4022TIP3    H233482   2.059   1.986  14.807  0.9988  0.9743 -1.9301
 4023TIP3   OH233483   1.631   4.557  15.209 -0.0901  0.0492  0.2871
 4023TIP3    H133484   1.638   4.462  15.194 -0.7460 -0.0555  0.6015
 4023TIP3    H233485   1.569   4.565  15.281  0.7280  0.6838  0.9428
 4024TIP3   OH233486   0.255   3.705   6.535  0.1203  0.1830 -0.0258
 4024TIP3    H133487   0.284   3.793   6.510  0.7313  0.8467  2.7396
 4024TIP3    H233488   0.321   3.674   6.597 -2.0828 -0.5980  2.1022
 4025TIP3   OH233489   3.184   0.283  15.223  0.0311  0.5990  1.1796
 4025TIP3    H133490   3.257   0.271  15.163 -0.1293  2.2761  0.6239
 4025TIP3    H233491   3.108   0.249  15.175  0.5172 -2.3078  2.2121
 4026TIP3   OH233492   2.744   2.839  12.039 -0.0347  0.0084  0.2579
 4026TIP3    H133493   2.770   2.748  12.054  1.3356  0.2779 -0.3344
 4026TIP3    H233494   2.706   2.867  12.122 -2.5460 -1.7457 -0.1905
 4027TIP3   OH233495   0.289   1.142  13.719  0.4670  0.2146 -0.4230
 4027TIP3    H133496   0.238   1.223  13.716 -1.0118 -0.6883 -0.6215
 4027TIP3    H233497   0.237   1.079  13.670  1.4120 -0.9689  0.0493
 4028TIP3   OH233498   0.947   3.618   1.618 -0.8216 -0.4090 -0.0702
 4028TIP3    H133499   0.990   3.664   1.690  0.5184  0.5126 -1.3968
 4028TIP3    H233500   0.976   3.527   1.626  0.3360 -0.0696 -0.1273
 4029TIP3   OH233501   0.805   0.467  12.680  0.0001  0.3160  0.2047
 4029TIP3    H133502   0.750   0.491  12.606 -0.3607  2.0113  0.9798
 4029TIP3    H233503   0.760   0.502  12.756  0.5144 -1.1193  1.2310
 4030TIP3   OH233504   3.093   1.421  11.238 -0.0650 -0.2654  0.3253
 4030TIP3    H133505   3.122   1.367  11.311  0.0079 -0.4296  0.1771
 4030TIP3    H233506   3.104   1.365  11.161 -1.5414 -0.6231  0.3472
 4031TIP3   OH233507   6.573   6.479  16.412 -0.0543 -0.0879  0.3835
 4031TIP3    H133508   6.573   6.518  16.499  2.0423  2.1591 -0.4966
 4031TIP3    H233509   6.495   6.515  16.369  0.6893  1.4857  0.3022
 4032TIP3   OH233510   4.252   2.589  14.378  0.3827  0.0117  0.5500
 4032TIP3    H133511   4.186   2.625  14.437 -0.2487  0.4290 -0.3814
 4032TIP3    H233512   4.258   2.653  14.307  0.9729 -0.5766  0.0598
 4033TIP3   OH233513   2.766   3.404   5.638 -0.2884  0.3504  0.3301
 4033TIP3    H133514   2.779   3.467   5.708  2.0151 -2.0220  2.2515
 4033TIP3    H233515   2.674   3.379   5.645 -0.3069  0.7535  2.0494
 4034TIP3   OH233516   5.989   2.199   5.576  0.1625 -0.1458 -0.0326
 4034TIP3    H133517   5.997   2.106   5.600  0.3095  0.2644  1.6440
 4034TIP3    H233518   6.041   2.244   5.643 -0.6139  1.2071 -0.3260
 4035TIP3   OH233519   0.435   1.226   2.196 -0.1798  0.3567  0.5437
 4035TIP3    H133520   0.421   1.285   2.271 -2.7002  0.1617  0.3300
 4035TIP3    H233521   0.347   1.215   2.159  0.6930 -1.2566 -1.1637
 4036TIP3   OH233522   4.761   6.439  11.540  0.2410 -0.0676  0.1416
 4036TIP3    H133523   4.698   6.370  11.520 -0.6996  0.5019  1.0344
 4036TIP3    H233524   4.815   6.446  11.462 -1.8043  0.5059 -1.3170
 4037TIP3   OH233525   1.534   2.517  14.973  0.2692 -0.0822  0.5681
 4037TIP3    H133526   1.556   2.432  15.012  2.3541 -0.0420 -0.4030
 4037TIP3    H233527   1.533   2.501  14.879 -1.2034  0.5922  0.4414
 4038TIP3   OH233528   3.083   1.282  14.402  0.2191 -0.2488 -0.0452
 4038TIP3    H133529   3.138   1.208  14.378 -1.3399 -1.1566 -0.9748
 4038TIP3    H233530   3.007   1.243  14.445 -1.2289  0.6620 -1.6468
 4039TIP3   OH233531   3.973   5.085   3.674  0.2672  0.6571 -0.6976
 4039TIP3    H133532   3.947   5.013   3.731 -1.9160  1.7352 -0.2102
 4039TIP3    H233533   4.027   5.142   3.728  1.3148 -0.1739 -0.8458
 4040TIP3   OH233534   3.700   1.213   2.090 -0.2742  0.0432  0.1757
 4040TIP3    H133535   3.631   1.147   2.085 -0.1981 -0.1171  1.0194
 4040TIP3    H233536   3.720   1.235   1.999  1.4359 -2.8967 -0.2865
 4041TIP3   OH233537   5.354   5.093   5.662  0.1275  0.4498 -0.4172
 4041TIP3    H133538   5.411   5.158   5.701  2.5060 -1.5650 -0.3033
 4041TIP3    H233539   5.334   5.032   5.732 -1.9728  0.8779 -0.5460
 4042TIP3   OH233540   0.311   4.253   3.294  0.2914  0.5195  0.7705
 4042TIP3    H133541   0.228   4.208   3.276  0.0690  0.9120  0.7869
 4042TIP3    H233542   0.307   4.275   3.387  0.0374  1.2791  0.5861
 4043TIP3   OH233543   0.149   4.452   2.793 -0.1182  0.2152  0.5787
 4043TIP3    H133544   0.177   4.496   2.874 -0.7485  0.0148  0.9139
 4043TIP3    H233545   0.068   4.407   2.818  1.4010 -2.6268  0.7451
 4044TIP3   OH233546   3.076   2.479   1.582 -0.9600  0.1006 -0.2354
 4044TIP3    H133547   3.058   2.409   1.520 -1.6852  1.4140 -1.5871
 4044TIP3    H233548   2.991   2.521   1.596 -0.7326  0.0880  1.3657
 4045TIP3   OH233549   1.506   0.770   1.840 -0.0943 -0.0612 -0.3210
 4045TIP3    H133550   1.457   0.798   1.918  1.3126 -1.0214  0.9889
 4045TIP3    H233551   1.457   0.695   1.807  0.2697 -0.8208  0.7899
 4046TIP3   OH233552   2.932   4.019  11.584 -0.7133  0.2371 -0.0728
 4046TIP3    H133553   2.899   3.939  11.543 -0.8846 -0.1370  0.7731
 4046TIP3    H233554   2.909   4.089  11.523 -1.2239 -0.2698 -0.4686
 4047TIP3   OH233555   4.668   6.620  14.751  0.8146 -0.5341  0.2911
 4047TIP3    H133556   4.673   6.713  14.731 -2.0898 -0.5464 -0.9681
 4047TIP3    H233557   4.714   6.577  14.678  1.8930 -0.1278  0.7178
 4048TIP3   OH233558   3.774   3.515  14.864  0.0146  0.3205  0.2254
 4048TIP3    H133559   3.748   3.572  14.937  0.4256 -1.0232  1.4746
 4048TIP3    H233560   3.693   3.475  14.835  0.1184 -1.1026  1.7138
 4049TIP3   OH233561   4.334   5.716  15.689 -0.9009  0.0411 -0.2297
 4049TIP3    H133562   4.383   5.776  15.633  0.1537 -0.0138  0.5977
 4049TIP3    H233563   4.298   5.773  15.757 -1.9626  0.0713 -0.7984
 4050TIP3   OH233564   1.419   0.978  15.073 -0.9541 -0.6284  0.2284
 4050TIP3    H133565   1.389   0.932  15.151 -1.0094 -2.4206 -0.8084
 4050TIP3    H233566   1.441   0.909  15.011 -3.4578  0.6907 -2.3493
 4051TIP3   OH233567   0.146   2.137   3.076  0.1833  0.0291 -0.7620
 4051TIP3    H133568   0.157   2.043   3.086 -0.5340  0.1220  1.3540
 4051TIP3    H233569   0.231   2.168   3.044  0.7856 -1.1906 -0.3831
 4052TIP3   OH233570   6.657   0.175   3.023  0.2489 -0.4037  0.2942
 4052TIP3    H133571   6.732   0.233   3.040  0.7939 -1.3873  1.4131
 4052TIP3    H233572   6.580   0.229   3.042  0.6732  0.4697 -0.3791
 4053TIP3   OH233573   1.615   4.860  13.740 -0.4384  0.2337 -0.3501
 4053TIP3    H133574   1.538   4.881  13.686 -0.6270 -1.8195 -0.9661
 4053TIP3    H233575   1.684   4.916  13.705 -1.4525  1.5583 -0.2997
 4054TIP3   OH233576   3.093   5.946   0.366 -0.6368 -0.5462 -0.3924
 4054TIP3    H133577   3.129   6.026   0.328  1.0689 -1.3518 -0.5529
 4054TIP3    H233578   3.057   5.974   0.450 -0.2277  0.4115 -0.5186
 4055TIP3   OH233579   6.170   4.536  13.453  0.6042 -0.1262  0.4777
 4055TIP3    H133580   6.147   4.599  13.385  2.0911 -0.8318 -0.7285
 4055TIP3    H233581   6.101   4.470  13.449 -0.2575  0.7282  0.8711
 4056TIP3   OH233582   2.076   4.920  11.736  0.5099  0.2265 -0.4559
 4056TIP3    H133583   2.065   4.825  11.731  0.8954  0.0857  0.9742
 4056TIP3    H233584   2.002   4.955  11.685  0.5573 -0.8250 -1.2825
 4057TIP3   OH233585   1.921   1.809  16.489 -0.0032  0.3709  0.4665
 4057TIP3    H133586   1.925   1.855  16.405  0.0048 -1.4156 -0.5669
 4057TIP3    H233587   1.999   1.754  16.490 -1.8862 -2.4921 -0.1553
 4058TIP3   OH233588   5.805   4.409  16.276  0.2168 -0.1551  0.6403
 4058TIP3    H133589   5.847   4.332  16.313  0.3978  0.7275  2.3894
 4058TIP3    H233590   5.864   4.437  16.206  1.2559 -0.3870  1.4010
 4059TIP3   OH233591   3.034   5.460   2.459  0.0948 -0.7714 -0.5394
 4059TIP3    H133592   3.042   5.364   2.462 -0.1315 -0.9419 -3.3090
 4059TIP3    H233593   3.032   5.481   2.366 -0.9200  1.8655 -0.0036
 4060TIP3   OH233594   2.620   1.063  11.440 -0.4650  0.5593  0.4489
 4060TIP3    H133595   2.578   1.095  11.519  2.3201  0.8140  1.9510
 4060TIP3    H233596   2.646   1.142  11.393  1.5511  0.5160  1.4128
 4061TIP3   OH233597   0.704   0.144  12.534 -0.4183  0.4880 -0.0694
 4061TIP3    H133598   0.672   0.227  12.568  0.3954  0.6404  0.3371
 4061TIP3    H233599   0.732   0.163  12.445  1.5980  1.1361  0.6449
 4062TIP3   OH233600   5.088   4.998  15.449 -0.1827 -0.0691  0.2307
 4062TIP3    H133601   5.069   5.086  15.480  0.5907 -0.0604  0.7143
 4062TIP3    H233602   5.014   4.945  15.479  0.0929  0.1266  1.2752
 4063TIP3   OH233603   2.353   2.094  12.743 -0.5761 -0.2886 -0.1102
 4063TIP3    H133604   2.275   2.140  12.711 -0.5476  0.2092  0.4997
 4063TIP3    H233605   2.381   2.146  12.818 -0.2780 -1.0612  0.3237
 4064TIP3   OH233606   6.108   0.326   6.241  0.0767 -0.5746 -0.1780
 4064TIP3    H133607   6.141   0.394   6.183 -0.3682 -0.4484 -0.2906
 4064TIP3    H233608   6.091   0.251   6.184 -0.3480 -0.4550 -0.2169
 4065TIP3   OH233609   1.811   2.565   1.618  0.1426 -0.3540 -0.3902
 4065TIP3    H133610   1.781   2.488   1.569 -1.3829 -0.0863  0.0743
 4065TIP3    H233611   1.733   2.618   1.630  0.7528  0.2718  1.1151
 4066TIP3   OH233612   5.030   5.171  13.741  0.4188  0.6385  0.1850
 4066TIP3    H133613   5.092   5.212  13.681  1.2809 -0.3969  0.3310
 4066TIP3    H233614   4.945   5.209  13.718  1.2082  2.8271  0.6214
 4067TIP3   OH233615   2.730   0.299  12.566 -0.0557 -0.5605 -0.0775
 4067TIP3    H133616   2.704   0.364  12.501  2.3840  0.6692  0.0700
 4067TIP3    H233617   2.795   0.343  12.621 -3.1849 -0.8782  4.4856
 4068TIP3   OH233618   0.417   3.827   1.421 -0.0389 -0.3586 -0.1200
 4068TIP3    H133619   0.405   3.871   1.337  0.2985 -0.7333 -0.3668
 4068TIP3    H233620   0.461   3.745   1.400  1.1553  0.0714  0.5309
 4069TIP3   OH233621   3.183   5.544  12.051 -0.0656 -0.3140  0.0107
 4069TIP3    H133622   3.151   5.549  11.961  1.4329  0.5670 -0.5211
 4069TIP3    H233623   3.117   5.493  12.098 -2.3564  1.6529 -0.9041
 4070TIP3   OH233624   4.162   2.504  12.008 -0.2047  0.3246 -0.1439
 4070TIP3    H133625   4.235   2.509  12.069  1.4938 -1.6946 -1.8528
 4070TIP3    H233626   4.192   2.444  11.940 -2.2987  1.8340 -2.5585
 4071TIP3   OH233627   5.900   5.832  13.214 -0.0112  0.8290  0.1443
 4071TIP3    H133628   5.927   5.752  13.168  0.2308  0.9828  0.0141
 4071TIP3    H233629   5.951   5.831  13.295  0.6790  1.3125 -0.2751
 4072TIP3   OH233630   6.484   2.439  17.577  0.1446 -0.6821 -0.8448
 4072TIP3    H133631   6.390   2.431  17.561  0.4594 -0.8453 -2.8794
 4072TIP3    H233632   6.504   2.532  17.562  0.3402 -0.6897 -0.6431
 4073TIP3   OH233633   0.489   1.421   0.932  0.3044  0.6841 -0.5000
 4073TIP3    H133634   0.421   1.354   0.942  0.7879  0.3566  0.9026
 4073TIP3    H233635   0.442   1.504   0.943  0.2112  0.4356  1.3185
 4074TIP3   OH233636   5.268   1.280  15.889  0.1430 -0.2627  0.5137
 4074TIP3    H133637   5.187   1.321  15.857  1.4040 -0.5559 -3.6309
 4074TIP3    H233638   5.254   1.186  15.877  0.2841 -0.5222  2.1317
 4075TIP3   OH233639   3.354   3.422  13.190  0.0234 -0.4415 -0.8491
 4075TIP3    H133640   3.290   3.489  13.167  0.6147 -0.2842 -2.0823
 4075TIP3    H233641   3.319   3.383  13.271 -1.2055  0.1791 -1.0542
 4076TIP3   OH233642   5.426   0.508  16.174  0.0625  0.6666 -0.2777
 4076TIP3    H133643   5.344   0.483  16.217  0.8214  0.8648  1.3446
 4076TIP3    H233644   5.398   0.558  16.097 -1.3423  1.1872  0.5319
 4077TIP3   OH233645   0.781   1.800  16.600  0.2891 -0.2957 -0.8688
 4077TIP3    H133646   0.691   1.772  16.587  0.1162 -1.2775  1.8400
 4077TIP3    H233647   0.776   1.895  16.605 -1.0817 -0.4217  1.7549
 4078TIP3   OH233648   2.647   0.576  15.310  0.4538  0.4963 -0.5516
 4078TIP3    H133649   2.616   0.486  15.316 -0.3044  0.7409 -0.6435
 4078TIP3    H233650   2.567   0.629  15.307  0.7287  1.4428  3.0263
 4079TIP3   OH233651   1.549   4.001  13.222  0.5907 -1.1919 -0.4713
 4079TIP3    H133652   1.553   3.931  13.287 -0.2498  0.7240  1.8410
 4079TIP3    H233653   1.638   4.037  13.220  0.5520 -1.0738 -0.1432
 4080TIP3   OH233654   3.588   2.286  16.781 -0.1616 -0.2424  0.2837
 4080TIP3    H133655   3.661   2.323  16.730 -1.8212  1.8187 -0.7518
 4080TIP3    H233656   3.538   2.362  16.810 -3.5447 -1.5432 -1.5426
 4081TIP3   OH233657   0.963   4.394  13.599  0.3806  0.3004  0.3361
 4081TIP3    H133658   0.890   4.379  13.659 -0.7719  0.6640 -0.9083
 4081TIP3    H233659   1.004   4.474  13.631 -1.2879  1.4751 -0.2889
 4082TIP3   OH233660   5.540   2.465   3.884 -0.9875  0.0956  0.2782
 4082TIP3    H133661   5.485   2.503   3.815  1.4008 -2.9439 -3.7359
 4082TIP3    H233662   5.619   2.519   3.885 -0.0354 -1.1843 -1.2287
 4083TIP3   OH233663   0.038   2.276  11.795  0.0975 -0.0320  0.2610
 4083TIP3    H133664   0.003   2.191  11.824 -1.1288  0.8338  1.4384
 4083TIP3    H233665   0.122   2.283  11.839  0.0220 -0.4637  0.4805
 4084TIP3   OH233666   4.361   2.964   2.692  0.6896 -0.0174  0.1424
 4084TIP3    H133667   4.389   3.039   2.745  1.7487  0.9928 -1.7210
 4084TIP3    H233668   4.267   2.978   2.679  0.8461  0.9341 -0.0608
 4085TIP3   OH233669   0.935   5.043   1.809 -0.2197 -0.1673  0.3414
 4085TIP3    H133670   0.920   5.134   1.835  1.8775 -0.2893  2.2763
 4085TIP3    H233671   1.028   5.038   1.790 -0.0174 -2.1544  1.5218
 4086TIP3   OH233672   1.288   1.711   5.256 -0.5776  0.3234 -0.1552
 4086TIP3    H133673   1.300   1.732   5.349  1.8531 -0.2189 -0.2720
 4086TIP3    H233674   1.377   1.693   5.225 -1.4256 -0.1306 -2.4444
 4087TIP3   OH233675   3.652   1.871  11.484  0.1443 -0.4765  0.6744
 4087TIP3    H133676   3.624   1.783  11.509  1.0184 -1.4986 -1.6435
 4087TIP3    H233677   3.630   1.878  11.391  0.0666  1.7984  0.8041
 4088TIP3   OH233678   5.051   3.189  13.968 -0.1899 -0.4793  0.0149
 4088TIP3    H133679   5.108   3.266  13.967  0.2406 -0.7903 -0.0188
 4088TIP3    H233680   5.047   3.160  13.877  0.2547 -0.9268  0.1326
 4089TIP3   OH233681   1.839   4.362  14.532  0.1764  0.2892 -0.5071
 4089TIP3    H133682   1.885   4.446  14.527  2.3236 -0.8707 -2.0065
 4089TIP3    H233683   1.815   4.354  14.624 -0.1394  2.5379 -0.3253
 4090TIP3   OH233684   5.213   1.130   3.604  0.0641 -0.6644 -0.2783
 4090TIP3    H133685   5.173   1.133   3.691  2.5221 -2.1097  1.0145
 4090TIP3    H233686   5.277   1.201   3.604 -0.2030 -0.4072 -1.0946
 4091TIP3   OH233687   3.580   0.011   1.788 -0.1718 -0.2702  0.3710
 4091TIP3    H133688   3.595   0.086   1.845 -0.5925 -0.8784  1.3018
 4091TIP3    H233689   3.484   0.004   1.782 -0.1336 -0.5090 -0.0160
 4092TIP3   OH233690   2.816   4.949   3.284  0.2238  0.2407  0.0360
 4092TIP3    H133691   2.860   4.958   3.199  0.3369 -0.2122  0.0458
 4092TIP3    H233692   2.844   5.025   3.334  0.0492  0.5845 -0.3811
 4093TIP3   OH233693   1.218   5.959  15.300 -0.7253 -0.3629  0.4482
 4093TIP3    H133694   1.164   6.038  15.308 -0.6535 -0.4177  1.7317
 4093TIP3    H233695   1.294   5.987  15.249 -0.8719  0.3125  0.5908
 4094TIP3   OH233696   2.383   0.163   1.343 -0.2557  0.0085  0.0617
 4094TIP3    H133697   2.429   0.100   1.398  0.7150 -0.3043 -1.0487
 4094TIP3    H233698   2.348   0.111   1.270 -0.3238  0.5935 -0.3327
 4095TIP3   OH233699   5.633   1.698  16.360  0.3547 -0.1538  0.8809
 4095TIP3    H133700   5.613   1.792  16.359 -1.0628 -0.4094 -1.3793
 4095TIP3    H233701   5.729   1.695  16.364  0.5377  1.4752 -0.7218
 4096TIP3   OH233702   3.197   0.124  11.727 -0.4201 -0.2600 -0.3494
 4096TIP3    H133703   3.157   0.127  11.640  0.1268 -1.8966 -0.7064
 4096TIP3    H233704   3.267   0.189  11.724 -1.2368  0.6189 -0.6745
 4097TIP3   OH233705   3.417   2.028   0.704  0.0845  0.0325 -0.2799
 4097TIP3    H133706   3.453   1.963   0.765 -1.1067  1.3338  1.9318
 4097TIP3    H233707   3.488   2.042   0.641  0.7065 -2.7058 -0.3255
 4098TIP3   OH233708   3.238   3.419   3.912 -0.0198 -0.6490  0.1241
 4098TIP3    H133709   3.256   3.408   3.818  2.0355  0.2607  0.3714
 4098TIP3    H233710   3.152   3.463   3.915  0.9239  1.4728 -1.4442
 4099TIP3   OH233711   0.155   0.786   2.764  0.2760  0.5562 -0.3091
 4099TIP3    H133712   0.169   0.726   2.691  0.7741 -0.6751  0.7508
 4099TIP3    H233713   0.105   0.859   2.727 -0.9962 -0.8585 -1.4913
 4100TIP3   OH233714   6.338   1.158  14.783 -0.0427  0.2095  0.2694
 4100TIP3    H133715   6.263   1.110  14.818 -0.0894  1.3061  1.7513
 4100TIP3    H233716   6.397   1.090  14.750 -1.3295 -0.6997 -0.2358
 4101TIP3   OH233717   1.595   4.757  13.092 -0.2800 -0.8758  0.2699
 4101TIP3    H133718   1.658   4.694  13.057 -1.4517 -2.3305  0.6794
 4101TIP3    H233719   1.517   4.745  13.039 -0.8155 -0.3925  0.9296
 4102TIP3   OH233720   1.700   1.553   5.363  0.3239 -0.0037 -0.2303
 4102TIP3    H133721   1.705   1.608   5.284  1.8453 -0.5904 -0.5773
 4102TIP3    H233722   1.781   1.501   5.361 -0.4092 -1.2362  0.8435
 4103TIP3   OH233723   5.660   5.002   6.267 -0.7390  0.4282 -0.0444
 4103TIP3    H133724   5.715   5.050   6.328 -1.2540  0.8960  0.0570
 4103TIP3    H233725   5.702   4.916   6.258 -0.5413  0.4380  0.7890
 4104TIP3   OH233726   1.752   1.696  11.390 -0.2978 -0.3346 -0.4730
 4104TIP3    H133727   1.808   1.766  11.358  0.2025 -1.0944 -1.2875
 4104TIP3    H233728   1.714   1.657  11.311 -1.6619 -0.1015  0.0355
 4105TIP3   OH233729   5.131   2.572  16.439  0.2001 -0.3303  0.4163
 4105TIP3    H133730   5.140   2.488  16.483 -1.4453 -1.1836 -0.7956
 4105TIP3    H233731   5.045   2.605  16.466  0.3375  0.4159 -0.0143
 4106TIP3   OH233732   0.345   1.082   0.090 -0.3764  0.4612 -0.0527
 4106TIP3    H133733   0.341   1.027   0.011  1.5006 -0.8545  0.6906
 4106TIP3    H233734   0.253   1.098   0.113 -1.0732 -2.9976  0.0728
 4107TIP3   OH233735   5.897   0.209  11.705 -0.5032 -0.2470 -0.3315
 4107TIP3    H133736   5.890   0.166  11.620  1.6868  1.1543 -1.3157
 4107TIP3    H233737   5.834   0.282  11.700  0.7709  0.8316 -1.4683
 4108TIP3   OH233738   4.867   2.910   3.336  0.0037 -0.1526 -0.1477
 4108TIP3    H133739   4.837   2.925   3.246  0.4222  0.6689 -0.1611
 4108TIP3    H233740   4.958   2.881   3.326 -0.2687 -1.0731 -0.0329
 4109TIP3   OH233741   0.936   3.281   0.656  0.0396  0.2294  0.1198
 4109TIP3    H133742   0.894   3.204   0.695  0.2660  0.1355  0.1779
 4109TIP3    H233743   0.869   3.349   0.661 -0.7619 -0.4051 -1.4759
 4110TIP3   OH233744   0.590   0.434   0.177 -0.0108  0.1804  0.2792
 4110TIP3    H133745   0.675   0.412   0.214 -1.1123 -1.7406  1.8653
 4110TIP3    H233746   0.568   0.518   0.216  0.8258  0.3449  0.4232
 4111TIP3   OH233747   3.348   1.786   2.522  0.0816 -0.4045 -0.1202
 4111TIP3    H133748   3.384   1.790   2.433 -0.4642 -0.9920 -0.3779
 4111TIP3    H233749   3.261   1.746   2.511 -0.8547  1.3880  0.4240
 4112TIP3   OH233750   6.542   2.658   0.831  0.0036 -0.4341  0.3656
 4112TIP3    H133751   6.617   2.632   0.778  2.1743  0.7899  2.6198
 4112TIP3    H233752   6.490   2.714   0.773  2.5045  1.2455 -0.4262
 4113TIP3   OH233753   1.032   5.817   4.837 -0.0509 -0.2816 -0.7271
 4113TIP3    H133754   1.088   5.768   4.776  0.9328  1.2351 -1.1169
 4113TIP3    H233755   0.950   5.830   4.790  0.2043 -0.3097 -1.1833
 4114TIP3   OH233756   5.641   0.324  13.186 -0.5914  0.3231 -0.1277
 4114TIP3    H133757   5.600   0.393  13.237 -3.4571 -0.2598 -1.4407
 4114TIP3    H233758   5.669   0.259  13.251  0.0454  1.6367  0.9489
 4115TIP3   OH233759   3.889   4.038  14.625 -0.7425 -0.0929 -0.4134
 4115TIP3    H133760   3.862   4.039  14.717 -1.8568  0.2601 -0.7274
 4115TIP3    H233761   3.808   4.054  14.576 -0.1778 -0.3487 -1.4604
 4116TIP3   OH233762   0.767   3.566   4.857  0.3014  0.1842  0.0939
 4116TIP3    H133763   0.676   3.536   4.853  0.0136  0.9601  0.4669
 4116TIP3    H233764   0.789   3.564   4.951  0.1959  1.3054  0.1606
 4117TIP3   OH233765   4.002   3.236   4.637 -0.0390 -0.4317 -0.0100
 4117TIP3    H133766   3.926   3.188   4.671 -0.2460 -0.6693 -0.7805
 4117TIP3    H233767   4.061   3.168   4.606  0.7492 -0.2684  1.0909
 4118TIP3   OH233768   6.629   4.145  14.056  0.2319  0.2337  0.1157
 4118TIP3    H133769   6.588   4.221  14.097  0.8970  0.2015  0.8523
 4118TIP3    H233770   6.658   4.176  13.970 -0.6654  0.4476 -0.1248
 4119TIP3   OH233771   5.848   1.473  14.501  0.4157  0.5579 -0.1567
 4119TIP3    H133772   5.932   1.518  14.515  0.4128  1.2001 -1.9057
 4119TIP3    H233773   5.818   1.506  14.416 -1.1301 -0.4242 -0.0199
 4120TIP3   OH233774   4.473   6.350  17.216 -0.5523 -0.6852  0.0042
 4120TIP3    H133775   4.483   6.371  17.124  1.3695  1.1327  0.5545
 4120TIP3    H233776   4.533   6.278  17.231 -0.6097 -0.7519 -0.0870
 4121TIP3   OH233777   0.331   5.204  16.200  0.5512  0.5088 -0.1916
 4121TIP3    H133778   0.245   5.243  16.216  0.8892  1.4914 -0.7062
 4121TIP3    H233779   0.313   5.111  16.189 -0.7691  0.9497 -2.5081
 4122TIP3   OH233780   0.084   1.787  11.210  0.0082  0.1201  0.4904
 4122TIP3    H133781   0.089   1.876  11.173 -1.2587 -0.3916 -1.0137
 4122TIP3    H233782   0.175   1.765  11.231  0.4616  1.4187  0.0170
 4123TIP3   OH233783   6.468   5.133  11.398  0.5068  0.4335  0.3712
 4123TIP3    H133784   6.545   5.091  11.359 -0.2992  0.2288 -1.1098
 4123TIP3    H233785   6.458   5.214  11.347 -0.5540  0.1902  0.1789
 4124TIP3   OH233786   0.508   0.470  13.724 -0.3214 -0.6250 -0.3525
 4124TIP3    H133787   0.483   0.378  13.730  1.1889 -1.0063  0.8128
 4124TIP3    H233788   0.569   0.483  13.797 -0.2702  1.2237 -0.6779
 4125TIP3   OH233789   6.473   5.754   5.496  0.2601 -0.4168  0.1342
 4125TIP3    H133790   6.518   5.803   5.565  0.3453  0.1566 -0.3248
 4125TIP3    H233791   6.517   5.781   5.415  0.4481 -1.4018 -0.1082
 4126TIP3   OH233792   4.142   0.447   1.053  0.1943  0.2475  0.4153
 4126TIP3    H133793   4.224   0.399   1.038 -0.5347 -1.0903  0.6054
 4126TIP3    H233794   4.128   0.441   1.148 -1.2021 -1.4085  0.1532
 4127TIP3   OH233795   3.093   2.092   6.511 -0.1047  0.2634 -0.3875
 4127TIP3    H133796   2.997   2.091   6.519 -0.1483  1.5863 -0.5540
 4127TIP3    H233797   3.116   2.185   6.510  1.3031 -0.0235  1.0591
 4128TIP3   OH233798   4.557   0.726   2.145  0.1763 -0.0036 -0.5307
 4128TIP3    H133799   4.639   0.741   2.192 -0.7096 -1.1832  1.5568
 4128TIP3    H233800   4.565   0.637   2.111  0.4135  0.4932 -1.8170
 4129TIP3   OH233801   2.696   5.183  13.769  0.3971 -0.1157  0.1056
 4129TIP3    H133802   2.605   5.177  13.797 -0.4143  1.8472 -1.8209
 4129TIP3    H233803   2.707   5.112  13.706 -0.9279  1.6438 -2.2511
 4130TIP3   OH233804   2.193   5.429  16.605 -0.0402 -0.5389  0.4560
 4130TIP3    H133805   2.227   5.342  16.627  0.8366 -0.9776 -2.2058
 4130TIP3    H233806   2.255   5.464  16.541 -0.7865  1.7591  0.8888
 4131TIP3   OH233807   0.758   5.685   5.073 -0.4921  0.2233  0.1240
 4131TIP3    H133808   0.782   5.777   5.060  2.0574 -0.2152  1.1201
 4131TIP3    H233809   0.697   5.686   5.147  1.7596  0.9721  2.1001
 4132TIP3   OH233810   6.277   5.320   3.234 -0.3839 -0.0970 -0.0564
 4132TIP3    H133811   6.328   5.340   3.156  0.3145 -1.4287  0.0285
 4132TIP3    H233812   6.286   5.225   3.245  1.8461  0.2932  3.1309
 4133TIP3   OH233813   5.885   4.341   1.504 -0.1796 -0.0013  0.1346
 4133TIP3    H133814   5.901   4.374   1.415  1.0579 -1.1249 -0.1042
 4133TIP3    H233815   5.892   4.418   1.560  0.9049  0.4404 -0.5709
 4134TIP3   OH233816   2.424   5.110  13.521  0.3371 -0.0201 -0.6290
 4134TIP3    H133817   2.402   5.182  13.581  0.0078 -0.5477 -0.1123
 4134TIP3    H233818   2.380   5.034  13.558  0.4779 -0.4394 -1.3172
 4135TIP3   OH233819   1.644   4.368   5.415 -0.1146  0.1836  0.3450
 4135TIP3    H133820   1.590   4.315   5.474  1.4976 -1.3325  0.5588
 4135TIP3    H233821   1.584   4.398   5.347 -1.0422 -2.4419 -0.1062
 4136TIP3   OH233822   0.140   4.085   6.683  0.2109 -0.5956  0.5105
 4136TIP3    H133823   0.110   4.163   6.730  4.2345  0.6456  1.3862
 4136TIP3    H233824   0.140   4.015   6.749 -2.2924 -1.1622  0.0123
 4137TIP3   OH233825   6.436   2.690  14.034 -0.0759 -0.4107 -0.4357
 4137TIP3    H133826   6.345   2.705  14.007 -0.3113 -1.4716 -0.2612
 4137TIP3    H233827   6.436   2.704  14.129  0.3020  1.1673 -0.6272
 4138TIP3   OH233828   4.900   0.465   2.835 -0.2576  0.2090 -0.0983
 4138TIP3    H133829   4.874   0.396   2.775 -1.0590  1.4004 -1.1594
 4138TIP3    H233830   4.969   0.513   2.789  2.3353 -1.4798  1.7342
 4139TIP3   OH233831   4.466   0.836  17.113 -0.3849  0.2667  0.3240
 4139TIP3    H133832   4.538   0.810  17.170 -0.5108 -2.5878 -0.6640
 4139TIP3    H233833   4.389   0.834  17.170 -0.0089  1.2447  0.8919
 4140TIP3   OH233834   2.517   3.823   2.610 -0.0079 -0.6102  0.6343
 4140TIP3    H133835   2.523   3.774   2.529  1.1459 -1.1749  1.0450
 4140TIP3    H233836   2.447   3.887   2.594  0.3170 -0.5907 -0.8540
 4141TIP3   OH233837   2.705   2.013   2.940  0.0506  0.2968 -0.1528
 4141TIP3    H133838   2.773   1.946   2.940 -1.4065 -1.2681  1.3997
 4141TIP3    H233839   2.630   1.971   2.981 -1.1914  2.6417  0.1347
 4142TIP3   OH233840   1.385   6.630  16.183  0.0099 -0.4455  0.3690
 4142TIP3    H133841   1.295   6.602  16.199  0.1747  0.0862  2.3957
 4142TIP3    H233842   1.387   6.649  16.089 -1.7469 -1.2919  0.1184
 4143TIP3   OH233843   0.272   1.829   1.146 -0.6159 -0.2993 -0.3082
 4143TIP3    H133844   0.260   1.767   1.218  0.5559 -0.4323 -0.2060
 4143TIP3    H233845   0.213   1.902   1.167  0.0149 -0.1429  1.0203
 4144TIP3   OH233846   2.457   1.366  12.172 -0.0937 -0.2245  0.0640
 4144TIP3    H133847   2.531   1.340  12.227  0.2154 -0.3677 -0.4150
 4144TIP3    H233848   2.442   1.292  12.114 -0.6741 -0.2320  0.2164
 4145TIP3   OH233849   4.815   4.737   3.737  0.0224 -0.5083  0.1995
 4145TIP3    H133850   4.768   4.815   3.709  1.0044  0.3640  0.9526
 4145TIP3    H233851   4.747   4.680   3.773 -0.6770  0.0528 -0.2129
 4146TIP3   OH233852   2.860   4.386   5.401 -0.1189 -0.0142  0.7497
 4146TIP3    H133853   2.792   4.328   5.434  0.1530  0.4332  2.1882
 4146TIP3    H233854   2.903   4.420   5.480  2.0688 -0.6318 -0.0869
 4147TIP3   OH233855   1.357   6.616   4.815 -0.4501  0.0905 -0.0041
 4147TIP3    H133856   1.422   6.576   4.873 -0.5261 -0.0459 -0.0117
 4147TIP3    H233857   1.406   6.641   4.737 -0.2952  0.5141  0.2244
 4148TIP3   OH233858   1.806   4.885  12.757 -0.2633  0.1902 -0.3512
 4148TIP3    H133859   1.873   4.907  12.822  0.0842  0.6407 -0.8652
 4148TIP3    H233860   1.803   4.960  12.699 -0.8280 -0.0662 -0.6545
 4149TIP3   OH233861   4.456   5.087   5.959 -0.0686 -0.3956  0.0987
 4149TIP3    H133862   4.505   5.169   5.954  0.0664 -0.4392  0.6517
 4149TIP3    H233863   4.392   5.093   5.887 -1.1741  0.9219  1.1315
 4150TIP3   OH233864   3.178   5.353  15.887  0.0205  0.1589 -0.3085
 4150TIP3    H133865   3.189   5.260  15.906 -1.3564 -0.2586 -1.3704
 4150TIP3    H233866   3.088   5.372  15.912  1.0335  1.9285  2.4525
 4151TIP3   OH233867   4.484   0.382  16.577 -0.4013 -0.2278  0.2758
 4151TIP3    H133868   4.469   0.312  16.641  0.1882 -0.3291  0.3135
 4151TIP3    H233869   4.445   0.460  16.616  0.5226 -0.1431  1.0694
 4152TIP3   OH233870   1.698   2.167   1.620  0.4722 -1.0153  0.2237
 4152TIP3    H133871   1.689   2.108   1.545 -0.8691  0.4208 -0.8261
 4152TIP3    H233872   1.771   2.225   1.595 -0.2157 -0.2999 -0.1788
 4153TIP3   OH233873   2.345   0.430   6.013  0.2413  0.3182 -0.1422
 4153TIP3    H133874   2.366   0.346   5.974 -2.0296 -0.2264 -0.3308
 4153TIP3    H233875   2.411   0.442   6.082  0.9231 -1.3519 -0.4609
 4154TIP3   OH233876   2.200   3.605   3.856 -0.1190 -0.3525  0.0031
 4154TIP3    H133877   2.227   3.551   3.930  1.7667  0.4171 -0.0766
 4154TIP3    H233878   2.162   3.543   3.793  1.3774 -1.5151  0.1916
 4155TIP3   OH233879   5.019   3.085   5.554  0.1626 -0.5174 -0.1858
 4155TIP3    H133880   4.944   3.029   5.537 -0.7252 -0.1218  2.0509
 4155TIP3    H233881   5.000   3.166   5.506 -1.6425  0.1371  1.4916
 4156TIP3   OH233882   6.399   0.965  13.966  0.0979 -0.4917 -0.3205
 4156TIP3    H133883   6.373   1.038  13.909  1.1636 -0.2652 -0.5394
 4156TIP3    H233884   6.456   0.911  13.911 -0.3947 -1.3182 -0.0493
 4157TIP3   OH233885   6.564   3.155  13.113 -0.0968 -0.6211 -0.5177
 4157TIP3    H133886   6.518   3.126  13.192 -0.6616 -1.0168 -0.9858
 4157TIP3    H233887   6.499   3.206  13.065  0.3921  0.0259 -0.5028
 4158TIP3   OH233888   3.352   2.481   3.089 -0.1291 -0.5628  0.4548
 4158TIP3    H133889   3.445   2.503   3.082 -0.3646  0.5097  0.4634
 4158TIP3    H233890   3.307   2.552   3.044 -0.9700 -0.8340  0.8441
 4159TIP3   OH233891   1.338   0.189  11.727  0.2862  0.3703 -0.1944
 4159TIP3    H133892   1.370   0.189  11.818  0.4189 -0.1358 -0.2365
 4159TIP3    H233893   1.397   0.129  11.681 -1.2038 -1.2780 -0.0854
 4160TIP3   OH233894   6.532   3.286  14.678  0.0598  0.5272 -0.0790
 4160TIP3    H133895   6.586   3.211  14.654  0.6367  1.0969 -0.6013
 4160TIP3    H233896   6.548   3.298  14.772  2.1389  1.6627 -0.5148
 4161TIP3   OH233897   2.744   6.224   5.931  0.2500  0.4403 -0.3736
 4161TIP3    H133898   2.689   6.301   5.944  0.1152  0.3740 -0.5489
 4161TIP3    H233899   2.796   6.219   6.011 -1.2988 -0.5360  0.6482
 4162TIP3   OH233900   0.843   5.751   0.287  0.1104  0.0681  0.9505
 4162TIP3    H133901   0.907   5.763   0.357  0.3785 -0.6132  0.8311
 4162TIP3    H233902   0.824   5.657   0.288  0.6044 -0.0684 -0.3048
 4163TIP3   OH233903   0.499   2.104  11.832  0.3305  0.3190  0.0910
 4163TIP3    H133904   0.445   2.033  11.868  0.2391  0.2829 -0.1186
 4163TIP3    H233905   0.477   2.106  11.739  0.6143  0.3722  0.0244
 4164TIP3   OH233906   5.625   5.718   2.236  0.7759  0.3992 -0.5136
 4164TIP3    H133907   5.616   5.677   2.322 -1.3939  1.5973 -0.0948
 4164TIP3    H233908   5.556   5.678   2.183  0.6397  1.2676 -1.0076
 4165TIP3   OH233909   6.447   1.930   5.716 -0.0432  0.2004  0.3142
 4165TIP3    H133910   6.425   1.895   5.803 -2.3262 -1.7743 -0.9452
 4165TIP3    H233911   6.520   1.875   5.686  0.8395  0.9710  0.9726
 4166TIP3   OH233912   4.945   3.491   3.687  0.1988 -0.0957 -0.0333
 4166TIP3    H133913   4.967   3.398   3.685  2.3756  0.2635  2.5129
 4166TIP3    H233914   4.929   3.510   3.779  0.3665  2.1822 -0.4270
 4167TIP3   OH233915   3.282   6.666   2.630 -0.4195  0.2734 -0.0132
 4167TIP3    H133916   3.217   6.604   2.597  0.0167 -0.2661  0.1336
 4167TIP3    H233917   3.288   6.646   2.724 -2.1782  2.2536  0.6156
 4168TIP3   OH233918   4.984   3.778  15.272 -0.2271  0.1605  0.1434
 4168TIP3    H133919   5.062   3.723  15.256 -1.4390 -2.1125  1.5158
 4168TIP3    H233920   5.004   3.825  15.353  0.3204  0.8155 -0.3615
 4169TIP3   OH233921   0.149   1.315  13.367  1.3048 -0.7863  0.4616
 4169TIP3    H133922   0.136   1.296  13.460  0.5904  1.5279  0.8794
 4169TIP3    H233923   0.147   1.228  13.325 -1.3230 -1.7280  2.2514
 4170TIP3   OH233924   2.630   2.785  14.684 -0.1080  0.3107 -0.0964
 4170TIP3    H133925   2.568   2.800  14.612 -0.7564  0.7641  0.5307
 4170TIP3    H233926   2.712   2.824  14.655  0.1048 -0.9256 -1.2381
 4171TIP3   OH233927   6.379   0.185  15.437  0.2817  0.2778  0.5817
 4171TIP3    H133928   6.386   0.123  15.510  0.2310 -1.8417 -1.1148
 4171TIP3    H233929   6.358   0.130  15.361  1.8545  2.1936 -1.3431
 4172TIP3   OH233930   0.240   2.292   3.802 -0.5431 -0.2145  0.7850
 4172TIP3    H133931   0.195   2.376   3.806  0.0844  0.2799 -1.1383
 4172TIP3    H233932   0.170   2.228   3.791 -1.0021  0.0723  1.9144
 4173TIP3   OH233933   4.525   6.697   4.114  0.2911  0.1798  0.1682
 4173TIP3    H133934   4.466   6.633   4.074 -0.1552  0.7884 -0.1574
 4173TIP3    H233935   4.476   6.779   4.112  0.8891  0.5487  0.5151
 4174TIP3   OH233936   2.548   3.247   1.966  0.0051 -0.5310  0.6120
 4174TIP3    H133937   2.499   3.166   1.954  0.8596 -0.8644 -1.0195
 4174TIP3    H233938   2.506   3.309   1.907  1.6461 -0.9330 -1.1273
 4175TIP3   OH233939   1.260   2.967  12.300  0.2707 -0.0259 -0.2071
 4175TIP3    H133940   1.165   2.962  12.311  0.4972 -0.2123  1.9704
 4175TIP3    H233941   1.293   2.880  12.324  1.0856  0.4200  0.3624
 4176TIP3   OH233942   1.073   3.990  12.013 -0.0011  0.2894  0.1762
 4176TIP3    H133943   1.122   4.057  11.965 -0.9744  0.8105 -0.1176
 4176TIP3    H233944   1.007   3.960  11.951 -1.3255  1.0176  1.1991
 4177TIP3   OH233945   6.435   1.118  17.170  0.4359 -0.0445  0.0531
 4177TIP3    H133946   6.387   1.189  17.212 -0.4609 -0.1179 -0.7958
 4177TIP3    H233947   6.430   1.138  17.076  1.2287 -0.5857 -0.1172
 4178TIP3   OH233948   2.754   1.643   3.504  0.1659 -0.3427  0.0767
 4178TIP3    H133949   2.770   1.727   3.461 -2.0694 -0.3088 -0.8515
 4178TIP3    H233950   2.659   1.630   3.496  0.6768 -4.3150 -2.5063
 4179TIP3   OH233951   0.108   2.303  16.055  0.1401  0.1982 -0.8872
 4179TIP3    H133952   0.132   2.386  16.096  0.9107  0.0905 -1.1095
 4179TIP3    H233953   0.067   2.328  15.972 -1.2832  0.4096 -0.1579
 4180TIP3   OH233954   6.691   5.597  11.595  0.2585  0.6083 -0.3130
 4180TIP3    H133955   6.733   5.603  11.680  2.0112  0.3311 -1.1172
 4180TIP3    H233956   6.689   5.503  11.576 -0.8552  0.6063 -0.2497
 4181TIP3   OH233957   2.949   0.248  11.053  0.0890  0.1421 -0.1176
 4181TIP3    H133958   3.021   0.184  11.044 -0.0163  0.0531 -0.3485
 4181TIP3    H233959   2.975   0.303  11.126  1.0359  0.9459 -1.0183
 4182TIP3   OH233960   5.753   3.644  17.013  0.0157 -0.1297 -0.1293
 4182TIP3    H133961   5.743   3.623  16.921 -0.3347  0.2083 -0.1722
 4182TIP3    H233962   5.788   3.564  17.053  0.0098 -0.3297 -0.5220
 4183TIP3   OH233963   0.818   4.586  12.360  0.5236  0.4978  0.3736
 4183TIP3    H133964   0.878   4.638  12.413  0.3617  0.1386  0.9171
 4183TIP3    H233965   0.760   4.650  12.319  0.5821  0.7738  0.7196
 4184TIP3   OH233966   6.090   3.119   4.069 -0.2816  0.4925  0.4933
 4184TIP3    H133967   6.000   3.107   4.041 -0.1792 -3.4031  1.2622
 4184TIP3    H233968   6.138   3.046   4.029  2.7067  2.6551 -0.2784
 4185TIP3   OH233969   5.899   0.349  16.223  0.6241  0.6371 -0.9521
 4185TIP3    H133970   5.959   0.276  16.211 -1.6622 -1.3718 -0.8390
 4185TIP3    H233971   5.882   0.351  16.317  0.0358  0.7531 -1.0550
 4186TIP3   OH233972   1.794   6.082  16.032  0.0840  0.2646  0.2773
 4186TIP3    H133973   1.838   6.128  15.961  0.5707 -1.3886 -0.5611
 4186TIP3    H233974   1.861   6.025  16.069  0.0895  1.7053  2.7070
 4187TIP3   OH233975   1.610   1.549   4.323  0.2826  0.0158 -0.1416
 4187TIP3    H133976   1.537   1.497   4.287 -0.0826  0.0480  0.5385
 4187TIP3    H233977   1.624   1.618   4.258 -0.1944 -0.0839 -0.3587
 4188TIP3   OH233978   1.761   4.788  15.320  0.5077 -1.2083 -0.1888
 4188TIP3    H133979   1.810   4.836  15.252 -0.1637 -1.6791 -1.0330
 4188TIP3    H233980   1.723   4.714  15.273 -1.3180 -0.6652  0.3399
 4189TIP3   OH233981   2.684   6.208   4.317  0.1301 -0.1293  0.0116
 4189TIP3    H133982   2.747   6.192   4.387  0.3574 -0.5815 -0.2948
 4189TIP3    H233983   2.659   6.121   4.287  0.6079  0.0636 -0.9869
 4190TIP3   OH233984   4.150   5.413   4.566 -0.2004 -0.0256  0.1113
 4190TIP3    H133985   4.074   5.357   4.579 -2.0698  2.1428 -0.8614
 4190TIP3    H233986   4.140   5.447   4.477  1.6732  0.6920  0.1251
 4191TIP3   OH233987   3.047   3.562   1.734 -0.6251 -0.1697  0.6033
 4191TIP3    H133988   3.033   3.657   1.739  0.6656  0.3049 -2.6673
 4191TIP3    H233989   2.967   3.528   1.693  0.3078  0.1073 -1.6080
 4192TIP3   OH233990   4.470   2.068   2.988  0.3918 -0.0401 -0.0256
 4192TIP3    H133991   4.412   1.996   2.964  0.0917  0.4390 -0.7663
 4192TIP3    H233992   4.498   2.047   3.077  0.7304 -1.3434 -0.4150
 4193TIP3   OH233993   1.729   3.169  16.471 -0.1858 -0.1444 -0.2471
 4193TIP3    H133994   1.651   3.113  16.478 -0.5472  0.1128 -1.8876
 4193TIP3    H233995   1.774   3.158  16.555 -1.2482 -1.4019  0.1893
 4194TIP3   OH233996   5.230   6.248  17.574  0.1338  0.0846  0.0797
 4194TIP3    H133997   5.221   6.342  17.559 -0.8409  0.1824  1.2113
 4194TIP3    H233998   5.210   6.208  17.489 -0.1557  0.8566 -0.2209
 4195TIP3   OH233999   1.590   5.630  16.530 -0.4681  0.1222 -0.4938
 4195TIP3    H134000   1.578   5.536  16.513  2.9571 -0.2914 -1.3964
 4195TIP3    H234001   1.613   5.635  16.623  0.6796 -0.1650 -0.7406
 4196TIP3   OH234002   4.129   3.111   2.046 -0.1451  0.4226  0.0547
 4196TIP3    H134003   4.082   3.043   1.997 -0.4852 -0.7847  1.9406
 4196TIP3    H234004   4.060   3.163   2.086  0.1104  0.3835  0.5531
 4197TIP3   OH234005   5.004   0.726  12.214  0.1208  0.2468 -0.0890
 4197TIP3    H134006   4.968   0.810  12.187 -0.1266  0.3461  0.5170
 4197TIP3    H234007   4.932   0.664  12.204 -0.3811  0.5110  1.4631
 4198TIP3   OH234008   6.314   1.403  17.158 -0.2125  0.2853  0.1177
 4198TIP3    H134009   6.254   1.436  17.225 -1.9731  0.0440 -1.2485
 4198TIP3    H234010   6.401   1.425  17.190 -1.1252  2.8217  1.0935
 4199TIP3   OH234011   3.921   4.563   5.717  0.1323 -0.1634  0.2788
 4199TIP3    H134012   3.852   4.502   5.689  0.9774 -0.8085 -0.4154
 4199TIP3    H234013   3.893   4.648   5.683  0.5643 -0.7297 -1.6019
 4200TIP3   OH234014   3.958   6.164  17.539  0.0250 -0.1226 -0.3823
 4200TIP3    H134015   3.952   6.092  17.475 -2.1156 -0.6794  0.3520
 4200TIP3    H234016   3.912   6.237  17.497  0.2768  0.1150 -0.2410
 4201TIP3   OH234017   1.087   5.275  12.418 -0.1589  0.2255 -0.7764
 4201TIP3    H134018   1.136   5.351  12.387 -0.0425  0.5775  0.2257
 4201TIP3    H234019   1.101   5.275  12.513  1.3903 -2.1308 -0.9397
 4202TIP3   OH234020   5.605   4.111   6.186 -0.3623  0.6164  0.1614
 4202TIP3    H134021   5.573   4.104   6.096 -0.9481  1.0862  0.3270
 4202TIP3    H234022   5.695   4.143   6.177  0.4873 -1.7252 -0.3569
 4203TIP3   OH234023   3.811   1.111   5.990 -0.7746 -0.1821  0.0708
 4203TIP3    H134024   3.791   1.195   5.948 -0.8381  0.7281  1.7971
 4203TIP3    H234025   3.906   1.103   5.984 -0.8996 -0.8598 -1.5870
 4204TIP3   OH234026   6.658   0.430  15.464 -0.3292 -0.5728 -0.5496
 4204TIP3    H134027   6.565   0.434  15.485 -0.3663 -0.4014 -0.7488
 4204TIP3    H234028   6.691   0.358  15.517 -0.6209 -0.7842 -0.6544
 4205TIP3   OH234029   6.055   3.412   5.552 -0.1305  0.3853  0.2998
 4205TIP3    H134030   6.076   3.445   5.465 -0.7149  0.1052  0.0504
 4205TIP3    H234031   5.995   3.476   5.589 -0.2853  0.2407  0.2998
 4206TIP3   OH234032   3.129   3.151   4.022 -0.1621 -0.1994 -0.1957
 4206TIP3    H134033   3.214   3.156   4.066  0.8997  2.6632 -2.3027
 4206TIP3    H234034   3.077   3.221   4.061  0.3475  1.5118 -2.3866
 4207TIP3   OH234035   3.021   6.400  12.010 -0.2394 -0.4835 -0.3779
 4207TIP3    H134036   3.102   6.428  11.967 -0.8959 -0.0065 -1.3207
 4207TIP3    H234037   2.953   6.453  11.970 -0.8672  0.1287  1.3761
 4208TIP3   OH234038   6.250   4.181  15.953 -0.1506 -0.3079 -0.2275
 4208TIP3    H134039   6.306   4.185  15.876  0.1121 -0.2877 -0.0362
 4208TIP3    H234040   6.185   4.114  15.932 -1.2158  0.9865 -1.2182
 4209TIP3   OH234041   5.995   4.714  14.251  0.1379 -0.0880  0.0661
 4209TIP3    H134042   6.080   4.750  14.226 -0.0715  0.5269  0.2001
 4209TIP3    H234043   5.963   4.669  14.173  0.3623  0.1198 -0.1448
 4210TIP3   OH234044   0.083   5.265   2.453  0.2910 -0.1482  0.0205
 4210TIP3    H134045   0.046   5.200   2.512 -2.5072 -0.1937 -1.6096
 4210TIP3    H234046   0.120   5.213   2.381  0.0349 -0.0104 -0.2128
 4211TIP3   OH234047   1.149   3.594   2.988 -0.3647  0.1324 -0.2192
 4211TIP3    H134048   1.123   3.670   2.936 -1.6757 -0.2228 -0.1376
 4211TIP3    H234049   1.220   3.626   3.044 -1.6898  1.6847  0.6933
 4212TIP3   OH234050   6.033   1.940   2.965 -0.2010  0.0057  0.0039
 4212TIP3    H134051   6.051   1.851   2.994  1.7575 -0.1029 -1.3556
 4212TIP3    H234052   5.938   1.945   2.960 -0.3930 -1.6618  1.0833
 4213TIP3   OH234053   1.141   2.834   4.035  0.2766 -0.1081 -0.5490
 4213TIP3    H134054   1.140   2.783   3.954  0.9320  1.6718 -1.7218
 4213TIP3    H234055   1.126   2.769   4.104 -1.5060 -1.4930 -2.1417
 4214TIP3   OH234056   5.773   6.105   4.022  0.4772  0.2168  0.1698
 4214TIP3    H134057   5.778   6.092   3.927  2.0394  0.4176  0.1898
 4214TIP3    H234058   5.762   6.017   4.057 -1.6975  0.2823 -0.2397
 4215TIP3   OH234059   6.397   3.826   1.161  0.4399 -0.1837 -0.1464
 4215TIP3    H134060   6.489   3.844   1.183  1.2280 -2.2115 -1.5464
 4215TIP3    H234061   6.381   3.876   1.081  0.8023 -1.0094 -0.7411
 4216TIP3   OH234062   0.335   5.311   3.590 -0.5681 -0.4096  0.1548
 4216TIP3    H134063   0.397   5.310   3.662  1.4127 -3.2397 -1.4042
 4216TIP3    H234064   0.379   5.360   3.520 -1.2085 -0.2557 -0.1555
 4217TIP3   OH234065   4.896   6.271  13.231 -0.9834  0.9964 -0.1011
 4217TIP3    H134066   4.934   6.358  13.215 -1.3519  1.2186  0.2115
 4217TIP3    H234067   4.805   6.279  13.203 -0.7489  0.3804 -1.1198
 4218TIP3   OH234068   4.485   3.669   0.929  0.0585  0.0617 -0.5968
 4218TIP3    H134069   4.509   3.703   1.015 -1.2796 -0.7866  0.1507
 4218TIP3    H234070   4.542   3.715   0.868  1.6555  0.0340  0.8139
 4219TIP3   OH234071   5.298   1.445  14.494  0.1204  0.3822  0.5754
 4219TIP3    H134072   5.224   1.487  14.449  0.5762 -2.5058 -3.4397
 4219TIP3    H234073   5.258   1.373  14.543  0.0024  1.2179  1.7606
 4220TIP3   OH234074   2.805   5.393  16.896 -0.0409 -0.7020  0.1408
 4220TIP3    H134075   2.826   5.308  16.856  1.2569 -0.6471  0.6555
 4220TIP3    H234076   2.722   5.378  16.941 -0.7026 -1.2153 -1.2000
 4221TIP3   OH234077   3.278   2.371  13.397  0.3082 -0.3246  0.3179
 4221TIP3    H134078   3.303   2.455  13.437  2.1378 -0.1495 -1.0580
 4221TIP3    H234079   3.223   2.395  13.323  1.0464 -0.3056 -0.2318
 4222TIP3   OH234080   6.282   5.839  12.554  0.0167 -0.2753 -0.6265
 4222TIP3    H134081   6.214   5.863  12.490 -1.5207 -1.0200  0.6695
 4222TIP3    H234082   6.265   5.896  12.629 -1.1655 -2.5559  0.9209
 4223TIP3   OH234083   1.604   4.051  12.246 -0.1497 -0.3683  0.2911
 4223TIP3    H134084   1.619   4.095  12.330 -0.6484 -0.3055  0.3484
 4223TIP3    H234085   1.690   4.048  12.205  0.3490 -1.5330  1.3611
 4224TIP3   OH234086   5.509   1.153  11.633 -0.0213 -0.3684 -0.4991
 4224TIP3    H134087   5.502   1.233  11.581  0.2966  0.5317  0.7851
 4224TIP3    H234088   5.479   1.179  11.720 -0.6056 -1.8497 -0.2435
 4225TIP3   OH234089   0.044   5.652  16.226 -0.1404  0.3213  0.1346
 4225TIP3    H134090   0.089   5.627  16.307  2.1272  2.3303 -0.3809
 4225TIP3    H234091   0.111   5.698  16.175 -2.3686  1.9790 -1.4748
 4226TIP3   OH234092   3.469   4.526   5.894  0.3132  0.0217  0.4849
 4226TIP3    H134093   3.394   4.499   5.842  0.7269 -1.3947  0.5815
 4226TIP3    H234094   3.499   4.606   5.852  0.7847 -1.1926 -1.6590
 4227TIP3   OH234095   4.258   6.088  15.342 -0.4048  0.4292 -0.2814
 4227TIP3    H134096   4.351   6.084  15.319 -0.8720 -0.6237 -2.2998
 4227TIP3    H234097   4.254   6.054  15.431  1.2735  1.8883  0.4223
 4228TIP3   OH234098   1.094   2.178   2.210  0.1177  0.2378 -0.0823
 4228TIP3    H134099   1.027   2.219   2.264 -0.1129  0.1899 -0.3279
 4228TIP3    H234100   1.045   2.135   2.140  0.4728  2.2558 -1.7089
 4229TIP3   OH234101   5.311   3.175  12.766  0.2308 -0.6112  0.0720
 4229TIP3    H134102   5.319   3.205  12.676 -0.9951 -0.7618 -0.1014
 4229TIP3    H234103   5.363   3.095  12.769  1.3163  0.0653 -0.1562
 4230TIP3   OH234104   3.556   0.164   6.919 -0.1995  0.6724 -0.2657
 4230TIP3    H134105   3.491   0.212   6.970  1.2136  1.3354  0.9904
 4230TIP3    H234106   3.637   0.215   6.929  0.6326 -0.3601 -1.4019
 4231TIP3   OH234107   3.996   3.148  11.845 -0.0794  0.0108  0.8398
 4231TIP3    H134108   3.959   3.086  11.908 -1.5615 -0.1706 -0.1634
 4231TIP3    H234109   3.968   3.115  11.759  0.6776  1.0430  0.1713
 4232TIP3   OH234110   4.154   5.951  13.802  0.2504  0.3522 -0.2422
 4232TIP3    H134111   4.225   5.972  13.742 -0.3018  0.1063 -1.0030
 4232TIP3    H234112   4.156   5.856  13.810  0.6038  0.4190  0.4896
 4233TIP3   OH234113   3.996   2.752  16.405 -0.0975 -0.0326 -0.5496
 4233TIP3    H134114   4.090   2.761  16.386  0.1451 -1.5489 -0.2115
 4233TIP3    H234115   3.968   2.840  16.431  1.4586  0.2487  0.3229
 4234TIP3   OH234116   2.527   5.901  14.863  0.3590 -0.0690  0.5428
 4234TIP3    H134117   2.500   5.896  14.771  0.1370 -1.7584  0.6681
 4234TIP3    H234118   2.622   5.912  14.860  0.3802 -0.3579  0.1094
 4235TIP3   OH234119   1.620   6.593   1.358  0.1747 -0.0449  0.0088
 4235TIP3    H134120   1.578   6.583   1.444 -2.3489  0.6320 -1.0658
 4235TIP3    H234121   1.607   6.685   1.336  0.0838 -0.3966 -1.4685
 4236TIP3   OH234122   0.097   1.653   0.621 -0.0250  0.3019 -0.4693
 4236TIP3    H134123   0.068   1.717   0.686  0.9777 -0.4421  0.7458
 4236TIP3    H234124   0.023   1.645   0.561 -0.9854  0.9831  0.5933
 4237TIP3   OH234125   0.748   0.043  13.087 -0.5292 -0.2935  0.3792
 4237TIP3    H134126   0.710   0.023  13.001 -1.6827  2.0066  0.2835
 4237TIP3    H234127   0.676   0.078  13.138  0.5247  0.0314  1.7047
 4238TIP3   OH234128   1.958   5.897  13.845  0.6790 -0.4587  0.8763
 4238TIP3    H134129   2.007   5.976  13.822  0.2583 -0.8223 -1.5389
 4238TIP3    H234130   2.025   5.832  13.867  1.0770  0.2435  1.7613
 4239TIP3   OH234131   6.535   5.239   3.961  0.5129  0.0715 -0.7658
 4239TIP3    H134132   6.523   5.303   3.891  0.9906  0.1863 -0.7498
 4239TIP3    H234133   6.630   5.236   3.974  0.3954  0.4471  0.2440
 4240TIP3   OH234134   4.142   0.780  10.573 -0.2403 -0.7146 -0.6042
 4240TIP3    H134135   4.150   0.833  10.652  1.0361 -1.4007 -0.2503
 4240TIP3    H234136   4.048   0.781  10.553 -0.3002  1.3568 -0.4071
 4241TIP3   OH234137   0.546   2.878   5.541 -0.1056 -0.5047  0.3222
 4241TIP3    H134138   0.628   2.916   5.509 -0.9682  2.1176  0.9885
 4241TIP3    H234139   0.573   2.817   5.610  1.3306 -0.7542 -0.4088
 4242TIP3   OH234140   2.660   4.681  11.705  0.1723 -0.0824  0.5125
 4242TIP3    H134141   2.572   4.643  11.702 -0.3797  0.9361 -4.1476
 4242TIP3    H234142   2.646   4.775  11.710  0.8370  0.1652 -1.3652
 4243TIP3   OH234143   6.399   2.362   0.210 -0.2328  0.2126 -0.1119
 4243TIP3    H134144   6.374   2.374   0.118 -2.8515 -0.5931  0.4199
 4243TIP3    H234145   6.372   2.443   0.253  2.2866  1.1957 -0.1982
 4244TIP3   OH234146   6.059   5.499   2.431 -0.1925  0.3571 -0.1121
 4244TIP3    H134147   6.064   5.551   2.511  1.3217  1.2447 -0.7617
 4244TIP3    H234148   6.056   5.562   2.360  0.4362 -0.4235 -0.8587
 4245TIP3   OH234149   0.914   1.404   4.512 -0.7855  0.5078  0.1954
 4245TIP3    H134150   0.991   1.410   4.568  0.9389  2.6029 -2.1402
 4245TIP3    H234151   0.890   1.311   4.514  2.2133 -0.3762  0.5633
 4246TIP3   OH234152   5.482   0.777   1.166 -0.1159  0.1927  0.7550
 4246TIP3    H134153   5.515   0.714   1.231 -0.5689  0.7083  1.4932
 4246TIP3    H234154   5.525   0.751   1.084  0.3728 -0.5409  1.2305
 4247TIP3   OH234155   1.303   2.351  16.244 -0.0153  0.0493  0.0313
 4247TIP3    H134156   1.340   2.307  16.168  0.3812  0.7117 -0.1654
 4247TIP3    H234157   1.371   2.411  16.272  0.1877 -0.8108  1.4573
 4248TIP3   OH234158   5.151   6.116   4.069  0.0627  0.2123 -0.3889
 4248TIP3    H134159   5.094   6.105   4.145 -0.6642 -2.5608 -1.2029
 4248TIP3    H234160   5.230   6.157   4.103 -0.1205 -1.2213  1.9368
 4249TIP3   OH234161   6.534   5.557   0.278  0.3114  0.5038 -0.2222
 4249TIP3    H134162   6.482   5.480   0.303 -0.4555  0.8753 -0.6235
 4249TIP3    H234163   6.611   5.520   0.234  1.7625 -0.1774  2.6612
 4250TIP3   OH234164   1.969   3.145  14.892  0.3460 -0.2634 -0.3926
 4250TIP3    H134165   2.057   3.115  14.871  0.9728  0.8557  0.5305
 4250TIP3    H234166   1.912   3.098  14.831  1.6617 -0.3126 -1.6200
 4251TIP3   OH234167   5.224   5.670   2.672  0.1046  0.0901  0.8226
 4251TIP3    H134168   5.266   5.700   2.591 -1.0675  1.0860  0.5566
 4251TIP3    H234169   5.196   5.750   2.715  0.2872 -0.4576  2.0059
 4252TIP3   OH234170   5.250   5.762   6.051 -0.5478  1.0691 -0.2682
 4252TIP3    H134171   5.309   5.686   6.048  0.0122  1.5330 -1.6704
 4252TIP3    H234172   5.292   5.822   6.112 -1.4433 -0.0691  1.5579
 4253TIP3   OH234173   0.144   2.473  15.788 -0.2889  0.1340 -0.4192
 4253TIP3    H134174   0.098   2.499  15.709  0.3583  1.5120 -0.3656
 4253TIP3    H234175   0.237   2.483  15.767 -0.0944  0.0571  0.3628
 4254TIP3   OH234176   2.516   3.705  12.611  0.3706 -0.0794  0.1113
 4254TIP3    H134177   2.522   3.665  12.698 -0.7332 -0.4177  0.0519
 4254TIP3    H234178   2.588   3.667  12.562  0.5893 -0.4077  0.6795
 4255TIP3   OH234179   6.559   6.113  14.781  0.2585 -0.6242 -0.1813
 4255TIP3    H134180   6.464   6.106  14.778  0.2617 -0.5297 -2.7948
 4255TIP3    H234181   6.583   6.080  14.867 -2.1186 -0.8473  0.4549
 4256TIP3   OH234182   6.485   4.528  14.500 -0.5036 -0.1107 -0.1717
 4256TIP3    H134183   6.405   4.558  14.456 -1.7113 -1.8571  0.7143
 4256TIP3    H234184   6.489   4.579  14.580  0.3295  1.2954 -1.0663
 4257TIP3   OH234185   5.357   2.543   4.112  0.2049 -0.4722 -0.4313
 4257TIP3    H134186   5.427   2.506   4.059  2.1779  0.9894  0.9802
 4257TIP3    H234187   5.340   2.629   4.073  0.7653  0.0741  0.4899
 4258TIP3   OH234188   1.343   4.088   0.189  0.1115  0.4146  0.1547
 4258TIP3    H134189   1.400   4.046   0.124 -1.0486 -1.9564  0.5813
 4258TIP3    H234190   1.259   4.043   0.181 -1.1694  2.5067  0.8850
 4259TIP3   OH234191   4.110   2.696  10.830  0.1421 -0.0907  0.2353
 4259TIP3    H134192   4.153   2.772  10.868  2.4381 -0.5504 -1.2885
 4259TIP3    H234193   4.029   2.730  10.792  0.9630  1.5299 -0.1202
 4260TIP3   OH234194   3.263   5.938  11.208 -0.5522 -0.1395  0.7939
 4260TIP3    H134195   3.315   5.906  11.282 -0.2729  0.5301  0.8939
 4260TIP3    H234196   3.327   5.948  11.137 -0.9197 -1.3737  0.2542
 4261TIP3   OH234197   6.680   1.296  16.975 -0.4540  0.1350  0.3932
 4261TIP3    H134198   6.660   1.296  17.069  0.5772  0.5206  0.6295
 4261TIP3    H234199   6.625   1.365  16.939  0.9960  1.7844  1.1697
 4262TIP3   OH234200   4.965   0.034  15.199  0.1894 -0.5888 -0.1711
 4262TIP3    H134201   4.964  -0.001  15.109  0.7351  1.9542 -1.2614
 4262TIP3    H234202   4.888   0.091  15.204  0.4165 -0.3511  0.8235
 4263TIP3   OH234203   5.367   0.760   1.691  0.0751 -0.0507 -0.0794
 4263TIP3    H134204   5.316   0.840   1.699 -0.8607 -0.6560  0.1268
 4263TIP3    H234205   5.456   0.785   1.718 -0.2945  0.8169  0.3624
 4264TIP3   OH234206   5.997   5.200   1.756 -0.0696  0.7143 -0.2623
 4264TIP3    H134207   5.924   5.149   1.719  1.5895 -1.3370 -0.8906
 4264TIP3    H234208   6.066   5.193   1.691  2.2282 -1.1902  2.1316
 4265TIP3   OH234209   4.381   2.866   6.211 -0.5862 -0.0958 -0.1687
 4265TIP3    H134210   4.388   2.881   6.305  0.2326 -0.2444 -0.2041
 4265TIP3    H234211   4.459   2.817   6.188 -0.5419  0.3492 -1.0178
 4266TIP3   OH234212   1.550   2.455   1.894  0.9452 -0.3904 -0.1432
 4266TIP3    H134213   1.521   2.364   1.898 -1.2191  0.2801  0.7401
 4266TIP3    H234214   1.563   2.472   1.801  2.1881 -1.7874 -0.2726
 4267TIP3   OH234215   5.748   1.567   2.355  0.0341 -0.2935 -0.4339
 4267TIP3    H134216   5.783   1.537   2.438  0.5236  0.5518 -0.3320
 4267TIP3    H234217   5.758   1.491   2.296  0.3835 -0.6353  0.0629
 4268TIP3   OH234218   4.116   5.269   3.011  0.3238  1.2313 -0.5835
 4268TIP3    H134219   4.036   5.233   3.050  1.5294 -1.1100 -0.0479
 4268TIP3    H234220   4.137   5.208   2.940  2.5861  0.6467  0.4807
 4269TIP3   OH234221   4.502   1.505  11.545  0.1565  0.0870  0.1598
 4269TIP3    H134222   4.411   1.504  11.517 -0.2864  2.1399  1.3115
 4269TIP3    H234223   4.543   1.573  11.492  1.0927 -0.8952 -0.4281
 4270TIP3   OH234224   3.303   4.794   3.871  0.3410 -0.3343  0.0866
 4270TIP3    H134225   3.217   4.829   3.846  0.0303 -1.5138 -0.6035
 4270TIP3    H234226   3.333   4.852   3.941  0.1567  1.6886 -1.3925
 4271TIP3   OH234227   3.254   6.518  11.529  0.1609 -0.0369  0.2027
 4271TIP3    H134228   3.194   6.459  11.484  3.4763 -2.3452 -1.6077
 4271TIP3    H234229   3.277   6.471  11.610  0.1304  0.4874  0.5236
 4272TIP3   OH234230   0.279   4.201   1.201  0.1283  0.4350 -0.3769
 4272TIP3    H134231   0.259   4.244   1.284 -1.9201  0.0884 -0.6437
 4272TIP3    H234232   0.311   4.272   1.145  0.0991  0.9487  0.2444
 4273TIP3   OH234233   4.879   0.574   2.420  0.0168 -0.8156 -0.0588
 4273TIP3    H134234   4.856   0.489   2.383  0.4608 -0.9431 -0.0505
 4273TIP3    H234235   4.939   0.554   2.492  0.6596 -0.4705 -0.4835
 4274TIP3   OH234236   5.596   5.053   3.691 -0.1154 -0.5216  0.4448
 4274TIP3    H134237   5.677   5.063   3.641 -0.3479 -0.5974  0.0536
 4274TIP3    H234238   5.560   4.969   3.663 -0.7652 -0.0978 -0.0175
 4275TIP3   OH234239   2.424   1.604   4.199  0.1677 -0.2005  0.0713
 4275TIP3    H134240   2.510   1.567   4.178  0.6970  0.2848  1.3303
 4275TIP3    H234241   2.443   1.691   4.233 -0.6959 -0.6661  1.8141
 4276TIP3   OH234242   5.500   3.956  11.897 -0.5189  0.4418 -0.1128
 4276TIP3    H134243   5.555   4.029  11.868  0.4241  0.3105  1.2251
 4276TIP3    H234244   5.483   3.906  11.818  0.6293  0.9415 -0.7068
 4277TIP3   OH234245   2.685   0.811   1.612  0.2988  0.0340 -0.8266
 4277TIP3    H134246   2.682   0.895   1.567 -0.1952 -0.2301 -1.2861
 4277TIP3    H234247   2.635   0.752   1.557 -3.7875  0.5603  1.9034
 4278TIP3   OH234248   2.080   3.917  13.460 -0.2878 -0.3510 -0.6765
 4278TIP3    H134249   2.106   4.006  13.484  1.1956 -1.1088  0.7272
 4278TIP3    H234250   2.072   3.919  13.365 -2.9221  1.9174 -0.5188
 4279TIP3   OH234251   2.569   5.907  15.366  0.3253 -0.7008 -0.3507
 4279TIP3    H134252   2.620   5.907  15.447  0.6676 -1.9373 -0.5421
 4279TIP3    H234253   2.489   5.861  15.388  0.8329 -1.9139 -0.9375
 4280TIP3   OH234254   1.637   6.405   0.346 -0.1458  0.1548  0.6723
 4280TIP3    H134255   1.596   6.349   0.413 -0.3800 -0.1720  0.2571
 4280TIP3    H234256   1.731   6.394   0.361 -0.0630 -2.4354 -1.0262
 4281TIP3   OH234257   5.328   5.110   7.359 -0.2983 -0.2714 -0.5515
 4281TIP3    H134258   5.245   5.135   7.399 -0.4680 -1.3475 -0.2126
 4281TIP3    H234259   5.305   5.045   7.294  0.0589  0.9469 -1.9541
 4282TIP3   OH234260   0.575   3.320  15.736 -0.5944 -0.0642  0.5342
 4282TIP3    H134261   0.614   3.383  15.675  1.1196 -1.2562  0.3345
 4282TIP3    H234262   0.483   3.317  15.711 -0.7844  2.4279  0.6338
 4283TIP3   OH234263   1.177   2.732   6.529  0.2634 -0.4478  0.2335
 4283TIP3    H134264   1.158   2.639   6.515 -1.2427 -0.1661  0.2366
 4283TIP3    H234265   1.091   2.772   6.542  1.0094  0.6732  1.9785
 4284TIP3   OH234266   1.853   5.433   1.640 -0.4622 -0.2143  0.1142
 4284TIP3    H134267   1.834   5.398   1.553  1.0437 -1.4181  0.2106
 4284TIP3    H234268   1.880   5.523   1.625  0.1722 -0.5304 -0.7405
 4285TIP3   OH234269   2.918   0.631  12.353  0.1504 -0.3836 -0.0824
 4285TIP3    H134270   2.854   0.702  12.345 -1.7947 -2.1439 -0.8001
 4285TIP3    H234271   2.984   0.651  12.287 -0.2698  0.8163 -0.1620
 4286TIP3   OH234272   4.254   1.138  13.516 -0.1359 -0.0472  0.4269
 4286TIP3    H134273   4.208   1.088  13.583  0.3164 -0.4604  0.4269
 4286TIP3    H234274   4.189   1.151  13.447  0.1327 -1.8170 -0.1912
 4287TIP3   OH234275   6.589   1.739  12.317 -0.2451 -0.0105 -0.4104
 4287TIP3    H134276   6.556   1.794  12.245  0.5633  0.3771 -0.4914
 4287TIP3    H234277   6.528   1.757  12.389 -2.5130 -2.2044 -1.6446
 4288TIP3   OH234278   2.516   5.519  16.268 -0.2189  0.6308 -0.0313
 4288TIP3    H134279   2.469   5.534  16.350 -0.0168  3.8624 -0.3521
 4288TIP3    H234280   2.605   5.548  16.286  0.5794 -1.2828 -0.6589
 4289TIP3   OH234281   1.237   5.178   0.833 -0.0022 -0.8813 -0.6070
 4289TIP3    H134282   1.217   5.090   0.863 -2.3021 -0.2406 -0.0720
 4289TIP3    H234283   1.152   5.222   0.828  0.9763  1.0381 -1.7461
 4290TIP3   OH234284   5.931   2.250  14.383 -0.0864  0.8384  0.2169
 4290TIP3    H134285   6.016   2.290  14.401  0.4123  0.2313 -0.7325
 4290TIP3    H234286   5.878   2.322  14.348  0.2236  1.0910  0.2584
 4291TIP3   OH234287   6.011   1.140   0.486 -0.2323  0.3463 -0.1093
 4291TIP3    H134288   5.973   1.083   0.553  0.2944  1.0935  0.8460
 4291TIP3    H234289   6.084   1.089   0.451 -0.1247  0.1995  0.3217
 4292TIP3   OH234290   0.862   0.195  16.969  0.2642  0.5985 -0.0391
 4292TIP3    H134291   0.783   0.165  17.013  0.8513 -1.3322 -0.2061
 4292TIP3    H234292   0.831   0.231  16.886 -0.4805  0.1700  0.0486
 4293TIP3   OH234293   4.499   0.226   3.911 -0.5410  0.0954  0.6833
 4293TIP3    H134294   4.554   0.148   3.919 -3.1702 -1.9295  0.7079
 4293TIP3    H234295   4.490   0.239   3.816 -2.3567 -1.5233  0.5512
 4294TIP3   OH234296   4.065   2.964   2.510 -0.0088 -0.0002 -0.2359
 4294TIP3    H134297   4.135   2.983   2.447  0.2978 -0.3444 -0.0029
 4294TIP3    H234298   4.002   3.035   2.497 -1.7311 -1.8601 -3.4370
 4295TIP3   OH234299   6.233   3.113  17.324 -0.7548  0.1429 -0.1414
 4295TIP3    H134300   6.255   3.026  17.291  0.9319  0.4139  0.1709
 4295TIP3    H234301   6.232   3.168  17.246 -0.0314  0.1736 -0.1332
 4296TIP3   OH234302   5.197   1.558   4.892  0.4835 -0.0082  0.1699
 4296TIP3    H134303   5.180   1.483   4.949  0.5690  0.2729  0.5679
 4296TIP3    H234304   5.251   1.617   4.946  1.2087 -0.0836 -0.4573
 4297TIP3   OH234305   4.433   6.572  15.658  0.0724 -0.1295 -0.2803
 4297TIP3    H134306   4.497   6.546  15.724  0.4340  0.7211 -0.2788
 4297TIP3    H234307   4.388   6.491  15.635 -0.3440 -0.3923  1.3016
 4298TIP3   OH234308   0.647   4.218  14.637  0.0776 -0.3101 -0.1269
 4298TIP3    H134309   0.607   4.145  14.590 -1.3079  1.1286 -1.3188
 4298TIP3    H234310   0.715   4.251  14.578 -0.7200  0.6278 -0.5544
 4299TIP3   OH234311   5.827   4.357   6.260 -0.0644 -0.1772  0.5037
 4299TIP3    H134312   5.740   4.377   6.225 -0.0189 -0.3172  0.3088
 4299TIP3    H234313   5.858   4.283   6.207  0.5196  0.4141 -0.0004
 4300TIP3   OH234314   6.706   0.922   3.409 -0.1244 -0.2724  0.1575
 4300TIP3    H134315   6.749   0.980   3.346  0.5755 -0.7106  0.2220
 4300TIP3    H234316   6.740   0.835   3.388  1.5515 -0.2070  2.3100
 4301TIP3   OH234317   3.886   5.112   0.258 -0.2290  0.3845 -0.3594
 4301TIP3    H134318   3.871   5.134   0.167  0.1187  0.2271 -0.4587
 4301TIP3    H234319   3.975   5.143   0.276 -0.3829  0.6251 -0.0092
 4302TIP3   OH234320   3.731   2.856  14.620 -0.2264  0.9102  0.3259
 4302TIP3    H134321   3.663   2.918  14.596 -2.2293 -1.7084 -1.3482
 4302TIP3    H234322   3.706   2.774  14.577  3.5675 -0.4690  0.3014
 4303TIP3   OH234323   0.951   0.325  14.898 -0.0089  0.1064  0.1927
 4303TIP3    H134324   0.953   0.373  14.815 -3.8973  0.3330  0.0682
 4303TIP3    H234325   0.962   0.393  14.965 -1.6014  0.6450 -0.0666
 4304TIP3   OH234326   3.436   2.528  14.785  0.1812  0.1018 -0.0092
 4304TIP3    H134327   3.462   2.448  14.738 -1.0656 -0.3778  0.0663
 4304TIP3    H234328   3.492   2.530  14.862  1.0293 -0.0672 -0.6043
 4305TIP3   OH234329   2.358   4.568   2.778 -0.1832  0.0556  0.1223
 4305TIP3    H134330   2.341   4.541   2.688  0.3949  1.0894 -0.3197
 4305TIP3    H234331   2.277   4.610   2.806 -0.3260 -0.1657  0.0380
 4306TIP3   OH234332   3.417   1.364  12.076  0.2482 -0.0547  0.3665
 4306TIP3    H134333   3.445   1.274  12.061 -1.9998 -0.6332 -0.7515
 4306TIP3    H234334   3.370   1.389  11.997 -0.9604  1.3832  1.4628
 4307TIP3   OH234335   4.827   6.611  16.503 -0.0158  0.0611  0.1693
 4307TIP3    H134336   4.829   6.639  16.411 -0.5511 -4.1207 -1.3663
 4307TIP3    H234337   4.913   6.572  16.518 -0.1427  0.1805  1.2576
 4308TIP3   OH234338   4.525   3.396   1.994  0.3480 -0.1732  0.7301
 4308TIP3    H134339   4.496   3.417   1.905  3.1416 -1.0862 -0.4937
 4308TIP3    H234340   4.568   3.475   2.025 -0.4278  0.0694  1.2241
 4309TIP3   OH234341   3.567   4.756   1.827 -0.2609  0.0008 -0.4611
 4309TIP3    H134342   3.527   4.748   1.740 -0.2910  0.7061 -0.5161
 4309TIP3    H234343   3.657   4.783   1.809 -0.6632  1.5895 -0.2448
 4310TIP3   OH234344   2.327   5.346  11.528 -0.0862  0.0766  0.2831
 4310TIP3    H134345   2.346   5.433  11.564  0.7640 -1.4680  4.0374
 4310TIP3    H234346   2.235   5.330  11.552  0.7552 -1.3423  2.8700
 4311TIP3   OH234347   0.389   6.494  11.886 -0.3918 -0.6282  0.1446
 4311TIP3    H134348   0.483   6.475  11.885 -0.3842 -0.5956  0.2559
 4311TIP3    H234349   0.370   6.528  11.799 -0.4303 -1.2742 -0.1000
 4312TIP3   OH234350   5.005   5.466  11.842  0.4528 -0.2923 -0.1579
 4312TIP3    H134351   5.028   5.391  11.896  0.6544 -0.9754 -1.1695
 4312TIP3    H234352   5.068   5.534  11.867  0.9836 -0.8225 -0.0367
 4313TIP3   OH234353   6.616   3.637  14.455  0.3965 -0.5594 -0.0026
 4313TIP3    H134354   6.550   3.608  14.392 -0.4110 -0.0929  0.6057
 4313TIP3    H234355   6.597   3.730  14.468  0.7091 -0.5951  0.7419
 4314TIP3   OH234356   5.030   1.419   1.166  0.0693  0.1939  0.2668
 4314TIP3    H134357   5.011   1.425   1.260 -0.1574  0.7972  0.1851
 4314TIP3    H234358   5.008   1.506   1.131  0.7684  0.1832 -0.2302
 4315TIP3   OH234359   0.404   0.205   3.692 -0.4979  0.2372 -0.0053
 4315TIP3    H134360   0.424   0.298   3.681  0.5721  0.1760  1.1988
 4315TIP3    H234361   0.481   0.169   3.736 -1.7338 -0.8076  1.3908
 4316TIP3   OH234362   6.598   1.519  12.907  0.0573 -0.0612 -0.3261
 4316TIP3    H134363   6.551   1.437  12.921  0.2288 -0.0129  0.5756
 4316TIP3    H234364   6.640   1.508  12.822  0.1201 -0.9319 -0.1910
 4317TIP3   OH234365   0.258   1.587   5.672 -0.8908 -0.0663 -0.5827
 4317TIP3    H134366   0.232   1.671   5.708 -1.6717  0.2883 -1.8829
 4317TIP3    H234367   0.336   1.562   5.721 -1.6071  0.5979  0.9641
 4318TIP3   OH234368   3.187   4.964  15.662  0.1925  0.1065 -0.3124
 4318TIP3    H134369   3.251   4.988  15.595 -1.6176 -0.0648 -2.2086
 4318TIP3    H234370   3.114   5.024  15.648 -0.4661 -0.3199  1.1504
 4319TIP3   OH234371   2.175   6.414  12.606  0.0105  0.3020  0.5725
 4319TIP3    H134372   2.099   6.366  12.639 -1.8414  1.1579 -2.1255
 4319TIP3    H234373   2.227   6.348  12.560 -0.2477  0.1140  0.5491
 4320TIP3   OH234374   0.423   1.818   1.404 -0.0650 -0.2178 -0.5220
 4320TIP3    H134375   0.492   1.873   1.440  0.2286 -0.0656 -1.3166
 4320TIP3    H234376   0.365   1.878   1.357 -0.1661 -0.4848 -0.7417
 4321TIP3   OH234377   0.117   3.638   6.821 -0.4054 -0.8428 -0.0758
 4321TIP3    H134378   0.170   3.665   6.746 -3.1319  0.5652 -1.6611
 4321TIP3    H234379   0.092   3.548   6.802  1.1077 -1.4504  0.5884
 4322TIP3   OH234380   1.572   6.477   3.947 -0.1735 -0.2880  0.0734
 4322TIP3    H134381   1.572   6.382   3.949  0.8898 -0.3462 -1.2393
 4322TIP3    H234382   1.650   6.500   3.896 -0.6082  1.2736  0.0574
 4323TIP3   OH234383   3.500   2.482   0.821  0.1451  0.3814 -0.2443
 4323TIP3    H134384   3.576   2.493   0.878 -1.2269  2.4686  1.3499
 4323TIP3    H234385   3.518   2.537   0.745  1.3422 -1.2849 -1.2589
 4324TIP3   OH234386   4.433   1.212  17.346 -0.3479 -0.1142 -0.0339
 4324TIP3    H134387   4.338   1.214  17.361 -0.8169 -0.7059 -2.3955
 4324TIP3    H234388   4.470   1.264  17.417 -2.4261 -0.0012  1.0451
 4325TIP3   OH234389   1.753   4.265  14.284  0.1344  0.2442  0.3524
 4325TIP3    H134390   1.676   4.215  14.309  0.3632 -0.5113 -0.3671
 4325TIP3    H234391   1.787   4.302  14.365  0.8536 -2.0892  1.1925
 4326TIP3   OH234392   5.408   5.084  12.397  0.1934 -0.4470  0.1656
 4326TIP3    H134393   5.433   5.174  12.376 -0.4663 -0.1637  0.5620
 4326TIP3    H234394   5.374   5.049  12.314  0.4733 -0.3370  0.0046
 4327TIP3   OH234395   4.939   6.471  15.279  0.1382  0.7957 -0.3981
 4327TIP3    H134396   4.959   6.481  15.372 -0.3956  1.2668 -0.3259
 4327TIP3    H234397   4.921   6.560  15.248  0.1184  0.6215 -0.9035
 4328TIP3   OH234398   1.878   4.922   6.479 -0.1299 -0.1246 -0.8636
 4328TIP3    H134399   1.831   5.004   6.461  0.8755  0.3020 -1.6000
 4328TIP3    H234400   1.831   4.856   6.427  0.2940  0.3682 -1.9030
 4329TIP3   OH234401   0.985   4.411   6.234  0.1349 -0.3870  0.0076
 4329TIP3    H134402   0.900   4.441   6.203  0.5336  0.0545 -0.6883
 4329TIP3    H234403   1.013   4.479   6.296 -0.1743 -0.7174  0.5185
 4330TIP3   OH234404   1.296   1.955  10.836  0.7015  0.0022  0.4867
 4330TIP3    H134405   1.291   1.864  10.807 -0.7427  0.2036 -0.0234
 4330TIP3    H234406   1.231   1.961  10.907  1.9061  0.2797  1.6027
 4331TIP3   OH234407   4.181   5.701   4.470  0.3152  0.4706 -0.0465
 4331TIP3    H134408   4.156   5.792   4.484 -0.3036  0.1450  1.1472
 4331TIP3    H234409   4.164   5.658   4.555 -0.9851 -1.0960 -1.0333
 4332TIP3   OH234410   2.329   2.310   5.175  0.4131  0.0456 -0.5280
 4332TIP3    H134411   2.236   2.297   5.194  0.3739 -0.0486 -0.7868
 4332TIP3    H234412   2.373   2.277   5.254  0.2107  0.5842 -0.1804
 4333TIP3   OH234413   4.462   5.428   1.902  0.2788  0.0620 -0.1638
 4333TIP3    H134414   4.439   5.408   1.993 -0.0643  1.0611 -0.0219
 4333TIP3    H234415   4.413   5.507   1.881 -1.7180 -1.5396 -2.0727
 4334TIP3   OH234416   3.151   5.500   4.730 -0.5023 -0.4711  0.6238
 4334TIP3    H134417   3.237   5.489   4.770  0.4257  0.7195 -0.9330
 4334TIP3    H234418   3.122   5.587   4.756 -0.9771 -0.6353  0.6621
 4335TIP3   OH234419   3.937   0.603  11.392 -0.0174 -0.4494  0.2297
 4335TIP3    H134420   3.942   0.516  11.431  0.0044 -0.6504 -0.2146
 4335TIP3    H234421   4.027   0.622  11.366  0.1082  0.0055  0.9580
 4336TIP3   OH234422   5.838   1.732  15.961 -0.4663 -0.6245 -0.1114
 4336TIP3    H134423   5.897   1.670  15.919 -1.0181 -1.1594 -0.0984
 4336TIP3    H234424   5.897   1.795  16.004  0.0993 -0.4776 -1.0749
 4337TIP3   OH234425   1.372   2.219   1.485 -0.2220  0.4957 -0.0339
 4337TIP3    H134426   1.403   2.197   1.572 -1.3431 -0.4238  0.1706
 4337TIP3    H234427   1.446   2.201   1.427 -0.1833 -1.1499  0.4784
 4338TIP3   OH234428   1.925   2.950   5.744 -0.4813 -0.0218 -0.0300
 4338TIP3    H134429   1.887   3.004   5.813 -1.9087 -1.4837  0.4052
 4338TIP3    H234430   1.956   2.871   5.789 -0.7719 -0.6790 -0.9368
 4339TIP3   OH234431   0.046   3.215  13.987  0.1359  0.7712 -0.2978
 4339TIP3    H134432  -0.040   3.253  14.004  0.3159  1.1721 -0.2626
 4339TIP3    H234433   0.030   3.143  13.926 -0.2840  0.5271  0.0957
 4340TIP3   OH234434   2.269   1.001   4.989 -0.2001  0.3172 -0.2228
 4340TIP3    H134435   2.266   1.025   4.897  0.6973  0.5147 -0.2084
 4340TIP3    H234436   2.357   0.968   5.003 -0.8494 -1.3864  0.1715
 4341TIP3   OH234437   1.722   5.253  14.311 -0.4718  0.3527  0.3415
 4341TIP3    H134438   1.656   5.184  14.311  1.6959 -1.9129  2.2203
 4341TIP3    H234439   1.799   5.212  14.271  0.4657  2.1821  0.1749
 4342TIP3   OH234440   3.694   4.536   3.258  0.5494 -0.1926  0.2142
 4342TIP3    H134441   3.740   4.517   3.176 -0.7373 -0.5413 -0.4596
 4342TIP3    H234442   3.722   4.625   3.281  1.6864 -0.4633 -0.0601
 4343TIP3   OH234443   5.615   4.572   0.608 -0.6837 -0.0274 -0.3565
 4343TIP3    H134444   5.568   4.510   0.553 -2.3850  1.0061 -0.1439
 4343TIP3    H234445   5.677   4.518   0.658 -1.0551 -1.3263 -1.2522
 4344TIP3   OH234446   2.287   6.127   2.973  0.0767 -0.4513 -0.6562
 4344TIP3    H134447   2.244   6.158   3.053  0.1004  0.8308 -1.1101
 4344TIP3    H234448   2.358   6.071   3.004 -0.4723 -0.7042  0.1854
 4345TIP3   OH234449   5.407   5.469  11.643 -0.2069  0.1758  0.2030
 4345TIP3    H134450   5.358   5.511  11.714 -0.4970  0.2415 -0.0383
 4345TIP3    H234451   5.381   5.516  11.564 -1.3335 -1.1174 -0.2332
 4346TIP3   OH234452   2.534   5.990  16.397 -0.1764 -0.1797  0.1898
 4346TIP3    H134453   2.583   6.041  16.333 -0.3809 -1.6022 -1.1433
 4346TIP3    H234454   2.548   6.036  16.480  0.3894  1.5047 -0.7874
 4347TIP3   OH234455   1.997   1.403  13.317  0.1751  0.0920 -0.1228
 4347TIP3    H134456   1.924   1.357  13.276 -1.1323 -0.9583  3.0625
 4347TIP3    H234457   1.955   1.469  13.373  1.7662  0.6137  0.5174
 4348TIP3   OH234458   3.036   5.245   3.020 -0.0167 -0.0706 -0.4211
 4348TIP3    H134459   3.059   5.189   3.094  0.4479 -0.8163 -1.1300
 4348TIP3    H234460   2.940   5.243   3.018 -0.0911  0.7172  0.7255
 4349TIP3   OH234461   6.563   5.601  12.963  0.4112  0.1226 -0.5290
 4349TIP3    H134462   6.488   5.614  13.021  0.4117  0.4463 -0.5961
 4349TIP3    H234463   6.533   5.535  12.900  0.5247 -0.4647  0.0270
 4350TIP3   OH234464   5.205   0.580   3.722  0.0661  0.1216 -0.1505
 4350TIP3    H134465   5.199   0.659   3.668 -1.0884 -0.5126 -0.9972
 4350TIP3    H234466   5.292   0.544   3.701 -0.2363  0.0534 -1.3749
 4351TIP3   OH234467   3.886   0.517   0.223 -0.2618  0.5868  0.4417
 4351TIP3    H134468   3.963   0.554   0.181 -0.1451  0.8887  0.9199
 4351TIP3    H234469   3.849   0.589   0.274 -0.8226  0.4274  0.2728
 4352TIP3   OH234470   3.213   1.013  16.087  0.1155 -0.1743  0.0658
 4352TIP3    H134471   3.193   1.100  16.052  0.4070 -0.0344  0.2450
 4352TIP3    H234472   3.229   1.028  16.180 -2.9019 -0.8408  0.8020
 4353TIP3   OH234473   1.132   2.631   0.401  0.1657  0.0517  0.1733
 4353TIP3    H134474   1.219   2.627   0.361  0.3650  0.1363  0.5961
 4353TIP3    H234475   1.072   2.608   0.329  0.2830  2.6327 -0.8716
 4354TIP3   OH234476   1.090   4.625  13.693 -0.0852  0.1929  0.5371
 4354TIP3    H134477   1.023   4.648  13.757 -0.2246  1.3809 -0.0160
 4354TIP3    H234478   1.165   4.681  13.714  0.6045 -0.8288  0.8917
 4355TIP3   OH234479   6.061   3.449   0.220 -0.6080 -0.1669 -0.2823
 4355TIP3    H134480   5.972   3.479   0.237 -1.5271 -1.5323 -2.3260
 4355TIP3    H234481   6.056   3.353   0.227  0.1768 -0.4131 -2.4043
 4356TIP3   OH234482   1.433   5.228   4.276  0.4474 -0.4315 -0.5433
 4356TIP3    H134483   1.377   5.267   4.343 -0.7391 -0.2971 -1.5706
 4356TIP3    H234484   1.375   5.216   4.200  1.4301 -1.7353 -1.1361
 4357TIP3   OH234485   1.778   6.250   2.352 -0.6204 -0.3499 -0.1281
 4357TIP3    H134486   1.811   6.201   2.277  0.0982 -0.7489  0.4375
 4357TIP3    H234487   1.764   6.184   2.420 -2.7005 -0.2075 -0.3703
 4358TIP3   OH234488   2.386   4.841  12.413 -0.1023  0.2767 -0.4646
 4358TIP3    H134489   2.436   4.809  12.488 -0.1697  0.3364 -0.3944
 4358TIP3    H234490   2.442   4.822  12.337 -0.2050 -0.1355 -0.4364
 4359TIP3   OH234491   2.872   1.253   5.924  0.1629 -0.6794 -0.0810
 4359TIP3    H134492   2.794   1.232   5.976  0.8444 -0.0224  1.2676
 4359TIP3    H234493   2.917   1.169   5.913 -0.7966 -1.0851 -0.9982
 4360TIP3   OH234494   3.908   1.601   0.027 -0.4741  0.2403 -0.6378
 4360TIP3    H134495   3.871   1.643  -0.051 -2.4777  1.3624  0.8025
 4360TIP3    H234496   3.898   1.507   0.011  0.2062  0.4125 -2.1850
 4361TIP3   OH234497   5.782   0.861   0.602 -0.2419  0.1503 -0.4607
 4361TIP3    H134498   5.827   0.870   0.686  1.3822  0.3857 -1.3133
 4361TIP3    H234499   5.781   0.766   0.586  0.6833  0.1794 -0.7831
 4362TIP3   OH234500   3.558   1.040   3.315 -0.0450  0.0686 -0.2502
 4362TIP3    H134501   3.494   1.010   3.379 -1.5505  0.1976 -1.6537
 4362TIP3    H234502   3.548   1.135   3.313  0.3108  0.1072 -0.3550
 4363TIP3   OH234503   2.161   0.082  14.137  0.3257  0.5932 -0.4024
 4363TIP3    H134504   2.143   0.086  14.231  0.3005 -2.3250 -0.1682
 4363TIP3    H234505   2.096   0.020  14.104  0.1889  1.7529 -2.4190
 4364TIP3   OH234506   3.628   1.765  16.270 -0.0069 -0.1122 -0.0150
 4364TIP3    H134507   3.717   1.734  16.288 -0.6138 -0.9729  1.7098
 4364TIP3    H234508   3.637   1.859  16.261  0.9633 -0.0626  1.1465
 4365TIP3   OH234509   4.664   3.834   0.807  0.0906  0.2829  0.0490
 4365TIP3    H134510   4.682   3.927   0.822  0.4373  0.2109  0.1022
 4365TIP3    H234511   4.751   3.794   0.803 -0.0602 -0.3075  1.7522
 4366TIP3   OH234512   2.298   4.486   5.684  0.1302  0.2729 -0.4152
 4366TIP3    H134513   2.307   4.581   5.690 -0.4172  0.3206 -0.2416
 4366TIP3    H234514   2.205   4.471   5.699  0.4644 -0.4168  1.1642
 4367TIP3   OH234515   4.409   6.128  13.237 -0.1430 -0.1677 -0.1798
 4367TIP3    H134516   4.314   6.120  13.245 -0.1625 -0.1635 -0.4070
 4367TIP3    H234517   4.442   6.111  13.326 -0.3237 -0.6150 -0.1947
 4368TIP3   OH234518   0.178   2.015   2.325 -0.3412 -0.7001 -0.2854
 4368TIP3    H134519   0.175   1.966   2.407  0.1937  0.0015  0.1641
 4368TIP3    H234520   0.087   2.024   2.299 -0.5929 -0.1021  0.7393
 4369TIP3   OH234521   0.415   4.884  12.916 -0.2600 -0.2619 -0.3426
 4369TIP3    H134522   0.464   4.811  12.878 -0.8788 -1.9464  1.8679
 4369TIP3    H234523   0.330   4.882  12.871  0.7386  1.2049 -2.5210
 4370TIP3   OH234524   1.590   1.149   3.399 -0.7218 -0.5479 -0.0396
 4370TIP3    H134525   1.604   1.220   3.462 -1.2523 -0.9029  0.4812
 4370TIP3    H234526   1.530   1.186   3.335 -0.7582 -0.4279  0.0638
 4371TIP3   OH234527   6.140   3.414   3.035  0.2206 -0.1750 -0.0298
 4371TIP3    H134528   6.152   3.456   3.120 -1.7679  0.6958 -0.1260
 4371TIP3    H234529   6.229   3.399   3.003  1.0147  2.1599  0.8873
 4372TIP3   OH234530   4.654   3.526   4.643  0.3668  0.0793  0.3976
 4372TIP3    H134531   4.564   3.546   4.669  0.1805 -0.7244  0.4005
 4372TIP3    H234532   4.685   3.463   4.708  0.4716 -0.6659 -0.3491
 4373TIP3   OH234533   2.951   6.131   4.441 -0.2753 -0.5079 -0.2552
 4373TIP3    H134534   2.939   6.047   4.486 -1.9929 -0.1663 -0.0305
 4373TIP3    H234535   2.952   6.196   4.511  0.4469 -0.2665 -0.4805
 4374TIP3   OH234536   4.967   0.503  14.140 -0.4990 -0.0963  0.1588
 4374TIP3    H134537   5.007   0.496  14.227 -0.8316 -0.3631  0.2944
 4374TIP3    H234538   5.035   0.474  14.080  0.3390  1.7188  0.1633
 4375TIP3   OH234539   2.713   1.437  15.268  0.2843  0.4745 -0.2708
 4375TIP3    H134540   2.678   1.521  15.298  4.6269  2.0208  1.3771
 4375TIP3    H234541   2.677   1.372  15.329 -0.4262  1.7115  0.6770
 4376TIP3   OH234542   0.297   4.316   1.986 -0.6282  0.1527  0.0469
 4376TIP3    H134543   0.313   4.379   2.056 -0.4717 -1.7244  1.8047
 4376TIP3    H234544   0.373   4.324   1.929  0.8672 -0.4402  1.8550
 4377TIP3   OH234545   4.046   0.887  12.778 -0.2776 -0.3779 -0.4991
 4377TIP3    H134546   4.126   0.903  12.827 -0.6677  3.6746 -0.8928
 4377TIP3    H234547   3.976   0.897  12.842 -0.6048  0.5740 -0.9867
 4378TIP3   OH234548   1.761   0.175  15.322 -0.1711 -0.1797 -0.0053
 4378TIP3    H134549   1.774   0.269  15.312 -1.1126  0.1853  1.7787
 4378TIP3    H234550   1.839   0.145  15.368  0.7506 -0.5433 -1.7409
 4379TIP3   OH234551   1.203   4.468   2.077  0.0324 -0.0361 -0.2569
 4379TIP3    H134552   1.115   4.498   2.054  0.4074  0.8104 -0.6048
 4379TIP3    H234553   1.258   4.546   2.070  0.9875 -0.7546 -0.9978
 4380TIP3   OH234554   4.211   2.286  12.746  0.1817 -0.7822 -0.6916
 4380TIP3    H134555   4.156   2.209  12.758  0.8710 -1.2355 -0.3404
 4380TIP3    H234556   4.275   2.259  12.680 -0.3399 -0.0785 -1.5019
 4381TIP3   OH234557   4.984   6.637   0.198 -0.5392 -0.3027  0.4279
 4381TIP3    H134558   5.069   6.631   0.156 -1.4822 -1.6609 -1.4368
 4381TIP3    H234559   4.965   6.731   0.203  0.6261 -0.0347 -0.0177
 4382TIP3   OH234560   5.289   0.293  13.128  0.1325  0.0502 -0.2811
 4382TIP3    H134561   5.331   0.283  13.043  0.2030 -0.1850 -0.2188
 4382TIP3    H234562   5.197   0.269  13.113  0.0106  0.5816 -0.4226
 4383TIP3   OH234563   4.822   6.700   4.069  0.3081 -0.6122  0.2705
 4383TIP3    H134564   4.839   6.772   4.130  0.7876 -0.3912 -0.1182
 4383TIP3    H234565   4.727   6.699   4.059  0.1069 -1.4173  1.9429
 4384TIP3   OH234566   4.198   6.212   2.654 -0.0754 -0.9772  0.2081
 4384TIP3    H134567   4.184   6.159   2.732 -1.4204 -1.9989 -0.6909
 4384TIP3    H234568   4.118   6.264   2.646  1.3725  1.6500  1.3239
 4385TIP3   OH234569   6.708   5.477   2.984  0.3309  0.3990  0.3547
 4385TIP3    H134570   6.744   5.389   2.984 -0.3451  0.1123  1.0421
 4385TIP3    H234571   6.779   5.532   3.018  0.2558 -0.1020  1.3485
 4386TIP3   OH234572   4.339   6.470  14.557  0.0733 -0.1664  0.1933
 4386TIP3    H134573   4.316   6.378  14.538  3.2030 -0.6055 -2.3583
 4386TIP3    H234574   4.355   6.472  14.651  1.1071 -2.5926  0.1444
 4387TIP3   OH234575   2.661   3.185   5.133  0.1277 -0.4440 -0.2942
 4387TIP3    H134576   2.576   3.212   5.169  1.0254  0.3021  1.3910
 4387TIP3    H234577   2.640   3.117   5.070 -1.7186 -0.3558  0.1782
 4388TIP3   OH234578   4.482   6.463  16.319  0.5352  0.1293  0.0192
 4388TIP3    H134579   4.512   6.533  16.260  0.1066 -0.4426 -0.9043
 4388TIP3    H234580   4.529   6.385  16.288  1.6283  0.1375  1.5547
 4389TIP3   OH234581   4.933   4.459   5.825  0.0319  0.0817 -0.0833
 4389TIP3    H134582   5.012   4.422   5.865  0.8253  1.0940 -0.6770
 4389TIP3    H234583   4.862   4.401   5.855  0.6521  0.4679  2.3309
 4390TIP3   OH234584   5.164   4.991  14.076  0.2699 -0.2615 -0.7536
 4390TIP3    H134585   5.121   5.017  13.994 -0.1522  0.1148 -0.4167
 4390TIP3    H234586   5.097   4.940  14.122  0.3157 -0.0025 -0.3998
 4391TIP3   OH234587   2.465   6.067  16.002 -0.1972  0.0292  1.0579
 4391TIP3    H134588   2.504   5.998  16.056 -1.9063 -0.9548  1.0938
 4391TIP3    H234589   2.436   6.022  15.923 -1.0909  0.7602  0.9585
 4392TIP3   OH234590   2.199   1.693  13.397  0.3946  0.0873 -0.9655
 4392TIP3    H134591   2.275   1.671  13.343  1.0963  3.1836 -1.4269
 4392TIP3    H234592   2.226   1.771  13.445 -2.2575  0.8829 -0.6180
 4393TIP3   OH234593   1.684   5.248  16.928 -0.1000 -0.2413 -0.1234
 4393TIP3    H134594   1.777   5.248  16.904 -0.5198 -0.6717 -1.9146
 4393TIP3    H234595   1.640   5.292  16.856 -1.3127 -0.0875  0.6726
 4394TIP3   OH234596   6.158   2.203  14.901  0.0131  0.4114  0.3946
 4394TIP3    H134597   6.247   2.234  14.916  0.5008 -0.3450 -0.7736
 4394TIP3    H234598   6.105   2.282  14.892  0.6650  0.8678  0.5381
 4395TIP3   OH234599   2.663   3.187   2.588 -0.5030  0.0838  0.4981
 4395TIP3    H134600   2.632   3.200   2.499 -0.7551 -0.0420  0.5685
 4395TIP3    H234601   2.703   3.271   2.612  0.2439 -0.1115  0.0001
 4396TIP3   OH234602   4.224   4.931   0.760  0.2020  0.6207 -0.5662
 4396TIP3    H134603   4.215   4.911   0.853 -1.0963 -1.0024 -0.9871
 4396TIP3    H234604   4.167   5.006   0.746 -1.7158 -0.7362 -0.4771
 4397TIP3   OH234605   0.340   0.296   5.505 -0.9245  0.0367  0.2398
 4397TIP3    H134606   0.269   0.233   5.514 -0.5001 -0.3365  1.0578
 4397TIP3    H234607   0.373   0.309   5.594  0.7762 -0.6567 -0.2415
 4398TIP3   OH234608   5.678   0.624  11.764 -0.3313  0.2226 -0.6216
 4398TIP3    H134609   5.766   0.632  11.802 -1.9284  3.0619  3.0984
 4398TIP3    H234610   5.660   0.709  11.725 -1.2992 -0.4988 -1.8507
 4399TIP3   OH234611   4.155   6.568  14.894  0.2933  0.2526  0.1678
 4399TIP3    H134612   4.250   6.579  14.900  0.4760 -0.6130 -0.7090
 4399TIP3    H234613   4.137   6.490  14.946 -0.0900  0.9625  1.1295
 4400TIP3   OH234614   4.960   3.828  13.660 -0.9073  0.7721 -0.2147
 4400TIP3    H134615   4.933   3.894  13.596  1.4728  3.0665  0.9762
 4400TIP3    H234616   4.892   3.832  13.728 -1.5155  0.9662 -0.8183
 4401TIP3   OH234617   6.126   0.121  14.828  0.0345  0.0937  0.5811
 4401TIP3    H134618   6.097   0.085  14.912 -0.1225 -1.3497 -0.0626
 4401TIP3    H234619   6.161   0.046  14.781 -0.6148  0.7354 -0.9624
 4402TIP3   OH234620   6.350   3.740  12.531  0.2269  0.5112  0.5888
 4402TIP3    H134621   6.297   3.796  12.588  0.4304  0.0955  1.1971
 4402TIP3    H234622   6.323   3.651  12.554 -0.3769  0.3574 -0.6484
 4403TIP3   OH234623   4.283   0.863   0.174 -0.2617 -0.1582 -0.1549
 4403TIP3    H134624   4.363   0.825   0.138 -0.3010  0.2358 -0.6555
 4403TIP3    H234625   4.313   0.914   0.250  0.1771  1.2392 -1.2152
 4404TIP3   OH234626   6.575   5.110   5.902  0.6281 -0.6602  0.0888
 4404TIP3    H134627   6.617   5.084   5.984  0.1693  0.6359  0.7670
 4404TIP3    H234628   6.551   5.028   5.860  0.9719 -1.3502  1.2053
 4405TIP3   OH234629   5.761   6.078   1.341 -0.2664 -0.2587  0.3187
 4405TIP3    H134630   5.772   6.112   1.430 -1.4965  3.3089 -0.7287
 4405TIP3    H234631   5.668   6.092   1.322  0.1312 -0.2460 -1.7836
 4406TIP3   OH234632   3.616   0.475   1.227 -0.1221  0.7979 -0.1965
 4406TIP3    H134633   3.667   0.395   1.215  2.6591  2.4771 -0.3643
 4406TIP3    H234634   3.585   0.497   1.140 -1.1206 -0.1670 -0.1129
 4407TIP3   OH234635   5.617   2.847  15.938  0.3420  0.5128  0.5846
 4407TIP3    H134636   5.583   2.772  15.986 -0.9950  0.1345 -0.8431
 4407TIP3    H234637   5.545   2.910  15.937  0.8751  1.1362  0.3818
 4408TIP3   OH234638   0.464   2.763  15.480  0.9214 -0.1146  0.5158
 4408TIP3    H134639   0.487   2.780  15.572  0.0145 -0.4150  0.8087
 4408TIP3    H234640   0.456   2.668  15.475 -1.6645  0.0182  0.8162
 4409TIP3   OH234641   1.245   2.782  15.164  0.3553 -0.5727  0.0613
 4409TIP3    H134642   1.279   2.866  15.193  0.0813 -0.1046 -0.9312
 4409TIP3    H234643   1.159   2.801  15.127  0.9143 -1.0256 -1.5641
 4410TIP3   OH234644   6.178   0.576   4.079  0.2487 -0.1000 -0.4008
 4410TIP3    H134645   6.215   0.510   4.137  0.3140  0.0410 -0.2820
 4410TIP3    H234646   6.250   0.602   4.022  0.4283  0.4228  0.0544
 4411TIP3   OH234647   5.685   2.621  10.852 -0.0372  0.0276 -0.6417
 4411TIP3    H134648   5.613   2.563  10.875 -0.7161  0.5166 -1.4450
 4411TIP3    H234649   5.654   2.708  10.877  0.8236  0.1043  0.2265
 4412TIP3   OH234650   1.035   4.056  10.975 -0.1389  0.4043 -0.5552
 4412TIP3    H134651   0.965   3.993  10.991  0.3918  0.3172  1.7778
 4412TIP3    H234652   0.994   4.141  10.989  0.4905  0.3101  2.5055
 4413TIP3   OH234653   6.594   0.535   5.175 -0.5401 -0.5053  0.3663
 4413TIP3    H134654   6.553   0.617   5.200 -0.3726 -0.1969 -0.3516
 4413TIP3    H234655   6.523   0.483   5.137 -0.1765  0.2737 -1.4663
 4414TIP3   OH234656   1.687   4.316  13.828  0.3758 -0.0263 -1.0087
 4414TIP3    H134657   1.609   4.318  13.884  1.1174 -0.1636  0.0469
 4414TIP3    H234658   1.681   4.397  13.777  1.4185  1.9089  1.7032
 4415TIP3   OH234659   4.934   0.766   1.062 -0.0956 -0.4686  0.7528
 4415TIP3    H134660   4.887   0.839   1.021 -0.5709 -0.3691  1.4751
 4415TIP3    H234661   4.933   0.785   1.155  0.3769 -1.0589  0.8865
 4416TIP3   OH234662   1.635   5.873  16.136  0.0082  0.5081  0.4571
 4416TIP3    H134663   1.673   5.950  16.095 -0.0688  0.1904 -0.2224
 4416TIP3    H234664   1.591   5.827  16.065 -0.8753  0.4011  1.0574
 4417TIP3   OH234665   4.953   5.052  12.545 -0.2906 -0.1838  0.7583
 4417TIP3    H134666   4.951   5.113  12.470 -0.9839  1.4966  2.0789
 4417TIP3    H234667   5.046   5.035  12.559 -0.0796  0.5085  0.2869
 4418TIP3   OH234668   1.043   5.388  17.484 -0.1230 -0.1080 -0.2643
 4418TIP3    H134669   1.050   5.297  17.514  0.1418  0.0870  0.2930
 4418TIP3    H234670   1.088   5.389  17.400 -1.5993 -0.8503 -1.1008
 4419TIP3   OH234671   4.305   3.902  11.957 -0.4361  0.8435 -0.4018
 4419TIP3    H134672   4.245   3.950  12.013 -2.0774 -1.4071 -0.0592
 4419TIP3    H234673   4.251   3.874  11.883  0.6588  0.2761 -1.0095
 4420TIP3   OH234674   5.883   2.614  17.548 -0.1146  0.6851 -0.0273
 4420TIP3    H134675   5.893   2.706  17.569  1.9368  0.3637  0.6842
 4420TIP3    H234676   5.849   2.613  17.458 -1.5990  2.0828  0.4762
 4421TIP3   OH234677   2.177   3.137   4.008  0.0815  0.1674 -0.1735
 4421TIP3    H134678   2.141   3.194   4.076 -0.5793  0.2575 -0.5846
 4421TIP3    H234679   2.182   3.192   3.930  0.5607 -0.0119 -0.2743
 4422TIP3   OH234680   6.258   1.089   0.266 -1.1727 -0.6335  0.5496
 4422TIP3    H134681   6.205   1.009   0.265  0.1022 -1.5493  1.7626
 4422TIP3    H234682   6.219   1.145   0.199 -2.3546 -2.1088 -0.0468
 4423TIP3   OH234683   1.154   4.967  15.525  0.1215  0.0621 -0.0345
 4423TIP3    H134684   1.181   4.875  15.519 -1.4152 -0.4487  0.4653
 4423TIP3    H234685   1.059   4.963  15.533  0.0536  1.6984  0.1577
 4424TIP3   OH234686   0.363   1.638  12.774  0.8102  0.3595 -0.6677
 4424TIP3    H134687   0.296   1.684  12.723  1.8538 -0.9872 -3.4486
 4424TIP3    H234688   0.323   1.554  12.795  1.6210 -0.5841 -2.6262
 4425TIP3   OH234689   2.949   0.358   0.449  0.2295 -0.0489  0.1217
 4425TIP3    H134690   3.029   0.347   0.500  0.1189 -1.1936  0.0625
 4425TIP3    H234691   2.880   0.321   0.503 -0.3466  1.2817  0.3390
 4426TIP3   OH234692   2.951   4.547   4.380 -0.3897 -0.2260 -0.8543
 4426TIP3    H134693   2.903   4.543   4.297 -0.6178  1.4988 -0.8467
 4426TIP3    H234694   3.020   4.612   4.364 -0.2863 -0.0597  0.2338
 4427TIP3   OH234695   1.694   5.597   3.511  0.4520 -0.4985  0.7249
 4427TIP3    H134696   1.743   5.675   3.540 -0.3209  0.6874 -0.9795
 4427TIP3    H234697   1.620   5.592   3.571  0.6450 -0.0845  1.0067
 4428TIP3   OH234698   6.099   3.594   4.644 -0.5033  0.1142  0.1472
 4428TIP3    H134699   6.154   3.673   4.644 -1.1960  0.6402  1.6064
 4428TIP3    H234700   6.092   3.571   4.736  0.1113 -2.0026 -0.2881
 4429TIP3   OH234701   3.671   1.214   2.666  0.0884 -1.1843 -0.0109
 4429TIP3    H134702   3.723   1.272   2.723  1.6255 -1.9403 -0.5994
 4429TIP3    H234703   3.680   1.127   2.705 -0.6416 -1.3593 -0.2128
 4430TIP3   OH234704   3.300   0.828   0.945 -0.6724 -0.5658  0.7441
 4430TIP3    H134705   3.226   0.888   0.959 -0.3755 -0.0828  0.2519
 4430TIP3    H234706   3.263   0.742   0.962 -1.7196 -0.4609 -0.8229
 4431TIP3   OH234707   2.562   5.833  16.100  0.1578 -0.1517  0.1570
 4431TIP3    H134708   2.599   5.764  16.045 -0.1588 -2.0556  2.2122
 4431TIP3    H234709   2.504   5.788  16.161 -1.3085  2.1348  0.6049
 4432TIP3   OH234710   0.467   3.783   0.245  0.1541 -0.6163 -0.2460
 4432TIP3    H134711   0.489   3.795   0.337 -0.4988 -1.5551  0.0479
 4432TIP3    H234712   0.516   3.705   0.219  2.4644  1.0864 -1.4669
 4433TIP3   OH234713   1.169   1.727  16.610  0.3448 -0.4922 -0.0390
 4433TIP3    H134714   1.147   1.798  16.548 -0.1033 -1.5705 -1.1533
 4433TIP3    H234715   1.085   1.682  16.624  0.8289 -1.4688 -0.2165
 4434TIP3   OH234716   1.861   2.573  10.972 -0.3879 -0.5771 -0.3209
 4434TIP3    H134717   1.915   2.575  11.051  0.4211  0.9155 -0.8683
 4434TIP3    H234718   1.872   2.660  10.934 -2.5143 -0.5338 -0.9279
 4435TIP3   OH234719   0.572   4.622  16.494 -0.2816  0.2880 -0.3209
 4435TIP3    H134720   0.642   4.585  16.548  0.5333  0.6167 -1.1268
 4435TIP3    H234721   0.494   4.572  16.519  0.3145 -0.3515  0.3132
 4436TIP3   OH234722   6.335   6.406   3.127  0.3662 -0.4279 -0.1458
 4436TIP3    H134723   6.361   6.335   3.185  2.2026  1.7382  1.8961
 4436TIP3    H234724   6.302   6.474   3.185  0.7351  1.2308 -1.7747
 4437TIP3   OH234725   5.580   4.782  17.128  0.4972 -0.0607  0.1702
 4437TIP3    H134726   5.592   4.877  17.135 -0.7039  0.3121 -1.9110
 4437TIP3    H234727   5.627   4.758  17.048 -0.8132 -0.8592 -0.4023
 4438TIP3   OH234728   1.254   6.120  14.178 -0.6999  0.3324 -0.3922
 4438TIP3    H134729   1.322   6.175  14.217 -1.2925  0.8645 -0.0779
 4438TIP3    H234730   1.246   6.151  14.088 -0.6120  0.3453 -0.3958
 4439TIP3   OH234731   3.389   0.629  11.807  0.3453  0.4059  0.3217
 4439TIP3    H134732   3.420   0.672  11.727 -1.0199 -1.5125 -1.3144
 4439TIP3    H234733   3.458   0.645  11.871  1.1224  2.6737 -0.9653
 4440TIP3   OH234734   2.270   0.743  15.651  0.0898 -0.1640  0.4626
 4440TIP3    H134735   2.267   0.765  15.744 -0.4662 -0.3990  0.5104
 4440TIP3    H234736   2.361   0.754  15.626 -0.0725  1.7746  0.5793
 4441TIP3   OH234737   5.616   6.645   1.914  0.2772 -0.0584 -0.0444
 4441TIP3    H134738   5.695   6.687   1.949  0.3918 -0.8829  0.7266
 4441TIP3    H234739   5.544   6.692   1.956  0.4066 -0.7429  1.0020
 4442TIP3   OH234740   1.405   6.015  13.716 -0.1573  0.2484  0.1458
 4442TIP3    H134741   1.431   6.097  13.675 -1.0525 -0.4853 -2.0557
 4442TIP3    H234742   1.479   5.990  13.771  0.8631  1.6051 -0.5669
 4443TIP3   OH234743   0.933   1.607  11.793  0.1972  0.1394  0.3093
 4443TIP3    H134744   0.953   1.548  11.720 -1.1467 -0.4548  0.3877
 4443TIP3    H234745   1.018   1.628  11.831  0.8808  0.0065 -1.0772
 4444TIP3   OH234746   2.279   2.273   6.192  0.1194 -0.8273  0.6367
 4444TIP3    H134747   2.267   2.327   6.114 -1.8609  1.8072  2.5943
 4444TIP3    H234748   2.374   2.269   6.203  0.3806  0.5812 -0.7216
 4445TIP3   OH234749   5.341   0.620  17.250 -0.0256  0.0893 -0.9389
 4445TIP3    H134750   5.410   0.605  17.314 -1.0508 -2.3599 -0.2856
 4445TIP3    H234751   5.386   0.628  17.166  1.1645  0.8747 -0.2495
 4446TIP3   OH234752   6.579   0.901  13.480 -0.2225 -0.2891 -0.6689
 4446TIP3    H134753   6.519   0.968  13.446 -0.9643  0.2470  1.5100
 4446TIP3    H234754   6.524   0.848  13.538  1.0382 -0.8938 -0.0083
 4447TIP3   OH234755   4.855   3.446  12.953 -0.1070 -0.6492  0.2486
 4447TIP3    H134756   4.884   3.474  13.040 -0.5211 -2.0568  0.8568
 4447TIP3    H234757   4.845   3.351  12.960 -0.1287 -0.7905 -1.3481
 4448TIP3   OH234758   2.546   2.319   1.732 -0.0695  0.1162 -0.3582
 4448TIP3    H134759   2.483   2.352   1.797 -0.5736 -2.4837  0.5961
 4448TIP3    H234760   2.621   2.293   1.784  0.7433  0.6970 -1.2101
 4449TIP3   OH234761   0.381   4.043  12.819 -0.3120 -0.1873  0.3870
 4449TIP3    H134762   0.377   4.126  12.772 -0.3057 -0.4394 -0.0737
 4449TIP3    H234763   0.412   4.065  12.907  2.3182 -0.0129 -0.4986
 4450TIP3   OH234764   2.887   0.472   4.162  0.4492 -0.2132  0.1773
 4450TIP3    H134765   2.797   0.501   4.175 -0.2505 -1.8208 -0.6994
 4450TIP3    H234766   2.885   0.378   4.183  2.2758  0.0099  1.6131
 4451TIP3   OH234767   2.888   6.155  15.528  0.1670  0.0082 -0.1842
 4451TIP3    H134768   2.966   6.099  15.531  0.6067  0.5244 -1.4665
 4451TIP3    H234769   2.920   6.237  15.490 -0.2902  1.4335  2.2967
 4452TIP3   OH234770   0.341   1.782  14.915  0.0566 -0.3457 -0.1024
 4452TIP3    H134771   0.290   1.771  14.995 -1.2300 -1.3965 -1.0208
 4452TIP3    H234772   0.427   1.812  14.944 -0.5840 -0.1029  1.6099
 4453TIP3   OH234773   1.375   3.223   2.519 -0.3585 -0.1010  0.2872
 4453TIP3    H134774   1.313   3.182   2.458 -1.5594  0.4415  1.1073
 4453TIP3    H234775   1.410   3.298   2.471 -0.7164 -0.1265 -0.0220
 4454TIP3   OH234776   0.557   2.849   5.865 -0.3814  0.7132 -0.5793
 4454TIP3    H134777   0.598   2.930   5.895  0.8105 -0.2372  0.5230
 4454TIP3    H234778   0.555   2.793   5.943  2.0822 -1.5827 -1.9749
 4455TIP3   OH234779   6.680   6.040  14.005  0.1888  0.0364 -0.2095
 4455TIP3    H134780   6.738   6.042  13.929  0.1072  0.6149 -0.2673
 4455TIP3    H234781   6.649   5.950  14.010  0.4589 -0.0830 -0.6637
 4456TIP3   OH234782   3.282   0.389   5.448  0.0022 -0.3622  0.1651
 4456TIP3    H134783   3.284   0.457   5.380  1.0741  0.0592  0.6036
 4456TIP3    H234784   3.272   0.437   5.530  1.3162 -0.6731  0.5314
 4457TIP3   OH234785   3.154   6.137  13.538 -0.0861  0.0311 -0.0654
 4457TIP3    H134786   3.196   6.092  13.612  0.3898 -1.2731 -1.1003
 4457TIP3    H234787   3.061   6.136  13.559  0.1343  0.6712  1.0341
 4458TIP3   OH234788   6.150   0.608  11.957  0.0085  0.1993 -0.4583
 4458TIP3    H134789   6.177   0.586  11.867 -1.8028  0.8196 -1.1971
 4458TIP3    H234790   6.226   0.652  11.994  0.9681 -0.4852 -1.5110
 4459TIP3   OH234791   3.689   4.656  17.174  0.3407  0.2759  0.1171
 4459TIP3    H134792   3.711   4.584  17.233 -1.0923  0.8584  1.4214
 4459TIP3    H234793   3.642   4.719  17.228 -0.4918  1.1312 -1.5056
 4460TIP3   OH234794   5.321   0.987   0.008  0.8877 -0.2146  0.5256
 4460TIP3    H134795   5.371   0.907  -0.002  0.3990 -0.7931  2.2846
 4460TIP3    H234796   5.343   1.019   0.096 -0.7597  0.2363  0.8203
 4461TIP3   OH234797   2.958   3.572   2.702 -0.8615 -0.2323  0.6702
 4461TIP3    H134798   3.014   3.494   2.693  0.8283  1.0419 -0.3786
 4461TIP3    H234799   3.011   3.633   2.753 -1.7841  0.6029  0.6522
 4462TIP3   OH234800   1.661   5.772  11.525  0.0732 -0.3366  0.5921
 4462TIP3    H134801   1.635   5.824  11.602 -1.3037  2.3883 -1.5564
 4462TIP3    H234802   1.756   5.783  11.521 -0.0399  0.9802  0.9505
 4463TIP3   OH234803   0.674   5.606  16.472  0.3867  0.2325  0.2167
 4463TIP3    H134804   0.708   5.694  16.490  0.9628 -0.3476  2.3044
 4463TIP3    H234805   0.746   5.561  16.428  1.0195  0.1177  1.3207
 4464TIP3   OH234806   0.429   2.428   0.041  0.3300  0.0366  0.9674
 4464TIP3    H134807   0.426   2.466   0.129 -1.3055 -1.5817  1.6645
 4464TIP3    H234808   0.356   2.467  -0.005  0.1466 -0.3879  0.8896
 4465TIP3   OH234809   2.695   3.417   1.354 -0.3768 -0.5824 -0.3732
 4465TIP3    H134810   2.614   3.379   1.388 -0.5632  0.1640  0.0437
 4465TIP3    H234811   2.696   3.507   1.389 -0.3417  0.0641 -1.9510
 4466TIP3   OH234812   6.648   3.343  17.098 -0.1133  0.2955  0.0806
 4466TIP3    H134813   6.605   3.257  17.095 -2.2028  1.2470  1.0725
 4466TIP3    H234814   6.695   3.344  17.181  1.2969 -0.4546 -0.6628
 4467TIP3   OH234815   6.197   2.380  16.883 -0.4008 -0.4360  0.0349
 4467TIP3    H134816   6.107   2.409  16.863 -0.1586  0.3623  0.0695
 4467TIP3    H234817   6.231   2.447  16.942 -0.7323 -2.1782  2.3282
 4468TIP3   OH234818   6.114   0.311  11.826 -0.3069  0.7722 -0.0340
 4468TIP3    H134819   6.040   0.263  11.789 -0.5473  2.3958 -1.7888
 4468TIP3    H234820   6.081   0.344  11.911 -1.1280  0.3374 -0.1732
 4469TIP3   OH234821   5.763   0.886  16.891  0.2876 -0.1339 -0.4757
 4469TIP3    H134822   5.772   0.928  16.805 -0.5780 -0.4359 -0.7204
 4469TIP3    H234823   5.747   0.958  16.952  0.0346  0.0021 -0.7021
 4470TIP3   OH234824   3.786   6.095  13.188  0.5015 -0.4809  0.1306
 4470TIP3    H134825   3.783   6.048  13.105  3.6582  0.2284 -0.5218
 4470TIP3    H234826   3.779   6.187  13.164  2.2210 -0.2145  0.4567
 4471TIP3   OH234827   5.137   1.665  11.415  0.2621 -0.1263 -0.3844
 4471TIP3    H134828   5.183   1.606  11.355  0.9305 -0.1483  0.1457
 4471TIP3    H234829   5.118   1.610  11.492 -0.4761 -0.0643 -0.5132
 4472TIP3   OH234830   4.378   6.144  14.376  0.1257 -0.0544  0.0290
 4472TIP3    H134831   4.299   6.182  14.414  0.9585  1.0695  0.6996
 4472TIP3    H234832   4.394   6.196  14.297  1.2232  1.0183  0.9069
 4473TIP3   OH234833   6.561   3.056   3.656  0.2300 -0.1075 -0.1020
 4473TIP3    H134834   6.479   3.036   3.700  0.5854 -0.3591  0.4578
 4473TIP3    H234835   6.588   2.972   3.617 -0.3622  0.2293 -1.3013
 4474TIP3   OH234836   0.283   1.444   1.142  0.3008  0.0168 -0.2242
 4474TIP3    H134837   0.232   1.432   1.063  0.2606  0.5281 -0.2755
 4474TIP3    H234838   0.227   1.495   1.200  0.4641 -0.0590  0.0029
 4475TIP3   OH234839   1.961   0.955   2.188 -0.0088 -0.4162  0.8671
 4475TIP3    H134840   1.954   1.008   2.267  2.5878  1.6929 -0.1484
 4475TIP3    H234841   1.891   0.988   2.131  1.4053  1.9452  0.3507
 4476TIP3   OH234842   3.033   2.805   3.489 -0.3442  0.6278 -0.5030
 4476TIP3    H134843   2.992   2.794   3.575  0.5901  2.4971  0.2268
 4476TIP3    H234844   3.023   2.719   3.447  1.2769 -1.1509  2.3720
 4477TIP3   OH234845   6.114   0.214  13.965 -0.5193  0.8851 -0.4759
 4477TIP3    H134846   6.195   0.249  13.928 -0.6493  1.6405 -0.0740
 4477TIP3    H234847   6.141   0.133  14.008 -0.0865  0.8211 -0.8604
 4478TIP3   OH234848   0.434   2.151   6.726  0.2544 -0.0681  0.1093
 4478TIP3    H134849   0.472   2.090   6.663 -0.6132 -1.6803  1.0827
 4478TIP3    H234850   0.506   2.211   6.747  1.2467 -0.9539 -0.6268
 4479TIP3   OH234851   6.349   4.147  11.299  0.7566  0.2076 -0.3187
 4479TIP3    H134852   6.264   4.170  11.261  0.4097  2.2753  1.5279
 4479TIP3    H234853   6.343   4.052  11.313 -1.3961  0.3290  0.0210
 4480TIP3   OH234854   2.173   0.241   2.248  0.3609 -0.2969  0.6142
 4480TIP3    H134855   2.114   0.186   2.299 -0.0425 -0.9716 -0.5361
 4480TIP3    H234856   2.121   0.270   2.174  1.0783  0.2433  0.3100
 4481TIP3   OH234857   2.562   3.954  12.728  0.0184  0.4594 -0.0813
 4481TIP3    H134858   2.538   3.872  12.684  0.6029  0.5136 -0.5092
 4481TIP3    H234859   2.582   4.015  12.657  2.4780  0.1043  0.2077
 4482TIP3   OH234860   6.185   1.223  10.817  0.2621  0.2547  0.3321
 4482TIP3    H134861   6.250   1.238  10.748  1.1370  0.5433  1.2117
 4482TIP3    H234862   6.208   1.284  10.886 -0.4780 -0.1889  0.9906
 4483TIP3   OH234863   2.423   5.568   4.529  0.0002 -0.3886 -0.0474
 4483TIP3    H134864   2.509   5.548   4.490 -0.9717 -0.6016 -2.2044
 4483TIP3    H234865   2.418   5.510   4.605  1.1084 -1.5709 -0.8239
 4484TIP3   OH234866   5.404   4.740  15.696 -0.3589  0.3197  0.0930
 4484TIP3    H134867   5.327   4.784  15.731 -1.2484 -0.1635 -1.1693
 4484TIP3    H234868   5.411   4.772  15.606  0.8930  0.3128  0.1633
 4485TIP3   OH234869   0.681   6.465  11.960 -0.3168  0.0298  0.0982
 4485TIP3    H134870   0.686   6.398  12.028 -0.3757  0.6478  0.7263
 4485TIP3    H234871   0.724   6.542  11.999 -0.7638  0.5349 -0.3875
 4486TIP3   OH234872   5.698   1.892  14.115  0.5303  0.5937  0.5325
 4486TIP3    H134873   5.777   1.846  14.086 -1.1909 -1.0320 -1.9427
 4486TIP3    H234874   5.674   1.850  14.197  1.2555 -0.1244  0.3860
 4487TIP3   OH234875   6.245   6.617   3.292  0.0730 -0.5718  0.2294
 4487TIP3    H134876   6.273   6.687   3.352 -1.8496  1.6888 -1.3094
 4487TIP3    H234877   6.173   6.574   3.338  1.1134 -1.4623  1.0878
 4488TIP3   OH234878   2.279   1.399  12.900 -0.1103  0.2165  0.3544
 4488TIP3    H134879   2.251   1.485  12.931 -1.3344 -0.8748  2.5071
 4488TIP3    H234880   2.358   1.379  12.950  1.2856  0.8221 -1.5058
 4489TIP3   OH234881   0.825   2.794   1.378 -0.4837  0.2023 -0.3470
 4489TIP3    H134882   0.754   2.736   1.348 -0.7257  0.3516 -0.0711
 4489TIP3    H234883   0.780   2.862   1.428 -0.0495 -0.3479  0.8276
 4490TIP3   OH234884   4.181   0.868  13.251  0.4346  0.3045 -0.0898
 4490TIP3    H134885   4.273   0.895  13.259 -0.0837  2.0334  0.4731
 4490TIP3    H234886   4.183   0.798  13.186  2.1900  0.0876  0.1354
 4491TIP3   OH234887   2.086   4.787   4.770 -0.1950  0.1881 -0.2929
 4491TIP3    H134888   2.091   4.840   4.690 -0.9056 -0.6469 -0.9047
 4491TIP3    H234889   2.036   4.842   4.831 -1.2366  0.1020 -1.0398
 4492TIP3   OH234890   5.960   2.905  11.703 -0.1274 -0.0042 -0.2411
 4492TIP3    H134891   5.958   2.971  11.773 -0.5818  0.6063 -0.8099
 4492TIP3    H234892   5.894   2.935  11.640  0.5331 -0.3329 -1.1162
 4493TIP3   OH234893   5.407   1.908  13.459  0.1019 -0.1373  0.1028
 4493TIP3    H134894   5.478   1.967  13.433 -0.6004  0.8753  0.4267
 4493TIP3    H234895   5.337   1.926  13.397  0.1449 -1.2090 -0.2803
 4494TIP3   OH234896   5.984   0.073  14.305 -0.0193 -0.1322 -0.2373
 4494TIP3    H134897   6.075   0.077  14.332  0.0775 -0.6831 -0.4470
 4494TIP3    H234898   5.988   0.046  14.213 -0.3298  1.9073 -0.8956
 4495TIP3   OH234899   3.591   4.785  14.272  0.2825  0.5212  0.2302
 4495TIP3    H134900   3.558   4.854  14.329  2.3254 -0.3590  2.6862
 4495TIP3    H234901   3.613   4.713  14.331  0.5957 -1.2935 -1.9373
 4496TIP3   OH234902   6.504   3.498  16.866  0.0464  0.4020 -0.8000
 4496TIP3    H134903   6.567   3.471  16.932 -1.0737  0.9375  0.5321
 4496TIP3    H234904   6.503   3.426  16.803  1.3595  0.0244 -0.4175
 4497TIP3   OH234905   3.307   5.494  12.895  0.7268  0.1610 -0.2042
 4497TIP3    H134906   3.354   5.529  12.972  0.7440 -0.8302  0.2507
 4497TIP3    H234907   3.215   5.510  12.914  0.5028 -2.2528  1.2280
 4498TIP3   OH234908   0.857   4.159   0.093  0.5709  0.4588 -0.0043
 4498TIP3    H134909   0.771   4.144   0.132  0.5206  1.2805  0.2350
 4498TIP3    H234910   0.846   4.137   0.001  0.2988 -0.1282  0.1674
 4499TIP3   OH234911   1.234   3.517   2.228  0.2211 -0.1910 -0.1603
 4499TIP3    H134912   1.148   3.475   2.230  1.4147 -2.7887 -0.0346
 4499TIP3    H234913   1.254   3.527   2.135  0.1614 -0.4064 -0.1965
 4500TIP3   OH234914   6.348   0.444  15.520  0.3701  0.3079 -0.4690
 4500TIP3    H134915   6.266   0.494  15.527  0.1547 -0.2137  1.5070
 4500TIP3    H234916   6.321   0.355  15.498  0.0508 -0.5279  2.7813
 4501TIP3   OH234917   4.769   1.739  13.313  0.2679  0.6178 -0.4840
 4501TIP3    H134918   4.816   1.763  13.233  3.1084  0.1019  0.9070
 4501TIP3    H234919   4.793   1.648  13.329 -2.0445  0.0039 -0.1636
 4502TIP3   OH234920   1.689   0.034   4.716  0.1631  0.4122 -0.3104
 4502TIP3    H134921   1.690   0.049   4.810 -0.6373 -2.3366  0.2336
 4502TIP3    H234922   1.758  -0.030   4.701  0.9461  1.5510 -1.7899
 4503TIP3   OH234923   0.046   2.189   1.674 -0.1309 -0.3944 -0.4351
 4503TIP3    H134924  -0.003   2.265   1.706  0.7103 -0.3896  0.9431
 4503TIP3    H234925   0.010   2.171   1.587  0.8720  2.7556 -1.6468
 4504TIP3   OH234926   0.577   5.373   5.817 -0.1413 -0.2792  0.2437
 4504TIP3    H134927   0.662   5.390   5.856  0.2827  1.9439 -1.4577
 4504TIP3    H234928   0.588   5.291   5.769  2.1128  1.4049 -2.4634
 4505TIP3   OH234929   4.755   3.919  16.380 -0.2211 -0.0376 -0.6399
 4505TIP3    H134930   4.736   4.013  16.372  1.0031  0.3618  0.7239
 4505TIP3    H234931   4.671   3.877  16.366 -0.5232  1.1380 -2.8893
 4506TIP3   OH234932   3.108   4.589   6.197  0.2974  0.0354  0.0578
 4506TIP3    H134933   3.147   4.519   6.249  0.9571 -2.0795 -2.9897
 4506TIP3    H234934   3.015   4.568   6.195 -0.0025  1.0593  1.5960
 4507TIP3   OH234935   3.733   4.459  14.867  0.3594  0.6467 -0.2312
 4507TIP3    H134936   3.823   4.469  14.835  0.4093  1.1089  0.0557
 4507TIP3    H234937   3.725   4.522  14.938 -0.6143  1.6072 -1.1422
 4508TIP3   OH234938   0.052   1.234   1.095  0.4915 -0.0634 -0.0713
 4508TIP3    H134939  -0.018   1.198   1.150  0.2080 -0.0891 -0.4454
 4508TIP3    H234940   0.032   1.204   1.007  2.4630 -2.3644  0.1614
 4509TIP3   OH234941   0.856   5.042  15.023  0.3193 -0.1155 -0.1507
 4509TIP3    H134942   0.893   5.125  14.995  0.2024 -0.2822 -0.8128
 4509TIP3    H234943   0.790   5.021  14.957 -0.4930 -0.1556  0.6456
 4510TIP3   OH234944   6.553   6.208   3.821 -0.1599 -0.0700  0.6628
 4510TIP3    H134945   6.481   6.266   3.797  0.0327 -0.2322 -0.3705
 4510TIP3    H234946   6.584   6.172   3.738  0.0103 -1.3245  1.2350
 4511TIP3   OH234947   2.797   4.641   0.696 -0.4273  0.1344 -0.4636
 4511TIP3    H134948   2.846   4.682   0.624 -1.3995  2.2185 -0.0389
 4511TIP3    H234949   2.713   4.617   0.657  0.7036 -3.1248 -1.1119
 4512TIP3   OH234950   4.863   1.925   1.315 -0.3751  0.0600  0.4761
 4512TIP3    H134951   4.826   1.896   1.398  2.4531 -0.4923  1.6533
 4512TIP3    H234952   4.957   1.915   1.325  0.1378  0.5422 -2.6169
 4513TIP3   OH234953   5.546   6.263   6.534 -0.6605 -0.2029  0.4679
 4513TIP3    H134954   5.500   6.332   6.581  0.6174  1.0456 -0.0593
 4513TIP3    H234955   5.611   6.230   6.596 -0.0818  0.2983  0.1298
 4514TIP3   OH234956   2.481   1.399   3.037 -0.3959 -0.5421  0.4359
 4514TIP3    H134957   2.501   1.423   2.947 -1.5784 -2.6569 -0.4704
 4514TIP3    H234958   2.510   1.308   3.046  0.6568 -0.0747  2.5532
 4515TIP3   OH234959   2.282   1.017   5.943 -0.1205  0.0777 -0.2066
 4515TIP3    H134960   2.263   1.026   5.849 -0.0028 -0.6751 -0.3124
 4515TIP3    H234961   2.225   0.945   5.972 -1.1551  1.1847  0.6112
 4516TIP3   OH234962   5.336   5.517   5.143 -0.2053 -0.0065  0.1594
 4516TIP3    H134963   5.344   5.592   5.083  0.6448  1.1559  1.6752
 4516TIP3    H234964   5.309   5.555   5.226  1.9065 -1.1324  1.4498
 4517TIP3   OH234965   1.396   2.966  10.524  0.8504 -0.1723  0.3849
 4517TIP3    H134966   1.470   2.920  10.483  1.8128  0.8220  0.9361
 4517TIP3    H234967   1.322   2.906  10.515  1.3775 -0.6116 -1.4477
 4518TIP3   OH234968   6.051   0.671  17.553  0.5248 -0.3611  0.1204
 4518TIP3    H134969   6.033   0.706  17.640 -1.5095 -1.3182  0.1391
 4518TIP3    H234970   6.081   0.746  17.502 -0.5541  0.7088  1.0096
 4519TIP3   OH234971   4.942   3.352  12.315  0.0205 -0.3723  0.3038
 4519TIP3    H134972   4.856   3.384  12.341  0.5896  0.1255  1.6515
 4519TIP3    H234973   4.939   3.348  12.220 -1.0421  0.9037  0.2691
 4520TIP3   OH234974   3.907   6.478   2.908  0.0526  0.0165  0.6008
 4520TIP3    H134975   3.996   6.459   2.938  0.8796  2.0910 -0.3298
 4520TIP3    H234976   3.913   6.564   2.867 -1.6262 -1.2160 -2.6772
 4521TIP3   OH234977   5.104   0.447   2.268  0.1785 -0.3993 -0.3150
 4521TIP3    H134978   5.014   0.414   2.273 -0.2922  0.7038 -1.0460
 4521TIP3    H234979   5.105   0.524   2.325  0.8596 -0.8186  0.2467
 4522TIP3   OH234980   6.017   3.793   3.990 -0.0418  0.5086  0.2881
 4522TIP3    H134981   6.063   3.796   3.905 -0.6768 -1.8768 -0.2140
 4522TIP3    H234982   6.088   3.787   4.054  0.4702  2.9622  0.0344
 4523TIP3   OH234983   1.813   6.359  14.156 -0.2204  0.0512  0.7718
 4523TIP3    H134984   1.815   6.422  14.228 -1.4654 -0.7735  1.5583
 4523TIP3    H234985   1.760   6.401  14.089  0.1601  0.4388  0.7131
 4524TIP3   OH234986   4.775   1.260   0.288 -0.3583 -0.4364 -0.0190
 4524TIP3    H134987   4.752   1.257   0.195 -0.3359 -0.7282 -0.0165
 4524TIP3    H234988   4.864   1.293   0.290 -0.2997 -0.5863 -0.1137
 4525TIP3   OH234989   0.747   3.526   5.118  0.2001  0.1834 -0.5930
 4525TIP3    H134990   0.671   3.469   5.107  0.7895 -0.2964 -2.6708
 4525TIP3    H234991   0.790   3.494   5.198 -1.4613  0.1259  0.3169
 4526TIP3   OH234992   4.077   6.533  14.334 -0.2626 -0.8460  0.2737
 4526TIP3    H134993   4.050   6.621  14.308  2.1721 -0.2952 -0.7545
 4526TIP3    H234994   4.055   6.527  14.427 -2.0820  0.1485 -0.0439
 4527TIP3   OH234995   0.440   4.956  14.688 -0.1307  0.5611 -0.0232
 4527TIP3    H134996   0.387   4.885  14.652 -0.7511  0.6458  0.6833
 4527TIP3    H234997   0.506   4.973  14.622  0.1053 -0.7606 -0.1511
 4528TIP3   OH234998   1.904   3.900  17.066 -0.3708 -0.7073  0.2968
 4528TIP3    H134999   1.842   3.852  17.120  1.5104 -2.8937  0.6714
 4528TIP3    H235000   1.976   3.923  17.125 -0.0746  0.4145 -0.4542
 4529TIP3   OH235001   5.789   5.564  15.952  0.1941  0.5134 -0.9534
 4529TIP3    H135002   5.836   5.481  15.938 -0.6098 -0.0378 -0.4724
 4529TIP3    H235003   5.823   5.597  16.035 -0.9432 -0.3897 -0.0929
 4530TIP3   OH235004   5.167   1.325   5.054  0.3553  0.0457  0.0706
 4530TIP3    H135005   5.147   1.242   5.011 -1.1252 -0.9980  2.6296
 4530TIP3    H235006   5.262   1.332   5.047  0.2938 -0.3690 -2.6666
 4531TIP3   OH235007   3.645   0.478   3.927  0.0745  0.1596 -0.2764
 4531TIP3    H135008   3.557   0.460   3.960 -0.0780 -0.7194 -1.0913
 4531TIP3    H235009   3.701   0.417   3.973  0.3112  0.9102  0.4457
 4532TIP3   OH235010   2.849   2.338  15.976 -0.8274  0.1328 -0.4627
 4532TIP3    H135011   2.771   2.319  15.924 -1.4803  1.3735  0.0111
 4532TIP3    H235012   2.864   2.432  15.964  2.0233 -0.4291 -2.4446
 4533TIP3   OH235013   2.464   3.558   3.133  0.4398  0.1847 -0.2065
 4533TIP3    H135014   2.370   3.569   3.114  0.2025 -0.9391  0.2075
 4533TIP3    H235015   2.487   3.633   3.188 -0.6113 -0.3288  0.9894
 4534TIP3   OH235016   0.258   0.975   0.496 -0.2777 -0.0753  0.4649
 4534TIP3    H135017   0.206   1.042   0.452  0.1720  0.0955  0.1819
 4534TIP3    H235018   0.335   1.023   0.528  1.1549 -0.8311 -1.6675
 4535TIP3   OH235019   4.710   5.488   4.414  0.2655  0.1487  0.1625
 4535TIP3    H135020   4.730   5.419   4.351  1.2941  0.6309 -0.0646
 4535TIP3    H235021   4.733   5.450   4.499  0.7754  0.1769  0.0435
 4536TIP3   OH235022   2.028   4.513   3.206  0.2772  0.0425  1.1001
 4536TIP3    H135023   1.951   4.456   3.200  0.8075 -0.5464 -0.5779
 4536TIP3    H235024   2.097   4.457   3.241  0.6805 -0.2595 -0.1276
 4537TIP3   OH235025   1.068   1.765   3.908 -0.3076  0.0711  0.1718
 4537TIP3    H135026   1.097   1.683   3.946  1.3418  0.2097 -0.7164
 4537TIP3    H235027   1.007   1.739   3.839 -0.0430 -0.3845  0.1077
 4538TIP3   OH235028   1.830   2.335   3.318 -0.2984  0.0347 -0.1819
 4538TIP3    H135029   1.737   2.340   3.294 -0.3826  1.1751  0.3098
 4538TIP3    H235030   1.867   2.417   3.286  0.3253  0.0382  0.5304
 4539TIP3   OH235031   0.301   0.831  12.405 -0.0321  0.2725 -0.3057
 4539TIP3    H135032   0.353   0.856  12.481 -0.0419  0.4931 -0.3712
 4539TIP3    H235033   0.236   0.901  12.396 -1.2914 -0.7252  0.6681
 4540TIP3   OH235034   2.846   3.400   3.334  0.1304  0.1730  0.0585
 4540TIP3    H135035   2.890   3.439   3.258 -2.7213  1.9051 -0.8616
 4540TIP3    H235036   2.842   3.470   3.399 -0.0165 -0.3818  0.6646
 4541TIP3   OH235037   0.465   2.619   4.729  0.3090 -0.0195  0.5810
 4541TIP3    H135038   0.519   2.698   4.734  1.5438 -0.8822  1.4241
 4541TIP3    H235039   0.491   2.577   4.647  1.4200 -0.7540  1.2848
 4542TIP3   OH235040   5.224   1.960   0.594  0.4000 -0.0798 -0.1145
 4542TIP3    H135041   5.289   2.008   0.645  1.3789 -1.3628 -0.0987
 4542TIP3    H235042   5.206   1.882   0.646 -0.2160 -0.3506 -0.7205
 4543TIP3   OH235043   4.738   2.396  17.344  0.0109  0.2615  0.1890
 4543TIP3    H135044   4.669   2.333  17.326  0.6506  0.2849 -2.7712
 4543TIP3    H235045   4.816   2.343  17.359  0.2338  0.2776 -0.8318
 4544TIP3   OH235046   0.827   1.263  15.641  0.2092  0.1769  0.0845
 4544TIP3    H135047   0.833   1.304  15.728  1.5938 -0.8047  0.4906
 4544TIP3    H235048   0.800   1.173  15.659 -2.1396  0.6366 -0.7526
 4545TIP3   OH235049   5.183   6.204  15.203 -0.0861 -0.3366 -0.5538
 4545TIP3    H135050   5.258   6.185  15.147  0.7748 -0.0155  0.4523
 4545TIP3    H235051   5.160   6.295  15.183 -0.3107 -0.4817 -0.9689
 4546TIP3   OH235052   0.416   3.538  12.861  0.1779  0.2573  0.1340
 4546TIP3    H135053   0.439   3.613  12.806  0.2913  0.2463  0.1646
 4546TIP3    H235054   0.405   3.466  12.799  0.3445  0.2358  0.1287
 4547TIP3   OH235055   1.964   0.110   4.877  0.3985  0.1997  0.2050
 4547TIP3    H135056   2.029   0.161   4.925  1.6217  2.7198 -3.6875
 4547TIP3    H235057   1.897   0.173   4.851  1.2709 -0.1761 -3.6506
 4548TIP3   OH235058   5.419   1.612  15.629 -0.5454 -0.2939  0.8815
 4548TIP3    H135059   5.476   1.613  15.706  1.7383  0.0087 -0.6772
 4548TIP3    H235060   5.361   1.687  15.641  0.2838  0.2060  1.9497
 4549TIP3   OH235061   5.835   3.731  12.830  0.2628  0.3380 -0.2565
 4549TIP3    H135062   5.778   3.805  12.853 -2.5550 -1.3964 -1.0447
 4549TIP3    H235063   5.781   3.654  12.846  3.2636 -1.6562  1.0895
 4550TIP3   OH235064   2.905   6.319   5.174  0.0492  0.8792 -0.4927
 4550TIP3    H135065   2.824   6.352   5.135 -0.1604  1.2425  0.2377
 4550TIP3    H235066   2.909   6.361   5.260 -0.1682 -0.8807  0.4351
 4551TIP3   OH235067   2.102   2.903   0.077 -0.1768  0.1438  0.1646
 4551TIP3    H135068   2.173   2.891   0.013  0.3110  1.2135  0.4726
 4551TIP3    H235069   2.144   2.949   0.150 -0.8803 -0.4631  0.9739
 4552TIP3   OH235070   0.577   1.192   1.932  0.1233 -0.0538  0.2327
 4552TIP3    H135071   0.527   1.227   2.006 -1.6801 -0.4393 -0.7399
 4552TIP3    H235072   0.510   1.157   1.873  1.6787 -3.2262  0.1504
 4553TIP3   OH235073   4.270   0.581  14.459 -0.1417  0.1379 -0.4314
 4553TIP3    H135074   4.324   0.527  14.517 -0.5237  0.6931  0.4571
 4553TIP3    H235075   4.253   0.661  14.509 -1.8999 -0.0818 -0.6161
 4554TIP3   OH235076   6.686   1.241  17.504 -0.6503 -0.1986  0.4732
 4554TIP3    H135077   6.773   1.277  17.523 -0.7154  0.6143 -0.7059
 4554TIP3    H235078   6.628   1.285  17.567 -0.2427 -0.6176  1.1493
 4555TIP3   OH235079   4.029   4.850   5.818 -0.0193  0.1710  0.2288
 4555TIP3    H135080   3.963   4.809   5.875  0.6967 -1.2901  0.0628
 4555TIP3    H235081   4.079   4.776   5.784  1.8392  1.2465  0.5093
 4556TIP3   OH235082   6.103   4.304   2.848 -0.4189 -0.3774  0.6733
 4556TIP3    H135083   6.140   4.259   2.772  0.0484  0.8956  0.1080
 4556TIP3    H235084   6.013   4.271   2.854 -0.1572 -1.2185  0.1644
 4557TIP3   OH235085   6.521   4.323   0.956  0.0205  0.4102 -0.1886
 4557TIP3    H135086   6.439   4.373   0.957 -0.6139 -0.4597  2.6942
 4557TIP3    H235087   6.584   4.378   1.002  0.7543  0.5873 -1.3719
 4558TIP3   OH235088   4.425   2.250   4.656  0.1152 -0.0166  0.1363
 4558TIP3    H135089   4.424   2.209   4.570  0.0743  0.2083  0.0285
 4558TIP3    H235090   4.353   2.208   4.703 -0.6719  0.7417 -0.3575
 4559TIP3   OH235091   5.132   1.784  15.149 -0.3029  0.0318 -0.1957
 4559TIP3    H135092   5.159   1.709  15.097  1.0720  1.1716 -1.1964
 4559TIP3    H235093   5.045   1.807  15.115  0.3797  0.4780 -1.7357
 4560TIP3   OH235094   6.272   1.406   0.660 -0.2948  0.1857  0.0630
 4560TIP3    H135095   6.190   1.361   0.639 -1.7832  2.5388  0.4859
 4560TIP3    H235096   6.249   1.499   0.659  2.3268  0.9097  0.4848
 4561TIP3   OH235097   4.046   5.962   1.766  1.3464 -0.1965  0.3046
 4561TIP3    H135098   4.045   5.955   1.862  1.5080  0.3067  0.3485
 4561TIP3    H235099   4.051   5.872   1.735  1.1455 -0.3724  0.7677
 4562TIP3   OH235100   1.404   5.009  13.139 -0.1553 -0.2856 -0.1121
 4562TIP3    H135101   1.467   4.957  13.089  0.3950  0.9554 -0.7635
 4562TIP3    H235102   1.321   4.997  13.094  0.0810 -0.1771 -0.5859
 4563TIP3   OH235103   5.806   1.213  12.692 -0.4646  0.3086 -0.2688
 4563TIP3    H135104   5.853   1.261  12.761 -0.1061 -0.4530  0.0375
 4563TIP3    H235105   5.833   1.255  12.611 -0.5928  0.9771  0.0298
 4564TIP3   OH235106   6.377   6.247   4.126  0.1640 -0.3879 -0.1261
 4564TIP3    H135107   6.286   6.273   4.140 -0.4213 -2.6871  0.8080
 4564TIP3    H235108   6.379   6.216   4.035 -0.3184 -1.4754  0.2198
 4565TIP3   OH235109   0.133   4.022  16.822  0.3239  0.3176 -0.7070
 4565TIP3    H135110   0.178   4.106  16.837  1.1540  0.3601 -2.9873
 4565TIP3    H235111   0.059   4.044  16.766  0.2798 -0.4131 -0.9465
 4566TIP3   OH235112   4.025   0.666  13.801  0.3834 -0.0536  0.3718
 4566TIP3    H135113   4.027   0.582  13.755  0.4948 -0.3102  0.8385
 4566TIP3    H235114   4.041   0.643  13.893  1.3486  0.5729  0.3646
 4567TIP3   OH235115   3.594   1.804   0.382 -0.1245  0.4158 -0.0672
 4567TIP3    H135116   3.576   1.760   0.299 -0.6649  2.0114 -0.8344
 4567TIP3    H235117   3.579   1.737   0.449  0.4940 -0.9470 -1.2558
 4568TIP3   OH235118   1.963   2.769   0.707  0.6077 -0.0183 -0.5252
 4568TIP3    H135119   1.984   2.717   0.785 -0.6522  0.8650  0.4458
 4568TIP3    H235120   1.915   2.709   0.650  1.0626 -0.5141 -0.3992
 4569TIP3   OH235121   2.478   1.153   2.291  0.5217 -0.1775 -0.0031
 4569TIP3    H135122   2.417   1.161   2.218 -0.9952  0.4092  1.2771
 4569TIP3    H235123   2.564   1.161   2.251 -0.2713  0.3321 -1.7008
 4570TIP3   OH235124   0.341   3.959   2.404 -0.1649 -0.0957  0.3809
 4570TIP3    H135125   0.404   3.926   2.468  1.3719  1.6364 -0.1502
 4570TIP3    H235126   0.394   3.976   2.325 -1.4669  0.5729 -0.3783
 4571TIP3   OH235127   5.795   1.480   5.173  0.0163 -0.0982  0.1271
 4571TIP3    H135128   5.716   1.534   5.174  0.5298  0.6855 -0.6240
 4571TIP3    H235129   5.784   1.420   5.246 -0.4677  1.1668  1.1195
 4572TIP3   OH235130   4.850   4.894  16.735 -0.1287  0.1019 -0.2450
 4572TIP3    H135131   4.765   4.875  16.775 -1.6537  1.8726 -2.4006
 4572TIP3    H235132   4.883   4.969  16.784 -1.4759  1.5708 -1.4725
 4573TIP3   OH235133   4.545   1.667  11.318  0.3547 -0.3865 -0.3941
 4573TIP3    H135134   4.515   1.589  11.271  2.6335 -2.4231  1.2779
 4573TIP3    H235135   4.621   1.698  11.268  0.6755 -0.4689  0.0349
 4574TIP3   OH235136   6.395   4.727   5.052 -0.1683  0.5701 -0.3850
 4574TIP3    H135137   6.472   4.784   5.063 -0.2750  1.3479 -2.9336
 4574TIP3    H235138   6.320   4.785   5.068 -0.2387  0.6586 -0.9879
 4575TIP3   OH235139   5.113   3.963  15.049 -0.7910  0.0230 -0.4680
 4575TIP3    H135140   5.078   3.902  15.114  0.9121 -0.2248  0.2573
 4575TIP3    H235141   5.131   4.043  15.098  1.3723 -0.4644 -0.3666
 4576TIP3   OH235142   2.230   0.781   1.443  0.1462 -0.1823 -0.0857
 4576TIP3    H135143   2.149   0.791   1.494  0.8413  0.3718  0.9484
 4576TIP3    H235144   2.223   0.694   1.404 -1.1119  0.0006 -0.3200
 4577TIP3   OH235145   4.777   1.661   2.248  0.4616  0.0377  0.1077
 4577TIP3    H135146   4.800   1.754   2.244 -1.5128  0.6097  1.1121
 4577TIP3    H235147   4.743   1.641   2.161 -0.5069  0.6687  0.3286
 4578TIP3   OH235148   6.652   5.338  11.493  0.5626 -0.0231 -0.2969
 4578TIP3    H135149   6.726   5.280  11.480 -0.4315 -1.4550  0.2096
 4578TIP3    H235150   6.588   5.312  11.427 -0.8707 -1.2196  1.4740
 4579TIP3   OH235151   0.796   2.635   6.753  0.0616 -0.2338 -0.0681
 4579TIP3    H135152   0.843   2.594   6.826  0.3246  0.7388  0.3167
 4579TIP3    H235153   0.714   2.666   6.791 -0.9411 -1.9172 -0.7369
 4580TIP3   OH235154   1.057   0.711  15.291 -0.1446 -0.2972 -0.0995
 4580TIP3    H135155   0.971   0.751  15.281  1.3276  3.1261 -0.3039
 4580TIP3    H235156   1.064   0.691  15.384 -0.6864  0.5857  0.1363
 4581TIP3   OH235157   5.265   1.166  16.809  0.0803  0.7529 -0.0254
 4581TIP3    H135158   5.242   1.108  16.882  1.5678  0.9243  0.6114
 4581TIP3    H235159   5.358   1.151  16.794 -0.0904  1.0613 -1.6118
 4582TIP3   OH235160   0.351   0.206   0.533 -0.0932 -0.0331 -0.6242
 4582TIP3    H135161   0.296   0.168   0.464 -0.2339  0.1320 -0.6035
 4582TIP3    H235162   0.367   0.296   0.505 -0.7440  0.2562 -0.0982
 4583TIP3   OH235163   1.312   5.605   0.182 -0.2534 -0.1886 -0.3407
 4583TIP3    H135164   1.288   5.578   0.270 -1.4958  0.3008 -0.5034
 4583TIP3    H235165   1.349   5.527   0.142 -1.0277 -0.8290  0.1494
 4584TIP3   OH235166   5.789   6.225  17.218  0.1790 -0.0351 -0.0875
 4584TIP3    H135167   5.805   6.174  17.139 -2.6959 -0.9488 -0.2149
 4584TIP3    H235168   5.798   6.162  17.289  2.0734  0.6307  0.3213
 4585TIP3   OH235169   5.237   4.276   3.250 -0.4886  0.3959 -0.3559
 4585TIP3    H135170   5.218   4.186   3.223  0.5668 -0.4293  1.4173
 4585TIP3    H235171   5.161   4.326   3.222 -0.8048 -0.9204 -1.9763
 4586TIP3   OH235172   2.394   3.433  13.365  0.0023 -0.3631 -0.0051
 4586TIP3    H135173   2.460   3.420  13.432 -0.9814 -0.6436  0.9433
 4586TIP3    H235174   2.350   3.514  13.389  0.2745  0.0584 -0.8780
 4587TIP3   OH235175   1.483   1.510   2.791 -0.2137 -0.5760  0.1590
 4587TIP3    H135176   1.500   1.460   2.711 -0.4313 -0.9947  0.3754
 4587TIP3    H235177   1.402   1.473   2.826 -0.7994  0.4124 -0.0770
 4588TIP3   OH235178   4.965   4.210   0.722  0.0674 -0.3380  0.5816
 4588TIP3    H135179   5.037   4.158   0.757 -0.6874 -1.5564  0.3692
 4588TIP3    H235180   4.980   4.211   0.627  0.1897  0.0059  0.6035
 4589TIP3   OH235181   0.424   5.639  16.606  0.1655  0.0172 -0.3892
 4589TIP3    H135182   0.352   5.637  16.543 -1.7436 -0.0276  1.6715
 4589TIP3    H235183   0.501   5.661  16.553 -1.3618  0.2725 -2.6661
 4590TIP3   OH235184   4.788   4.877   0.673  0.0639 -0.5399  0.1059
 4590TIP3    H135185   4.844   4.949   0.702  1.1703 -1.7826  1.1986
 4590TIP3    H235186   4.714   4.879   0.734 -0.5191  0.3642 -0.5983
 4591TIP3   OH235187   2.175   2.221   4.055 -0.2297  0.1619 -0.3356
 4591TIP3    H135188   2.141   2.311   4.053  2.9490  1.5043 -3.0964
 4591TIP3    H235189   2.130   2.177   3.983  0.0007  0.3481 -0.5991
 4592TIP3   OH235190   6.571   1.562  14.659  0.1214 -0.3881  0.3553
 4592TIP3    H135191   6.639   1.602  14.713  0.1668  0.1090 -0.0631
 4592TIP3    H235192   6.606   1.475  14.637  0.4626 -0.2741  0.4448
 4593TIP3   OH235193   1.118   3.320  16.274  0.1697  0.7417 -0.4757
 4593TIP3    H135194   1.119   3.319  16.178 -1.7888 -1.9182 -0.6026
 4593TIP3    H235195   1.026   3.310  16.297  0.6524  0.8102  1.6964
 4594TIP3   OH235196   5.202   1.507   5.893 -0.4086 -0.3295 -0.3763
 4594TIP3    H135197   5.289   1.486   5.858 -0.1397  0.2320 -0.0680
 4594TIP3    H235198   5.207   1.482   5.985  0.2365  1.8575  0.2409
 4595TIP3   OH235199   2.008   6.314   6.371 -0.1559 -0.4177  0.2127
 4595TIP3    H135200   2.026   6.323   6.277  0.9828 -3.0030  0.0927
 4595TIP3    H235201   2.061   6.239   6.398 -1.1028 -0.2534  2.7571
 4596TIP3   OH235202   6.162   0.808  13.087 -0.2808  0.6417 -0.3828
 4596TIP3    H135203   6.110   0.879  13.050 -0.6928 -0.4739 -2.0408
 4596TIP3    H235204   6.253   0.831  13.066 -0.5631 -0.5463 -3.3171
 4597TIP3   OH235205   1.888   0.451  11.395  0.2423 -0.1582  0.0130
 4597TIP3    H135206   1.931   0.536  11.396  1.5318 -0.7826  0.8263
 4597TIP3    H235207   1.805   0.465  11.441  0.1453  0.7977 -0.4520
 4598TIP3   OH235208   0.903   0.722  14.596  0.0127 -0.3164  0.0858
 4598TIP3    H135209   0.955   0.750  14.520  0.5598  0.0096  0.5793
 4598TIP3    H235210   0.960   0.737  14.671 -0.4497 -0.8467  0.5470
 4599TIP3   OH235211   6.342   0.813  12.062 -0.1023 -0.6974 -0.0560
 4599TIP3    H135212   6.396   0.795  12.138 -0.7614  1.3083  0.9644
 4599TIP3    H235213   6.270   0.866  12.096  0.3476  1.5125 -2.2677
 4600TIP3   OH235214   6.328   3.511  17.292 -0.2053 -0.3302 -0.3117
 4600TIP3    H135215   6.313   3.433  17.239  0.9744 -0.3763 -0.6148
 4600TIP3    H235216   6.399   3.487  17.352  0.3264  0.5501 -0.5541
 4601TIP3   OH235217   4.552   0.384   4.816  0.0398 -0.6549 -0.0158
 4601TIP3    H135218   4.618   0.453   4.822 -0.9048  0.2308  0.6333
 4601TIP3    H235219   4.483   0.412   4.876 -1.0549 -1.4118 -0.8869
 4602TIP3   OH235220   0.323   3.809   3.746  0.3877  0.1188  0.0181
 4602TIP3    H135221   0.307   3.758   3.826 -0.3805  0.8270  0.3284
 4602TIP3    H235222   0.238   3.809   3.701  0.4669  0.8637 -0.1331
 4603TIP3   OH235223   4.390   6.174   5.263 -0.1834 -0.2157  0.5301
 4603TIP3    H135224   4.470   6.123   5.256  0.7524  1.3960 -2.1436
 4603TIP3    H235225   4.329   6.132   5.203  0.3074  1.1842 -1.0326
 4604TIP3   OH235226   2.694   2.868   2.268 -0.5267 -0.1751  0.5226
 4604TIP3    H135227   2.786   2.893   2.282 -0.7166  1.2676 -0.5717
 4604TIP3    H235228   2.698   2.777   2.239  0.6367  0.0734 -0.1734
 4605TIP3   OH235229   2.290   3.090  15.366 -0.2152 -0.0717  0.2412
 4605TIP3    H135230   2.297   3.162  15.303 -0.8139 -0.7168 -0.5834
 4605TIP3    H235231   2.307   3.131  15.451 -0.5893  1.0512 -0.2092
 4606TIP3   OH235232   1.810   2.251   2.986 -0.0780 -0.4106 -0.0254
 4606TIP3    H135233   1.767   2.242   2.901 -0.8297 -2.4788  0.4948
 4606TIP3    H235234   1.887   2.305   2.969 -0.6608 -0.0751 -1.8388
 4607TIP3   OH235235   2.779   1.567  17.615 -0.4440  0.2439 -0.0367
 4607TIP3    H135236   2.866   1.532  17.633 -1.0510 -0.9446  0.6479
 4607TIP3    H235237   2.786   1.604  17.527  0.5462 -0.4929 -0.2808
 4608TIP3   OH235238   1.016   1.909   4.143  0.1145  0.0341 -0.1423
 4608TIP3    H135239   1.053   1.878   4.061  1.2612 -0.9963  0.7245
 4608TIP3    H235240   1.090   1.916   4.203 -0.7960 -0.1333  1.0698
 4609TIP3   OH235241   5.217   3.496   0.686 -0.9424  0.3223 -0.2844
 4609TIP3    H135242   5.246   3.439   0.616 -1.0995  3.1015 -2.8098
 4609TIP3    H235243   5.298   3.525   0.729 -0.8278 -1.1167  0.5417
 4610TIP3   OH235244   3.759   6.373  13.146  0.4203 -0.2748 -0.6210
 4610TIP3    H135245   3.699   6.437  13.184 -0.0398  0.0958 -1.9046
 4610TIP3    H235246   3.810   6.423  13.083  0.3419 -1.0768 -1.3444
 4611TIP3   OH235247   0.861   3.366   5.933  0.7124 -0.9345  0.1972
 4611TIP3    H135248   0.912   3.436   5.893 -0.1130  0.0008  0.7397
 4611TIP3    H235249   0.885   3.288   5.884 -0.2798  0.1676 -2.1677
 4612TIP3   OH235250   3.912   3.708   4.013  0.2511 -0.7170  0.6157
 4612TIP3    H135251   3.879   3.699   3.923  0.9056  2.0089  0.0081
 4612TIP3    H235252   3.907   3.620   4.049  0.4624 -2.0221 -2.2550
 4613TIP3   OH235253   6.077   3.510  15.091 -0.5059  0.1833 -0.2317
 4613TIP3    H135254   6.117   3.597  15.089 -0.0766 -0.0157 -2.5365
 4613TIP3    H235255   6.004   3.519  15.152  2.3038  0.8353  3.4158
 4614TIP3   OH235256   0.750   1.955  14.311 -0.6433  0.0177  0.4454
 4614TIP3    H135257   0.666   1.911  14.303 -0.9708  0.7791 -0.4073
 4614TIP3    H235258   0.767   1.990  14.224 -0.7478  2.2115  1.2611
 4615TIP3   OH235259   5.449   6.364  17.209 -0.1453  0.2497  0.0301
 4615TIP3    H135260   5.474   6.305  17.138 -1.3305  0.1814 -0.3590
 4615TIP3    H235261   5.517   6.353  17.275  0.2647 -0.6841 -0.5319
 4616TIP3   OH235262   5.266   1.584   1.643 -0.0128 -0.0286 -0.6364
 4616TIP3    H135263   5.330   1.517   1.666  0.7602  1.5064  1.9932
 4616TIP3    H235264   5.319   1.658   1.611 -0.7421 -0.0028 -1.8451
 4617TIP3   OH235265   1.614   3.144  11.990  0.0034  0.1408 -0.2892
 4617TIP3    H135266   1.552   3.080  12.028 -0.9536  0.2566 -1.5747
 4617TIP3    H235267   1.623   3.211  12.057 -1.0763 -0.0139  0.0336
 4618TIP3   OH235268   4.119   3.334  11.703 -0.2892  0.4442 -0.6317
 4618TIP3    H135269   4.068   3.278  11.763  1.0982  1.9565  2.1528
 4618TIP3    H235270   4.078   3.420  11.711 -0.0882  0.6849 -1.9679
 4619TIP3   OH235271   4.854   2.074   2.416  0.1651  0.0265 -0.1240
 4619TIP3    H135272   4.790   2.070   2.486  0.2938 -0.3188 -0.0228
 4619TIP3    H235273   4.806   2.045   2.338 -0.5287  2.2441 -0.6093
 4620TIP3   OH235274   3.458   2.906  12.904  0.2390 -0.2820 -0.4257
 4620TIP3    H135275   3.443   2.989  12.950  0.9317  0.7626 -2.0084
 4620TIP3    H235276   3.386   2.900  12.841  1.2476  0.1373 -1.6628
 4621TIP3   OH235277   1.673   3.476  13.889  0.3149  0.0242  0.0285
 4621TIP3    H135278   1.602   3.540  13.885 -0.0003 -0.3903 -1.7646
 4621TIP3    H235279   1.726   3.494  13.811  0.8640 -1.1521  0.1136
 4622TIP3   OH235280   3.780   4.370  17.315  0.2228  0.3389 -0.0248
 4622TIP3    H135281   3.796   4.325  17.232 -0.7246  1.5695 -0.9061
 4622TIP3    H235282   3.855   4.430  17.324  0.8742 -0.5344  0.5642
 4623TIP3   OH235283   0.503   0.127   2.501  0.2843 -0.4598 -0.5344
 4623TIP3    H135284   0.415   0.163   2.493 -0.0209 -0.9855  0.3571
 4623TIP3    H235285   0.550   0.191   2.555  0.6687  0.1779 -1.5965
 4624TIP3   OH235286   2.857   2.627  13.128  0.2935 -0.0490 -0.2772
 4624TIP3    H135287   2.769   2.647  13.096  0.2205 -1.2627 -0.8951
 4624TIP3    H235288   2.914   2.687  13.079 -0.0340 -0.4251 -1.1502
 4625TIP3   OH235289   1.942   5.977   3.686 -0.0473  0.1389  0.5756
 4625TIP3    H135290   2.011   6.036   3.656 -0.2786 -0.6641 -1.7738
 4625TIP3    H235291   1.861   6.023   3.664 -0.2459 -1.2654 -2.0602
 4626TIP3   OH235292   5.304   2.280  14.774  0.0311  0.6981 -0.2346
 4626TIP3    H135293   5.357   2.228  14.835  0.2364  2.0452  0.7707
 4626TIP3    H235294   5.321   2.240  14.689 -0.1084 -1.1059  0.5377
 4627TIP3   OH235295   0.699   1.198  16.431  0.0742  0.4447  0.1335
 4627TIP3    H135296   0.735   1.166  16.348 -0.1703  0.2088  0.1135
 4627TIP3    H235297   0.628   1.136  16.451  0.6538  0.0194  0.9282
 4628TIP3   OH235298   3.651   3.124   1.372  0.3791  0.1440  0.3636
 4628TIP3    H135299   3.707   3.200   1.389  1.3887 -0.5129  0.0598
 4628TIP3    H235300   3.644   3.120   1.277  1.0691 -0.6396  0.3295
 4629TIP3   OH235301   0.930   4.976   2.360  0.2699  0.1955  0.4993
 4629TIP3    H135302   1.014   4.976   2.407  0.9661  0.5854 -0.6924
 4629TIP3    H235303   0.924   5.064   2.323 -0.0508 -0.2407 -0.4920
 4630TIP3   OH235304   5.469   6.430  15.146  0.5832 -0.2776  0.5315
 4630TIP3    H135305   5.487   6.379  15.067  1.1562  0.0171  0.4672
 4630TIP3    H235306   5.376   6.452  15.140  0.3322 -1.2994  0.5599
 4631TIP3   OH235307   5.424   0.433  16.462 -0.1113 -0.3809 -0.1509
 4631TIP3    H135308   5.338   0.416  16.425 -0.0533  1.7931 -1.4000
 4631TIP3    H235309   5.419   0.521  16.498  1.3988 -0.4611  0.3402
 4632TIP3   OH235310   6.042   0.169  17.308 -0.0271  0.2591 -0.4531
 4632TIP3    H135311   6.117   0.121  17.274  0.3941 -0.1332  0.9634
 4632TIP3    H235312   5.985   0.101  17.344  0.4894  0.7569  1.4075
 4633TIP3   OH235313   0.283   6.474   4.959  0.4320  0.3435 -0.2553
 4633TIP3    H135314   0.337   6.543   4.919  0.0297  2.0626  1.9641
 4633TIP3    H235315   0.341   6.433   5.023 -0.2178  0.7045  0.5790
 4634TIP3   OH235316   1.585   4.317   3.708 -0.4291  0.2814 -0.2524
 4634TIP3    H135317   1.583   4.340   3.616  0.5750 -1.4151 -0.7314
 4634TIP3    H235318   1.492   4.310   3.733 -0.7994 -2.3133 -1.9933
 4635TIP3   OH235319   6.559   0.451  11.092 -0.6937  0.0237  0.0072
 4635TIP3    H135320   6.481   0.412  11.052  0.4976 -2.1092 -0.4007
 4635TIP3    H235321   6.631   0.394  11.065  1.0099  1.8157  0.5179
 4636TIP3   OH235322   5.882   3.595   5.696 -0.0705 -0.0183  0.0791
 4636TIP3    H135323   5.806   3.653   5.695  0.0965  0.3787  2.6903
 4636TIP3    H235324   5.951   3.647   5.738  0.9153 -1.2141  0.0011
 4637TIP3   OH235325   1.729   1.220   5.640 -0.2549  0.1512 -0.0722
 4637TIP3    H135326   1.757   1.310   5.659  0.5875  0.1748 -1.3129
 4637TIP3    H235327   1.766   1.201   5.554 -2.1169 -0.6816 -0.7426
 4638TIP3   OH235328   1.542   3.184  14.477 -0.3239 -0.7342  0.2999
 4638TIP3    H135329   1.525   3.155  14.387  0.0550 -0.9764  0.3047
 4638TIP3    H235330   1.484   3.259  14.490  0.4646  0.0349 -0.5337
 4639TIP3   OH235331   0.154   0.086  13.228 -0.2692  0.4363  0.0998
 4639TIP3    H135332   0.068   0.127  13.223  0.8105  2.9825  0.9574
 4639TIP3    H235333   0.136  -0.003  13.259 -2.5145  1.1236  0.9612
 4640TIP3   OH235334   6.342   6.138   3.214 -0.5298  0.2118  0.3586
 4640TIP3    H135335   6.279   6.077   3.251  2.2338 -2.9752  0.3550
 4640TIP3    H235336   6.357   6.107   3.125 -0.5618  2.2561 -0.4056
 4641TIP3   OH235337   1.303   6.574  16.873 -0.3576  0.1078  0.0507
 4641TIP3    H135338   1.243   6.505  16.899 -2.3149  1.1406 -1.5020
 4641TIP3    H235339   1.258   6.655  16.894 -0.4414  0.9436 -2.9132
 4642TIP3   OH235340   5.477   4.778   4.542  0.2659  0.3615  0.8323
 4642TIP3    H135341   5.523   4.858   4.569  0.1039  0.7470  0.0024
 4642TIP3    H235342   5.504   4.764   4.451 -0.1281 -0.2229  0.8008
 4643TIP3   OH235343   4.678   0.899  13.944 -0.1974 -0.1156  0.5135
 4643TIP3    H135344   4.598   0.873  13.990 -1.1474  1.2486 -0.2919
 4643TIP3    H235345   4.699   0.985  13.979  0.7411 -0.3242  0.4749
 4644TIP3   OH235346   3.677   6.638  12.572  0.0892  0.1852 -0.4923
 4644TIP3    H135347   3.666   6.713  12.514 -1.7396 -0.4143 -0.9977
 4644TIP3    H235348   3.667   6.674  12.660  1.2399  0.8379 -0.6164
 4645TIP3   OH235349   2.700   3.086  14.836  0.0378 -0.3535  0.2847
 4645TIP3    H135350   2.737   3.174  14.829 -1.0481  0.2201  1.4468
 4645TIP3    H235351   2.776   3.029  14.842  0.7514  0.6219  0.7910
 4646TIP3   OH235352   1.251   0.503  15.179  0.0678 -0.4705  0.3560
 4646TIP3    H135353   1.269   0.487  15.271 -0.2753 -0.7317  0.3794
 4646TIP3    H235354   1.185   0.573  15.179 -0.1608 -0.6842  0.3192
 4647TIP3   OH235355   3.759   5.661  17.164 -0.3136  0.1056 -0.3324
 4647TIP3    H135356   3.815   5.604  17.112 -2.1054 -1.3469 -0.7987
 4647TIP3    H235357   3.801   5.666  17.249  0.0444 -1.7561 -0.3581
 4648TIP3   OH235358   0.215   5.630   6.493 -0.8091 -0.2145  0.3181
 4648TIP3    H135359   0.299   5.674   6.510 -0.0436 -0.9162 -1.4222
 4648TIP3    H235360   0.150   5.689   6.531  0.4572  0.1967  2.0054
 4649TIP3   OH235361   1.213   2.743  12.492  0.1613 -0.1086  0.2235
 4649TIP3    H135362   1.119   2.760  12.496  0.3477  0.9547  0.4654
 4649TIP3    H235363   1.246   2.772  12.577  0.9895  1.4566 -0.6007
 4650TIP3   OH235364   2.465   1.802   0.285  0.3478  0.0382 -0.6430
 4650TIP3    H135365   2.468   1.897   0.293 -0.1208 -0.0631  0.9500
 4650TIP3    H235366   2.557   1.775   0.287  0.4205  0.3403  0.6472
 4651TIP3   OH235367   6.103   1.401  16.977  0.4926 -0.0412 -0.1333
 4651TIP3    H135368   6.058   1.461  17.037 -0.3464 -2.0597  1.3926
 4651TIP3    H235369   6.188   1.386  17.017 -0.1341 -1.5285  0.7365
 4652TIP3   OH235370   2.985   5.552  15.705 -0.1049  0.3352 -0.0609
 4652TIP3    H135371   3.035   5.498  15.767 -0.1513  0.2980 -0.0562
 4652TIP3    H235372   2.894   5.541  15.731  0.0593  2.8172  1.9022
 4653TIP3   OH235373   2.820   5.002  16.232 -0.3345  0.4048  0.2499
 4653TIP3    H135374   2.728   5.018  16.252 -0.5114 -2.4760  2.2743
 4653TIP3    H235375   2.868   5.054  16.296 -0.6715 -0.4159  1.1915
 4654TIP3   OH235376   4.165   6.549   1.757  0.4062  0.3194 -0.6525
 4654TIP3    H135377   4.175   6.644   1.749  0.1126  0.3665 -0.4358
 4654TIP3    H235378   4.214   6.526   1.836 -1.7473  0.6540  0.8719
 4655TIP3   OH235379   5.326   6.501   1.370 -0.1191 -0.2842  0.5649
 4655TIP3    H135380   5.241   6.544   1.360 -0.3142 -1.0857 -1.7163
 4655TIP3    H235381   5.346   6.466   1.284  3.5585  1.7243  0.3719
 4656TIP3   OH235382   4.679   4.643  11.303 -0.4305  0.5962  0.0950
 4656TIP3    H135383   4.738   4.571  11.324 -0.9631  0.9302  3.2354
 4656TIP3    H235384   4.632   4.614  11.225  1.7954 -0.8801 -0.8221
 4657TIP3   OH235385   6.447   0.941   3.478 -0.3071  0.5337 -0.1649
 4657TIP3    H135386   6.420   1.033   3.476 -0.5149  0.4822 -2.6635
 4657TIP3    H235387   6.541   0.943   3.461 -0.5731  0.2523 -1.8063
 4658TIP3   OH235388   4.545   3.430  16.982 -0.1070 -0.2725 -0.1951
 4658TIP3    H135389   4.492   3.509  16.977 -1.3101 -1.1001 -1.3374
 4658TIP3    H235390   4.635   3.460  16.969 -0.6643  0.7956 -1.9790
 4659TIP3   OH235391   5.806   4.010  15.873  0.5265  0.0607 -0.1947
 4659TIP3    H135392   5.762   4.050  15.947  1.1343 -2.3167  1.5643
 4659TIP3    H235393   5.737   3.996  15.808 -0.1377  1.5651  0.1581
 4660TIP3   OH235394   3.157   3.502  13.006  0.3069 -0.3775 -0.3578
 4660TIP3    H135395   3.204   3.585  12.990  0.5243 -0.5755 -0.7768
 4660TIP3    H235396   3.196   3.441  12.944  0.8455 -1.0666  0.6398
 4661TIP3   OH235397   3.555   2.054   4.921  0.2278  0.1157 -0.4617
 4661TIP3    H135398   3.468   2.023   4.895  0.0335  0.4149 -0.1676
 4661TIP3    H235399   3.560   2.143   4.887 -1.1489  1.6336  2.8838
 4662TIP3   OH235400   0.148   3.901  12.818  0.0443 -0.2033  0.5808
 4662TIP3    H135401   0.236   3.932  12.839 -0.1533 -0.1621  1.3653
 4662TIP3    H235402   0.157   3.861  12.731  0.7381  0.1986  0.4593
 4663TIP3   OH235403   6.343   5.254   4.359  0.0489 -0.0212 -0.4122
 4663TIP3    H135404   6.311   5.297   4.438 -1.2606  0.3947 -1.1371
 4663TIP3    H235405   6.283   5.180   4.346  1.5640 -1.4081  0.1603
 4664TIP3   OH235406   3.576   4.168   3.643 -0.0832 -0.6124 -0.4633
 4664TIP3    H135407   3.549   4.088   3.687 -0.1303 -0.1896  0.2914
 4664TIP3    H235408   3.576   4.235   3.712  0.7330 -0.1315 -0.9150
 4665TIP3   OH235409   4.353   4.803  12.433 -0.4263 -0.1797 -0.1310
 4665TIP3    H135410   4.293   4.839  12.499 -1.1080 -0.3514 -0.6448
 4665TIP3    H235411   4.427   4.770  12.483 -1.2677 -0.9845  0.6147
 4666TIP3   OH235412   4.695   2.677   6.019 -0.5091 -0.4394 -0.7923
 4666TIP3    H135413   4.620   2.668   6.079 -0.1855 -0.9055 -0.4419
 4666TIP3    H235414   4.680   2.759   5.973 -1.2836 -0.5720 -0.7922
 4667TIP3   OH235415   5.052   2.569  12.860 -0.1880 -0.0967 -0.8731
 4667TIP3    H135416   5.003   2.487  12.856 -0.3979 -0.5208  4.1192
 4667TIP3    H235417   4.996   2.632  12.815 -1.9348 -1.9525 -1.4407
 4668TIP3   OH235418   3.963   3.902  11.148  0.0212 -0.4351 -0.0506
 4668TIP3    H135419   4.020   3.975  11.172 -0.7163  0.3405 -0.6169
 4668TIP3    H235420   4.007   3.861  11.073  0.0246 -0.0773 -0.2436
 4669TIP3   OH235421   2.001   5.656   6.230 -0.2089 -0.2312  0.5335
 4669TIP3    H135422   2.029   5.644   6.320 -0.6381  0.8276  0.8176
 4669TIP3    H235423   2.040   5.739   6.203  0.9313 -1.1089 -0.6717
 4670TIP3   OH235424   2.885   5.714   2.412  0.2284  0.4663  0.3263
 4670TIP3    H135425   2.933   5.715   2.329 -3.7720  1.5651 -2.2740
 4670TIP3    H235426   2.851   5.625   2.419 -1.6640  1.0525 -0.7730
 4671TIP3   OH235427   6.008   4.628  12.727  0.3475 -0.1033 -0.0046
 4671TIP3    H135428   6.024   4.716  12.695  0.5929  0.1333  0.7594
 4671TIP3    H235429   5.915   4.627  12.750  0.3985  0.0175  0.1988
 4672TIP3   OH235430   3.981   1.356  16.308 -0.3035  0.3832 -0.0539
 4672TIP3    H135431   3.991   1.266  16.339 -3.1792 -1.1611 -2.9494
 4672TIP3    H235432   4.008   1.353  16.216 -3.3895  1.5663 -1.1384
 4673TIP3   OH235433   3.147   4.447   4.937  0.3291 -0.1313  0.4801
 4673TIP3    H135434   3.083   4.382   4.968 -0.8386  1.8893  2.6136
 4673TIP3    H235435   3.162   4.504   5.012  2.4503  1.2167 -0.8582
 4674TIP3   OH235436   6.301   6.360   4.674 -0.2909  0.5942 -0.1588
 4674TIP3    H135437   6.381   6.412   4.670 -0.7587  1.4532  0.9837
 4674TIP3    H235438   6.330   6.270   4.661  1.0284  0.7553  1.3952
 4675TIP3   OH235439   2.299   1.422   0.970  0.4010 -0.0637 -0.4296
 4675TIP3    H135440   2.321   1.412   0.877  0.6376 -3.4674 -0.1204
 4675TIP3    H235441   2.383   1.413   1.015  0.3878  2.2166  0.1804
 4676TIP3   OH235442   1.912   2.203  16.528  0.0747  0.4336 -0.2410
 4676TIP3    H135443   1.943   2.248  16.607 -0.3133  2.1847 -1.0322
 4676TIP3    H235444   1.958   2.247  16.456 -0.0453 -0.7048 -1.0348
 4677TIP3   OH235445   1.879   0.825   6.314 -0.0473 -0.1080 -0.3980
 4677TIP3    H135446   1.914   0.736   6.308  0.8044  0.1666  0.2788
 4677TIP3    H235447   1.851   0.846   6.224 -1.3624 -1.4764 -0.3353
 4678TIP3   OH235448   4.951   2.797  12.385 -0.0630 -0.1965 -0.1394
 4678TIP3    H135449   5.013   2.788  12.458 -0.5116 -0.3400  0.2273
 4678TIP3    H235450   4.968   2.885  12.351 -0.9386  0.5083  1.1646
 4679TIP3   OH235451   2.033   1.025   0.064  0.2509 -0.2624  0.4177
 4679TIP3    H135452   1.946   0.985   0.054 -0.1648  0.6738  0.2231
 4679TIP3    H235453   2.036   1.092  -0.004  0.9597  0.0125  0.7170
 4680TIP3   OH235454   1.354   3.857   2.090 -0.2848  0.0609 -0.3105
 4680TIP3    H135455   1.426   3.794   2.083  0.2386  0.6689 -0.5375
 4680TIP3    H235456   1.397   3.942   2.083 -1.3294  0.4513 -3.6011
 4681TIP3   OH235457   5.987   5.212  11.948  0.2832  0.0509 -0.5137
 4681TIP3    H135458   6.023   5.154  11.881  0.5593  0.5755 -0.8282
 4681TIP3    H235459   5.920   5.263  11.902 -0.0665 -0.1176 -0.2019
 4682TIP3   OH235460   2.548   1.761  13.684 -0.2066 -0.2638 -0.6485
 4682TIP3    H135461   2.536   1.725  13.596 -0.5780 -0.6609 -0.4404
 4682TIP3    H235462   2.485   1.833  13.690 -0.6342 -0.6455 -0.4886
 4683TIP3   OH235463   2.237   6.294   4.705  0.4283  0.2464  0.2862
 4683TIP3    H135464   2.261   6.210   4.666 -0.6042 -0.0652  0.2954
 4683TIP3    H235465   2.269   6.359   4.643 -1.2607 -0.2388 -1.1713
 4684TIP3   OH235466   3.308   3.811  16.107  0.0037  0.3493 -0.1091
 4684TIP3    H135467   3.403   3.802  16.115  0.1516  0.3920 -1.5278
 4684TIP3    H235468   3.296   3.859  16.024 -1.1823  2.0418  0.9659
 4685TIP3   OH235469   3.130   4.195   0.530  0.2423 -0.1453 -0.1958
 4685TIP3    H135470   3.065   4.140   0.486  0.1065  0.6538 -1.0012
 4685TIP3    H235471   3.093   4.283   0.528  0.1120 -0.1081  1.7474
 4686TIP3   OH235472   1.388   1.441   5.775 -0.0757  0.2672 -0.3668
 4686TIP3    H135473   1.305   1.398   5.759  0.7590 -1.3964 -0.4423
 4686TIP3    H235474   1.426   1.454   5.688 -0.7564  2.1480 -0.4256
 4687TIP3   OH235475   1.439   6.026   2.522 -0.6573 -0.0347 -0.4087
 4687TIP3    H135476   1.347   6.036   2.545 -0.3099  1.1390  0.5896
 4687TIP3    H235477   1.442   6.036   2.427 -1.4002  1.4438 -0.2997
 4688TIP3   OH235478   5.836   3.679   4.613  0.0262  0.5075 -0.8675
 4688TIP3    H135479   5.772   3.613   4.589  0.2700 -0.4309  0.8738
 4688TIP3    H235480   5.920   3.633   4.613  0.2773  0.9431 -0.2008
 4689TIP3   OH235481   3.170   3.018   2.680  0.3599 -0.2043 -0.1980
 4689TIP3    H135482   3.077   3.031   2.663  0.5029 -0.3925 -1.1739
 4689TIP3    H235483   3.191   2.935   2.636  0.9182 -0.3355  0.2953
 4690TIP3   OH235484   0.564   1.239   4.571  0.6852 -0.1315  0.5450
 4690TIP3    H135485   0.529   1.328   4.563 -0.6045 -0.5864  1.0231
 4690TIP3    H235486   0.588   1.215   4.482  0.3909  0.4296  0.3088
 4691TIP3   OH235487   5.296   1.628  11.698  0.3394  0.8413  0.5146
 4691TIP3    H135488   5.243   1.638  11.777  2.8364  1.4802  2.2159
 4691TIP3    H235489   5.273   1.703  11.644 -0.0502  1.4237  1.4702
 4692TIP3   OH235490   1.477   1.994  15.709  0.2787 -0.3770 -0.9160
 4692TIP3    H135491   1.463   2.073  15.658  0.9835  1.2834  1.2847
 4692TIP3    H235492   1.569   1.972  15.697  0.3180 -0.2903 -0.7770
 4693TIP3   OH235493   2.342   1.242   0.449 -0.5337  0.6899 -0.2186
 4693TIP3    H135494   2.430   1.235   0.412 -0.5109  2.9258 -0.6952
 4693TIP3    H235495   2.323   1.154   0.482  1.5406 -0.0404 -0.8323
 4694TIP3   OH235496   5.139   4.537   1.717  0.1491 -0.2913  0.5964
 4694TIP3    H135497   5.202   4.609   1.723 -0.3280  0.2535 -0.5504
 4694TIP3    H235498   5.097   4.549   1.632 -1.3298 -0.7980  1.2276
 4695TIP3   OH235499   5.338   6.532  14.769  0.5079 -0.2120  0.4397
 4695TIP3    H135500   5.250   6.569  14.777  0.8259  0.4762  0.9074
 4695TIP3    H235501   5.395   6.597  14.810  1.6189  0.8390 -2.4812
 4696TIP3   OH235502   1.802   4.736  10.832 -0.3360  0.5077 -0.6986
 4696TIP3    H135503   1.788   4.759  10.924  0.4538 -2.0249  0.1366
 4696TIP3    H235504   1.726   4.684  10.808 -0.5433  1.1636 -1.5027
 4697TIP3   OH235505   6.693   0.983  14.568 -0.1814  0.1400 -0.0552
 4697TIP3    H135506   6.784   0.969  14.595  0.6314  0.8588 -2.1948
 4697TIP3    H235507   6.663   0.896  14.541  0.1396  0.0329 -0.0805
 4698TIP3   OH235508   2.915   0.593  15.419  0.4893  0.1660 -0.6922
 4698TIP3    H135509   2.829   0.565  15.387  1.2180 -1.4100 -1.4016
 4698TIP3    H235510   2.900   0.680  15.456 -1.3630  0.0073 -0.9693
 4699TIP3   OH235511   2.325   6.627   0.084 -0.4553 -0.3068 -0.1527
 4699TIP3    H135512   2.319   6.622   0.180  1.8312 -1.4830 -0.0069
 4699TIP3    H235513   2.355   6.540   0.057 -0.4291  0.2035 -1.8808
 4700TIP3   OH235514   2.813   6.333  12.564  0.0782 -0.0591 -0.0337
 4700TIP3    H135515   2.808   6.238  12.577 -0.6248 -0.0172  0.0212
 4700TIP3    H235516   2.903   6.349  12.536  0.2318 -0.7291  0.0728
 4701TIP3   OH235517   5.642   0.991  12.656 -0.5035  0.1746 -0.0923
 4701TIP3    H135518   5.672   0.984  12.566 -0.5043 -1.2620 -0.0058
 4701TIP3    H235519   5.699   1.058  12.695 -0.5173  0.8203 -1.1452
 4702TIP3   OH235520   2.649   6.556   0.882 -0.2119 -0.5195  0.5375
 4702TIP3    H135521   2.724   6.511   0.843  0.1157  1.1114 -0.8206
 4702TIP3    H235522   2.677   6.574   0.972  0.2300 -1.6505  0.6493
 4703TIP3   OH235523   2.143   1.684  11.619  0.2189  0.4638 -0.1528
 4703TIP3    H135524   2.082   1.614  11.597 -0.9323  1.7581 -1.2674
 4703TIP3    H235525   2.099   1.734  11.688  1.7047 -0.7351  1.7693
 4704TIP3   OH235526   0.213   5.755  12.631 -0.4100 -0.2407  0.0250
 4704TIP3    H135527   0.171   5.786  12.711  0.4415  1.1688 -0.0305
 4704TIP3    H235528   0.144   5.758  12.565 -0.7234  0.1356  0.3625
 4705TIP3   OH235529   4.151   5.793   5.147 -0.2544 -0.2130 -0.4229
 4705TIP3    H135530   4.141   5.808   5.241 -0.6692  0.4136 -0.5665
 4705TIP3    H235531   4.063   5.805   5.111  0.3156  1.9115 -1.2168
 4706TIP3   OH235532   6.136   1.992   3.253 -0.1542  0.4166  0.0519
 4706TIP3    H135533   6.109   1.983   3.161  3.3467 -0.1505 -1.0569
 4706TIP3    H235534   6.111   1.909   3.293 -1.2349  0.4597 -0.4721
 4707TIP3   OH235535   2.234   4.389   4.894  0.1513  0.5250  0.3029
 4707TIP3    H135536   2.144   4.401   4.864  0.8631  1.6258 -1.6039
 4707TIP3    H235537   2.246   4.454   4.963 -0.4245  0.5357  0.3943
 4708TIP3   OH235538   3.605   3.139   1.089 -0.1448 -0.1803  0.3138
 4708TIP3    H135539   3.657   3.214   1.063 -0.5262  0.0220  0.1326
 4708TIP3    H235540   3.620   3.074   1.021 -2.6516  1.0206 -1.5459
 4709TIP3   OH235541   5.627   5.082   4.537 -0.3364  0.2307 -0.0167
 4709TIP3    H135542   5.552   5.111   4.484 -0.2349 -1.0457 -0.8821
 4709TIP3    H235543   5.669   5.164   4.564  0.1028  0.9658 -2.6167
 4710TIP3   OH235544   1.866   1.053   1.905 -0.1386  0.2807  1.0765
 4710TIP3    H135545   1.807   1.006   1.963  0.6034 -1.1072  0.7344
 4710TIP3    H235546   1.845   1.021   1.817  0.9223 -0.0335  0.9201
 4711TIP3   OH235547   4.154   6.061  12.196  0.1364 -0.2742  0.3405
 4711TIP3    H135548   4.126   6.128  12.134  0.4401 -0.3853  0.0776
 4711TIP3    H235549   4.100   5.985  12.174 -0.4801 -0.0071  0.8889
 4712TIP3   OH235550   6.270   4.649   0.440 -0.3981 -0.7595 -0.4044
 4712TIP3    H135551   6.248   4.719   0.378  0.7909 -1.4815 -1.7002
 4712TIP3    H235552   6.186   4.607   0.458 -1.1956  1.1259  0.6433
 4713TIP3   OH235553   0.391   5.008  13.399  0.2346 -0.0842  0.1913
 4713TIP3    H135554   0.413   5.081  13.341  0.4319 -0.5655 -0.3480
 4713TIP3    H235555   0.475   4.975  13.429  0.1295  0.2364  0.8555
 4714TIP3   OH235556   4.263   5.979   1.360  0.0415  0.0662 -0.4828
 4714TIP3    H135557   4.324   6.048   1.334  0.3164 -0.1273 -0.3630
 4714TIP3    H235558   4.243   5.934   1.278  1.1510 -0.7366 -0.3515
 4715TIP3   OH235559   4.175   6.392   3.274  0.2608 -0.4546 -0.6076
 4715TIP3    H135560   4.203   6.330   3.341  0.1373  0.0872 -0.0436
 4715TIP3    H235561   4.218   6.474   3.298 -1.2084  0.2173 -0.1303
 4716TIP3   OH235562   1.654   3.416  16.003 -0.4367 -0.0687  0.7637
 4716TIP3    H135563   1.706   3.339  16.027  0.3633  0.7013  1.5563
 4716TIP3    H235564   1.719   3.482  15.978 -1.0288  0.8453  1.5603
 4717TIP3   OH235565   5.083   4.272   6.373  0.1329 -0.0435  0.0297
 4717TIP3    H135566   5.042   4.218   6.305 -0.7611  0.6773 -0.0205
 4717TIP3    H235567   5.160   4.309   6.330  0.2369 -0.5311 -0.2206
 4718TIP3   OH235568   4.489   4.894  13.084  0.1259 -0.3177 -0.1274
 4718TIP3    H135569   4.394   4.891  13.076 -0.0614 -0.7304  1.7261
 4718TIP3    H235570   4.508   4.980  13.120  0.3938 -0.4618  0.0812
 4719TIP3   OH235571   5.553   2.527  15.153 -0.0570 -0.9062 -0.0244
 4719TIP3    H135572   5.487   2.462  15.179  1.2651 -2.7421 -1.0125
 4719TIP3    H235573   5.542   2.535  15.058 -0.0029  0.1507  0.0400
 4720TIP3   OH235574   4.729   4.385  14.365  0.0969  0.2860 -0.1008
 4720TIP3    H135575   4.733   4.331  14.287 -0.2073 -1.4665  1.0373
 4720TIP3    H235576   4.644   4.430  14.359 -0.2642 -0.4279 -0.4102
 4721TIP3   OH235577   4.045   4.918   2.638  0.1163 -0.3455  0.2263
 4721TIP3    H135578   4.063   4.840   2.587 -1.0522 -0.3340 -0.2262
 4721TIP3    H235579   4.043   4.989   2.573 -0.6339 -0.2208  0.3772
 4722TIP3   OH235580   6.285   4.161  16.822  0.2954  0.3911 -0.0236
 4722TIP3    H135581   6.338   4.103  16.767 -0.1009  1.2772 -1.3908
 4722TIP3    H235582   6.202   4.169  16.776 -1.5631 -1.8525  2.6255
 4723TIP3   OH235583   2.285   0.328   3.138 -0.5565 -0.1308 -0.8589
 4723TIP3    H135584   2.205   0.382   3.135  0.3975  1.4442  0.4174
 4723TIP3    H235585   2.346   0.373   3.080  0.7432  1.0894  1.3389
 4724TIP3   OH235586   5.319   1.332   1.235  0.5021  0.3317  0.1879
 4724TIP3    H135587   5.227   1.361   1.234 -0.2556 -1.8801  0.0135
 4724TIP3    H235588   5.369   1.410   1.209 -1.2913  1.6531  0.4950
 4725TIP3   OH235589   1.312   3.535   5.900  0.6145 -0.0386  0.1183
 4725TIP3    H135590   1.234   3.519   5.954  0.2905 -1.5185 -0.7545
 4725TIP3    H235591   1.282   3.599   5.835  0.1997 -0.3953 -0.0480
 4726TIP3   OH235592   1.245   5.838  11.983  1.1292 -0.3131 -0.2911
 4726TIP3    H135593   1.168   5.877  12.024  0.7103 -0.7631 -0.6360
 4726TIP3    H235594   1.319   5.877  12.029  0.6768 -0.5751  0.6864
 4727TIP3   OH235595   6.476   3.596  11.773  0.1586  0.0402  0.0660
 4727TIP3    H135596   6.436   3.593  11.686 -3.1192 -1.3347  1.4455
 4727TIP3    H235597   6.493   3.689  11.788 -1.6165  0.6242 -1.1097
 4728TIP3   OH235598   4.350   0.890  14.074 -0.2854 -0.5570 -0.2554
 4728TIP3    H135599   4.263   0.901  14.113  0.0966 -0.5066  0.6175
 4728TIP3    H235600   4.339   0.820  14.010 -0.9458 -0.6285 -0.0726
 4729TIP3   OH235601   0.659   0.050   4.197  0.0697  0.5212 -0.1568
 4729TIP3    H135602   0.577   0.073   4.153  0.5138 -0.0654 -1.3238
 4729TIP3    H235603   0.634   0.039   4.289 -1.5884 -1.5748 -0.7607
 4730TIP3   OH235604   3.846   2.954  11.949 -0.4662  0.3400  0.2258
 4730TIP3    H135605   3.757   2.933  11.922  0.0873 -0.5440 -0.9466
 4730TIP3    H235606   3.888   2.870  11.963  0.5390  0.7189 -0.4090
 4731TIP3   OH235607   1.714   4.487  10.999 -0.6767  0.1908 -0.2597
 4731TIP3    H135608   1.701   4.419  11.065 -1.4822 -0.3178 -0.9289
 4731TIP3    H235609   1.755   4.560  11.047 -1.1113 -0.2246  0.7596
 4732TIP3   OH235610   0.791   0.428  17.304  0.5805 -0.3628 -0.3953
 4732TIP3    H135611   0.833   0.488  17.365 -0.5441  0.8591 -0.7669
 4732TIP3    H235612   0.862   0.397  17.247  0.9728  1.9714 -1.2854
 4733TIP3   OH235613   4.489   0.400   5.112  0.1312 -0.3304  0.3814
 4733TIP3    H135614   4.581   0.380   5.096  0.2939 -1.5554  2.4522
 4733TIP3    H235615   4.489   0.490   5.146  0.4362 -0.0101 -0.4445
 4734TIP3   OH235616   5.916   0.869   1.832  0.4553  0.2705  0.0133
 4734TIP3    H135617   5.997   0.874   1.883  1.6706  0.0999 -1.7807
 4734TIP3    H235618   5.938   0.811   1.759 -1.5333 -0.3557 -0.1305
 4735TIP3   OH235619   0.038   0.699   4.809 -0.4171  0.5040  0.1715
 4735TIP3    H135620   0.050   0.623   4.865 -1.3660 -0.8835 -1.4047
 4735TIP3    H235621   0.056   0.774   4.866 -0.8064 -0.8267  2.1428
 4736TIP3   OH235622   5.084   2.573   5.134 -0.2162 -0.2862  0.1612
 4736TIP3    H135623   5.146   2.535   5.072 -1.6506 -1.0503 -0.8516
 4736TIP3    H235624   5.026   2.627   5.080 -1.0182 -0.3593  0.9286
 4737TIP3   OH235625   4.524   5.565   0.217 -0.0498  0.2450 -0.6396
 4737TIP3    H135626   4.617   5.577   0.199 -0.0622 -0.6270 -1.3812
 4737TIP3    H235627   4.519   5.484   0.267 -0.4255  0.1360 -0.8458
 4738TIP3   OH235628   2.470   3.297   1.056 -0.1449 -0.1959  0.4069
 4738TIP3    H135629   2.465   3.226   1.120  0.3565  0.7835  1.5888
 4738TIP3    H235630   2.402   3.359   1.085 -1.9625 -1.0455 -1.7589
 4739TIP3   OH235631   0.657   2.356  13.354  0.1436  0.0970  0.3303
 4739TIP3    H135632   0.583   2.383  13.299  1.2537 -1.4785 -2.1147
 4739TIP3    H235633   0.622   2.284  13.407 -0.3387 -0.0207 -0.1309
 4740TIP3   OH235634   3.810   1.027  16.510 -0.5894 -0.3370 -0.3904
 4740TIP3    H135635   3.852   0.995  16.589 -1.3290 -0.2360  0.0518
 4740TIP3    H235636   3.882   1.035  16.446 -0.2366 -1.9306 -0.2312
 4741TIP3   OH235637   0.763   6.501   4.248 -0.1954  0.1159  0.2286
 4741TIP3    H135638   0.702   6.563   4.207  0.0274  0.2234  0.0579
 4741TIP3    H235639   0.792   6.546   4.327 -1.9275 -0.7787  1.4299
 4742TIP3   OH235640   4.605   1.270  11.211 -0.1179 -1.0783  0.0365
 4742TIP3    H135641   4.657   1.191  11.222 -0.3160 -1.4694 -1.5548
 4742TIP3    H235642   4.656   1.323  11.149  0.9231  0.8929  2.4355
 4743TIP3   OH235643   5.531   1.902   3.087 -0.5450 -0.0036 -0.4956
 4743TIP3    H135644   5.609   1.945   3.051 -0.4029 -1.2111 -1.6957
 4743TIP3    H235645   5.470   1.974   3.104 -0.6874  0.6722 -3.3563
 4744TIP3   OH235646   4.497   5.410  17.543 -0.4502  0.4769 -0.0355
 4744TIP3    H135647   4.455   5.419  17.457  0.0855 -0.4194 -0.4025
 4744TIP3    H235648   4.588   5.388  17.523 -0.7992 -2.0292  0.7143
 4745TIP3   OH235649   3.855   2.220   1.998  0.2696  0.3377 -0.4088
 4745TIP3    H135650   3.949   2.213   1.979  0.4797  1.6564  0.0378
 4745TIP3    H235651   3.817   2.141   1.961  1.4816  0.0602 -1.1038
 4746TIP3   OH235652   3.781   6.224  14.984  0.2696  0.9654 -0.4100
 4746TIP3    H135653   3.843   6.214  14.913 -0.1281 -1.3301 -0.5111
 4746TIP3    H235654   3.825   6.188  15.061 -1.1920 -1.8099 -0.7134
 4747TIP3   OH235655   3.227   4.643   4.301 -0.0006  0.1947 -0.5183
 4747TIP3    H135656   3.291   4.700   4.257  0.3658  2.0999  2.2663
 4747TIP3    H235657   3.262   4.555   4.289  2.0980  1.0005 -0.7923
 4748TIP3   OH235658   3.584   5.700  16.648  0.2140 -0.2081 -0.1939
 4748TIP3    H135659   3.554   5.722  16.560  0.0036  0.6433  0.0765
 4748TIP3    H235660   3.619   5.611  16.641 -2.0313 -1.1159 -0.5879
 4749TIP3   OH235661   3.552   0.415  17.429 -0.0083  0.0196  0.2273
 4749TIP3    H135662   3.625   0.460  17.387  0.0744 -0.0078  0.3393
 4749TIP3    H235663   3.585   0.392  17.516 -0.3682  0.5715  0.5105
 4750TIP3   OH235664   4.021   0.471   2.342 -0.1101 -0.6406  0.3054
 4750TIP3    H135665   4.054   0.437   2.425  0.0018 -1.6637 -0.1487
 4750TIP3    H235666   4.082   0.438   2.276 -1.3315 -1.5741 -0.4051
 4751TIP3   OH235667   3.983   3.426  13.491 -0.0297 -0.0594  0.3350
 4751TIP3    H135668   3.936   3.386  13.418  0.5604  0.2972 -0.2478
 4751TIP3    H235669   4.016   3.508  13.457 -2.3686  1.6838  1.8977
 4752TIP3   OH235670   1.414   4.734  16.526 -0.2303 -0.6828  0.2193
 4752TIP3    H135671   1.333   4.711  16.573  0.3458 -1.8543  0.6984
 4752TIP3    H235672   1.391   4.724  16.434 -0.3949 -1.9944  0.3728
 4753TIP3   OH235673   2.280   6.412  11.588  0.2514  0.1406 -0.3103
 4753TIP3    H135674   2.224   6.418  11.510  1.0538  0.3567 -0.8817
 4753TIP3    H235675   2.219   6.415  11.662 -0.6830 -1.7188 -0.9392
 4754TIP3   OH235676   6.045   3.136   0.925 -0.7761 -0.1640  0.4299
 4754TIP3    H135677   5.955   3.118   0.900 -0.7586 -0.4516  0.5648
 4754TIP3    H235678   6.047   3.124   1.020 -0.5621 -0.3297  0.4085
 4755TIP3   OH235679   0.521   3.581   4.060  0.7328 -0.0949  0.1041
 4755TIP3    H135680   0.466   3.616   3.990  2.7556  1.1673 -0.9719
 4755TIP3    H235681   0.499   3.488   4.064 -1.2673  0.3224 -0.4158
 4756TIP3   OH235682   3.715   0.128  15.189 -0.4033  0.5478 -0.1621
 4756TIP3    H135683   3.794   0.176  15.215  0.1000 -0.9291  1.1608
 4756TIP3    H235684   3.645   0.193  15.196  0.5502  1.6615 -0.5340
 4757TIP3   OH235685   5.351   6.343  16.415 -0.5157 -0.1215  0.2756
 4757TIP3    H135686   5.355   6.254  16.450 -0.1837  0.7509  2.6862
 4757TIP3    H235687   5.442   6.373  16.419 -0.7075  0.4940 -0.0048
 4758TIP3   OH235688   2.862   2.622   1.419 -0.3003  0.1378  0.0950
 4758TIP3    H135689   2.813   2.575   1.487  0.5062 -0.3125  0.3754
 4758TIP3    H235690   2.853   2.566   1.341 -1.5108  0.8215 -0.2864
 4759TIP3   OH235691   2.661   0.017   1.677 -0.0188  0.1431 -0.6772
 4759TIP3    H135692   2.606  -0.057   1.700 -0.1026  0.0966 -1.0220
 4759TIP3    H235693   2.740   0.006   1.730 -0.1412 -0.0476 -0.5356
 4760TIP3   OH235694   5.884   2.083   1.599 -0.8023  0.1478  0.6295
 4760TIP3    H135695   5.899   2.047   1.512 -0.2499 -0.1694  0.8505
 4760TIP3    H235696   5.831   2.016   1.643 -0.9726  0.2498  0.5799
 4761TIP3   OH235697   5.031   4.205  15.495 -0.2421 -0.3613 -0.3534
 4761TIP3    H135698   4.980   4.207  15.577 -0.4978  1.0938 -0.5051
 4761TIP3    H235699   4.984   4.266  15.438  1.6215  0.9656 -0.5333
 4762TIP3   OH235700   0.719   0.724  14.816  0.0260  0.3973 -0.0532
 4762TIP3    H135701   0.716   0.815  14.846  1.2920  0.0767  1.1682
 4762TIP3    H235702   0.798   0.720  14.761 -0.2048  0.1050 -0.3694
 4763TIP3   OH235703   4.658   2.749  11.412 -0.0619  0.6339  0.4588
 4763TIP3    H135704   4.733   2.804  11.390 -1.0738  2.0783  0.4500
 4763TIP3    H235705   4.694   2.661  11.420  2.1097  1.6201  2.9579
 4764TIP3   OH235706   5.315   5.298  16.751  0.4371 -0.3317 -0.3081
 4764TIP3    H135707   5.231   5.309  16.795  1.0434 -0.6812  0.9498
 4764TIP3    H235708   5.306   5.216  16.703  0.4313 -0.9338  0.7015
 4765TIP3   OH235709   1.159   1.998   0.730  0.1479 -0.2185  0.1513
 4765TIP3    H135710   1.087   1.986   0.669  0.0808  1.6994 -0.2094
 4765TIP3    H235711   1.179   1.910   0.762  0.4458 -1.3795 -2.9118
 4766TIP3   OH235712   0.495   3.905  13.987  0.6150 -0.2735  0.2258
 4766TIP3    H135713   0.552   3.964  13.937  1.0687 -1.2229 -0.3864
 4766TIP3    H235714   0.407   3.943  13.976  1.0298  0.9253  0.7827
 4767TIP3   OH235715   5.896   3.798  17.478 -0.4257 -0.4357 -0.5059
 4767TIP3    H135716   5.958   3.745  17.428  1.0917  0.3102  0.5421
 4767TIP3    H235717   5.900   3.762  17.567  0.0016  0.8923  0.0272
 4768TIP3   OH235718   6.533   3.800   1.929 -0.8703  0.1378 -1.0678
 4768TIP3    H135719   6.505   3.712   1.953 -0.5659  0.3013 -0.0760
 4768TIP3    H235720   6.464   3.832   1.870 -1.7779 -0.1849 -0.1993
 4769TIP3   OH235721   4.881   4.512  15.205 -0.4112  0.1415  0.0520
 4769TIP3    H135722   4.802   4.457  15.207  0.1094 -0.6030  1.4026
 4769TIP3    H235723   4.941   4.465  15.148 -0.6190  0.2354 -0.2450
 4770TIP3   OH235724   0.564   3.489   5.558  0.0082 -0.2720  0.1676
 4770TIP3    H135725   0.653   3.508   5.588 -0.1605 -0.5377  0.8466
 4770TIP3    H235726   0.534   3.571   5.518  0.7984 -0.3843 -0.6916
 4771TIP3   OH235727   0.527   4.367   0.717  0.5577 -0.0163  0.3726
 4771TIP3    H135728   0.538   4.462   0.712  1.4779 -0.1220  0.3464
 4771TIP3    H235729   0.459   4.348   0.652  0.4862  0.5964  0.2599
 4772TIP3   OH235730   4.270   4.212  12.645  0.1130  0.4538 -0.0651
 4772TIP3    H135731   4.183   4.243  12.673  0.0096 -0.8400  1.1511
 4772TIP3    H235732   4.305   4.284  12.592 -1.6013  1.0996 -0.3993
 4773TIP3   OH235733   5.430   4.496   4.775 -0.0662  0.2706 -0.0261
 4773TIP3    H135734   5.481   4.433   4.825  0.1728  0.5825  0.1301
 4773TIP3    H235735   5.476   4.503   4.691 -1.7116 -1.9348 -1.2000
 4774TIP3   OH235736   1.019   3.300   5.551 -0.0662  0.0690 -0.3892
 4774TIP3    H135737   1.110   3.280   5.527 -0.0799  0.8306 -1.1157
 4774TIP3    H235738   1.007   3.258   5.636  0.9566 -0.0610 -0.2962
 4775TIP3   OH235739   0.527   5.265   3.045  0.1478 -0.6771  0.1573
 4775TIP3    H135740   0.562   5.282   2.957  1.8246  1.2543  1.0924
 4775TIP3    H235741   0.456   5.329   3.055 -0.0137 -0.8662  0.2279
 4776TIP3   OH235742   1.497   2.054   2.008 -0.7899  0.3683  0.1473
 4776TIP3    H135743   1.434   2.121   1.984 -1.5846  0.1351  1.4473
 4776TIP3    H235744   1.461   2.015   2.088  0.1997 -0.8607  0.0326
 4777TIP3   OH235745   6.561   4.517   4.129 -0.1171 -0.3147  0.6648
 4777TIP3    H135746   6.539   4.430   4.096  1.3979 -0.3814 -0.2881
 4777TIP3    H235747   6.657   4.516   4.137 -0.1689  0.8826  1.7498
 4778TIP3   OH235748   3.612   0.883   4.346 -0.2419  0.0381 -0.1882
 4778TIP3    H135749   3.545   0.872   4.413 -1.2851  1.5008 -0.9221
 4778TIP3    H235750   3.618   0.797   4.304 -0.0623 -0.7063  1.2982
 4779TIP3   OH235751   1.961   5.546   3.025 -0.2555 -0.1738  0.4618
 4779TIP3    H135752   1.881   5.598   3.026 -1.3014 -1.6785 -0.7968
 4779TIP3    H235753   2.030   5.609   3.002 -1.1285  1.0618  1.1369
 4780TIP3   OH235754   4.870   6.549  16.970  0.0664  0.1560  0.7587
 4780TIP3    H135755   4.778   6.575  16.979 -0.2867 -0.4397 -0.7873
 4780TIP3    H235756   4.865   6.455  16.950  1.0456  0.0176  1.1415
 4781TIP3   OH235757   2.538   4.639   0.567  0.4403 -0.4019 -0.5377
 4781TIP3    H135758   2.524   4.683   0.483  0.0683  3.0227  1.1761
 4781TIP3    H235759   2.452   4.639   0.609  1.4133  2.3336  1.7234
 4782TIP3   OH235760   4.654   0.599  10.694 -0.1188 -0.3042 -0.1669
 4782TIP3    H135761   4.723   0.557  10.745  0.1484  0.0091 -0.2708
 4782TIP3    H235762   4.684   0.689  10.681  0.0609 -0.5165 -1.3301
 4783TIP3   OH235763   3.735   1.186  17.568  0.4052  0.3411  0.0703
 4783TIP3    H135764   3.705   1.211  17.481 -0.9757 -0.1733  0.3730
 4783TIP3    H235765   3.656   1.182  17.621  0.8289 -2.1872  0.6519
 4784TIP3   OH235766   0.591   0.629  11.104 -0.0231 -0.4809 -0.0534
 4784TIP3    H135767   0.605   0.690  11.176 -0.2945 -1.8703  1.2304
 4784TIP3    H235768   0.669   0.639  11.049  1.0409 -0.5847  1.3539
 4785TIP3   OH235769   0.165   6.080  10.877 -0.1610 -0.0009  0.1578
 4785TIP3    H135770   0.130   5.991  10.886  0.0023  0.0877  2.1331
 4785TIP3    H235771   0.260   6.068  10.875 -0.1561  0.0903 -0.4638
 4786TIP3   OH235772   6.490   4.664   1.777 -0.0216 -0.0394 -0.3372
 4786TIP3    H135773   6.430   4.620   1.717 -0.1482 -0.0969 -0.1690
 4786TIP3    H235774   6.574   4.622   1.762 -0.3333 -0.9828  0.4786
 4787TIP3   OH235775   4.974   2.442  14.955 -0.1406  0.5637 -0.3530
 4787TIP3    H135776   5.001   2.511  15.016  0.7818 -1.0356  1.1470
 4787TIP3    H235777   4.885   2.421  14.981  0.2373 -0.0880  0.4788
 4788TIP3   OH235778   0.299   4.624  15.508 -0.5032 -0.6329  0.2939
 4788TIP3    H135779   0.361   4.579  15.566  2.7658 -0.9686 -3.0764
 4788TIP3    H235780   0.320   4.592  15.420 -3.1963  1.8850 -1.4583
 4789TIP3   OH235781   0.224   0.714  10.909  0.0968  0.2838  0.6367
 4789TIP3    H135782   0.254   0.803  10.890  3.3675 -1.3426 -3.2901
 4789TIP3    H235783   0.158   0.696  10.843 -0.6542 -0.2491  1.4980
 4790TIP3   OH235784   4.483   1.151  12.654  0.4778  0.6360  0.4924
 4790TIP3    H135785   4.438   1.219  12.705  0.8372  0.0697  1.6046
 4790TIP3    H235786   4.572   1.184  12.644  0.8444  0.0538  1.6299
 4791TIP3   OH235787   6.454   3.932   4.417  0.0182 -0.4164  0.3277
 4791TIP3    H135788   6.475   3.906   4.328  1.1243  0.3305  0.3578
 4791TIP3    H235789   6.416   4.019   4.409 -1.4156 -1.0000  0.4549
 4792TIP3   OH235790   5.249   3.697   2.996 -0.8888  0.4294  0.2356
 4792TIP3    H135791   5.308   3.731   3.064  1.2821 -1.3100 -0.6501
 4792TIP3    H235792   5.225   3.610   3.027  2.1961 -1.4994 -2.1606
 4793TIP3   OH235793   1.407   0.585  17.129 -0.0189 -0.1200 -0.1106
 4793TIP3    H135794   1.423   0.661  17.185  1.6544  0.5656 -1.4169
 4793TIP3    H235795   1.361   0.621  17.053  2.3071 -0.0026 -1.5545
 4794TIP3   OH235796   1.510   4.092   2.096 -0.6930  0.6749  0.4851
 4794TIP3    H135797   1.549   4.179   2.088 -0.6029  0.5383 -0.7381
 4794TIP3    H235798   1.573   4.042   2.149  1.3128  0.2112 -2.1196
 4795TIP3   OH235799   4.495   5.617  15.051 -0.1944  0.0331  0.1195
 4795TIP3    H135800   4.489   5.685  14.983 -0.4976 -1.4378 -1.3860
 4795TIP3    H235801   4.423   5.636  15.110 -1.2875  0.0953 -1.1909
 4796TIP3   OH235802   1.179   4.646  12.332 -0.3547 -0.1991  0.5700
 4796TIP3    H135803   1.134   4.731  12.339  0.8762  0.5457 -0.1701
 4796TIP3    H235804   1.174   4.624  12.239 -1.0747 -1.1854  0.8322
 4797TIP3   OH235805   6.205   4.910   3.747 -0.2046  0.2103  0.2304
 4797TIP3    H135806   6.244   4.917   3.834  2.1602 -0.4770 -0.7023
 4797TIP3    H235807   6.121   4.866   3.762  0.2659 -0.1314  2.1317
 4798TIP3   OH235808   1.459   4.113  15.612  0.1721 -0.3958  0.6855
 4798TIP3    H135809   1.530   4.090  15.672  0.4760  1.0366  0.9057
 4798TIP3    H235810   1.390   4.147  15.670 -0.2242 -0.6496  0.3674
 4799TIP3   OH235811   4.094   1.500  15.072  0.4704  0.1012  0.4915
 4799TIP3    H135812   4.116   1.475  14.982 -0.5544 -2.1475  0.8005
 4799TIP3    H235813   4.176   1.530  15.110  1.3645 -0.8852 -0.5990
 4800TIP3   OH235814   4.091   1.867   2.158 -0.1526 -0.3368  0.3356
 4800TIP3    H135815   4.062   1.799   2.219  0.4329  1.9541  3.4054
 4800TIP3    H235816   4.183   1.882   2.180  0.0860  0.6079 -1.1178
 4801TIP3   OH235817   1.402   3.486   1.799  0.4476  0.1536  0.1836
 4801TIP3    H135818   1.337   3.429   1.840  0.6036  0.4679  0.8758
 4801TIP3    H235819   1.372   3.575   1.818 -0.0670  0.3318 -1.3118
 4802TIP3   OH235820   6.164   6.652  11.365 -1.1534  0.0566 -0.2331
 4802TIP3    H135821   6.187   6.614  11.450 -0.8394 -0.3112 -0.4762
 4802TIP3    H235822   6.098   6.592  11.330  0.7928 -1.4946 -1.5173
 4803TIP3   OH235823   1.489   6.513  12.743  0.0242 -0.2533 -0.3766
 4803TIP3    H135824   1.397   6.538  12.753  0.6081  1.5735  0.8347
 4803TIP3    H235825   1.507   6.456  12.817  0.7286  2.2436  1.4995
 4804TIP3   OH235826   5.230   3.551  12.134 -0.2367 -0.6415 -0.1223
 4804TIP3    H135827   5.289   3.479  12.108  0.7064  0.2854 -0.6533
 4804TIP3    H235828   5.196   3.584  12.051  1.1655  0.9991 -0.1119
 4805TIP3   OH235829   5.605   2.948  16.621  0.1704 -0.9238  0.8727
 4805TIP3    H135830   5.600   2.915  16.531 -0.7221  0.0491  0.5463
 4805TIP3    H235831   5.698   2.966  16.634 -0.0113  2.6951 -1.3315
 4806TIP3   OH235832   5.263   2.271   2.432 -0.2281  0.2619 -0.1110
 4806TIP3    H135833   5.212   2.262   2.351  0.4446 -0.2494 -0.4879
 4806TIP3    H235834   5.228   2.202   2.489  0.5126 -0.5670 -0.6334
 4807TIP3   OH235835   4.989   3.940   5.733  0.1844  0.4763  0.5139
 4807TIP3    H135836   4.933   3.985   5.670  0.5945 -0.1952 -0.3616
 4807TIP3    H235837   5.053   4.005   5.760 -0.9913  1.2577  1.5307
 4808TIP3   OH235838   0.205   4.909  11.855  0.5253  0.3296 -0.4593
 4808TIP3    H135839   0.272   4.945  11.913 -0.6597  0.4533  0.9019
 4808TIP3    H235840   0.128   4.964  11.871 -0.6140 -1.2759 -0.1463
 4809TIP3   OH235841   3.645   6.130   6.390  0.2317 -0.2896 -0.5840
 4809TIP3    H135842   3.592   6.080   6.328  0.0619  0.2073 -0.8399
 4809TIP3    H235843   3.589   6.202   6.417 -0.2617 -1.3130  1.3004
 4810TIP3   OH235844   6.151   3.788  15.122  0.0112  0.6890 -0.5479
 4810TIP3    H135845   6.230   3.745  15.088 -0.3586 -0.8068  0.4168
 4810TIP3    H235846   6.092   3.792  15.046 -0.0389 -0.7625 -0.6058
 4811TIP3   OH235847   5.077   5.393   2.993  0.1185 -0.2997  0.6510
 4811TIP3    H135848   5.071   5.298   3.007  2.1227 -0.3278  1.7347
 4811TIP3    H235849   5.155   5.404   2.938 -2.0167  0.5588 -2.4732
 4812TIP3   OH235850   2.196   1.354   3.091 -0.0051 -0.0649 -1.3457
 4812TIP3    H135851   2.291   1.362   3.086  0.2129 -0.5623  0.8652
 4812TIP3    H235852   2.168   1.432   3.140 -0.5574 -0.6432 -0.7164
 4813TIP3   OH235853   0.769   5.971  11.230  0.1216 -0.1582  0.3620
 4813TIP3    H135854   0.758   6.057  11.189  4.1298  0.3286 -0.1061
 4813TIP3    H235855   0.800   5.915  11.159 -0.6586 -1.5067  1.0630
 4814TIP3   OH235856   4.863   1.976   2.891 -0.2232  0.5781 -0.1406
 4814TIP3    H135857   4.900   1.970   2.978  0.2707  0.9160 -0.3242
 4814TIP3    H235858   4.786   1.919   2.893 -1.1686  1.8363  1.0126
 4815TIP3   OH235859   5.044   3.447  16.541 -0.4349 -0.2841  0.0565
 4815TIP3    H135860   5.121   3.395  16.566  0.3471  0.3892 -0.9016
 4815TIP3    H235861   5.006   3.475  16.624  1.2354  0.6369  0.5485
 4816TIP3   OH235862   6.480   5.408  14.245  0.7784 -0.6647  0.1932
 4816TIP3    H135863   6.568   5.425  14.210  0.5980 -0.8658 -0.3672
 4816TIP3    H235864   6.486   5.320  14.282  0.2915 -1.4728 -1.5890
 4817TIP3   OH235865   6.486   2.153   1.548  0.8150  0.0178  0.4338
 4817TIP3    H135866   6.409   2.189   1.503  0.0141 -0.4718  1.3514
 4817TIP3    H235867   6.497   2.066   1.511  1.3221  0.3309 -0.1504
 4818TIP3   OH235868   2.328   4.000   0.245 -0.3090 -0.3844 -0.1936
 4818TIP3    H135869   2.274   4.060   0.296  2.3854  1.5938  0.4930
 4818TIP3    H235870   2.341   3.925   0.303 -0.5241  0.0648  0.4418
 4819TIP3   OH235871   3.194   6.304  16.910 -0.3543 -0.1992 -0.0642
 4819TIP3    H135872   3.234   6.382  16.871 -1.2455 -0.5088 -1.7208
 4819TIP3    H235873   3.267   6.246  16.930  0.4119  1.4231  2.1483
 4820TIP3   OH235874   3.205   0.077  12.184 -0.3206  0.2376  0.3853
 4820TIP3    H135875   3.136   0.075  12.118 -0.6883  1.2968  0.7242
 4820TIP3    H235876   3.256   0.155  12.164  1.7474 -1.2980 -0.7880
 4821TIP3   OH235877   3.533   0.067  11.843 -0.6458 -0.0542 -0.1079
 4821TIP3    H135878   3.501   0.157  11.838  1.9488  0.9187 -0.9303
 4821TIP3    H235879   3.550   0.043  11.752  1.0897 -0.3837  0.2643
 4822TIP3   OH235880   0.362   2.362   4.642  0.0600 -0.1444  0.7144
 4822TIP3    H135881   0.426   2.375   4.712 -0.7473 -2.2165  1.9358
 4822TIP3    H235882   0.414   2.340   4.565  0.9446  1.6320  0.7737
 4823TIP3   OH235883   4.861   3.054   0.129  0.3674  0.2999 -0.4337
 4823TIP3    H135884   4.881   3.134   0.177 -0.9220  1.0260 -1.0547
 4823TIP3    H235885   4.921   3.055   0.054 -0.4030  1.2903 -1.0632
 4824TIP3   OH235886   5.064   4.215  13.750 -0.1339  0.0209  0.1742
 4824TIP3    H135887   5.091   4.131  13.787  0.7058 -0.2901 -1.0678
 4824TIP3    H235888   5.122   4.228  13.675 -0.0457  1.8673  0.5142
 4825TIP3   OH235889   5.690   1.977   0.064 -0.3614  0.5037 -0.1237
 4825TIP3    H135890   5.682   2.068   0.033 -1.0707  0.6485  0.4490
 4825TIP3    H235891   5.650   1.925  -0.006  1.4066  0.4610 -1.1768
 4826TIP3   OH235892   4.339   1.911  17.614  0.2385  0.1287 -0.2944
 4826TIP3    H135893   4.265   1.855  17.637  0.1662  0.3371 -0.0169
 4826TIP3    H235894   4.322   1.994  17.658  0.1902  0.4791 -0.9548
 4827TIP3   OH235895   6.065   4.391  15.904 -0.3477 -0.3740 -0.1519
 4827TIP3    H135896   5.998   4.337  15.945 -0.6159 -0.4278 -0.6539
 4827TIP3    H235897   6.147   4.348  15.926 -0.4954 -0.4839  0.2015
 4828TIP3   OH235898   6.292   4.474  15.272 -0.2631  0.5665  0.1131
 4828TIP3    H135899   6.298   4.425  15.191  0.4667  3.0666 -1.4579
 4828TIP3    H235900   6.310   4.409  15.341 -1.2692 -1.6976 -1.6349
 4829TIP3   OH235901   4.354   5.143   3.121 -0.2200 -0.3946 -0.0640
 4829TIP3    H135902   4.358   5.092   3.201  0.5993  1.2535  1.0098
 4829TIP3    H235903   4.262   5.169   3.113  0.0215  1.2565  1.6241
 4830TIP3   OH235904   4.277   4.422   4.739  0.4770 -0.7709 -0.1288
 4830TIP3    H135905   4.313   4.509   4.720 -0.8672 -0.0795  0.3330
 4830TIP3    H235906   4.289   4.373   4.658 -0.0795  0.3379 -0.9165
 4831TIP3   OH235907   5.171   4.870   3.116  0.1233  0.8548  0.7290
 4831TIP3    H135908   5.260   4.849   3.091 -0.0989  1.0702 -0.2712
 4831TIP3    H235909   5.179   4.915   3.200  0.8408 -0.3223  1.3128
 4832TIP3   OH235910   5.420   5.991  15.282 -0.2643  0.0021 -0.1574
 4832TIP3    H135911   5.501   6.035  15.307 -0.5730  0.1489  0.6270
 4832TIP3    H235912   5.390   6.036  15.204 -0.1640  0.6769  0.1906
 4833TIP3   OH235913   1.408   3.841  11.976  0.6697 -0.1766 -0.2428
 4833TIP3    H135914   1.345   3.912  11.989 -0.4469 -1.0133 -0.9269
 4833TIP3    H235915   1.435   3.816  12.065  0.3425  0.4573  0.0414
 4834TIP3   OH235916   1.685   4.083  15.737  0.1940  0.0333  0.5261
 4834TIP3    H135917   1.749   4.021  15.705  0.3197 -0.2115  1.2307
 4834TIP3    H235918   1.684   4.071  15.832  0.6088  1.4755  0.7413
 4835TIP3   OH235919   4.305   5.633   3.236  0.1714  0.5075  0.0090
 4835TIP3    H135920   4.210   5.627   3.242  0.1733  0.3679 -0.1008
 4835TIP3    H235921   4.322   5.668   3.148  0.1817  1.5439  0.4166
 4836TIP3   OH235922   1.399   1.687   1.563 -0.8553  0.6398 -0.0584
 4836TIP3    H135923   1.375   1.780   1.563  0.2912  0.9499 -0.7373
 4836TIP3    H235924   1.348   1.650   1.635 -0.6411  1.9709  0.8179
 4837TIP3   OH235925   0.591   6.262  11.675  0.2657  0.0573 -0.1510
 4837TIP3    H135926   0.613   6.171  11.694 -0.4169 -0.0171  0.3439
 4837TIP3    H235927   0.497   6.259  11.654  0.5666  0.4169 -1.7158
 4838TIP3   OH235928   0.385   4.813   4.916 -0.2136  1.5848  0.0536
 4838TIP3    H135929   0.459   4.870   4.896  1.9397 -0.5938  1.3502
 4838TIP3    H235930   0.403   4.731   4.871 -1.6065  0.8324  0.7759
 4839TIP3   OH235931   5.406   1.773  15.228 -0.3071  0.2132  0.1582
 4839TIP3    H135932   5.422   1.679  15.242  0.3079  0.5542  2.0149
 4839TIP3    H235933   5.311   1.780  15.225 -0.3561 -0.5130 -0.3446
 4840TIP3   OH235934   2.945   6.582  17.536 -0.1694 -0.1405  0.1189
 4840TIP3    H135935   2.884   6.572  17.463 -1.8148 -1.0831  1.5511
 4840TIP3    H235936   2.898   6.547  17.612  2.3928 -1.5044  1.2022
 4841TIP3   OH235937   5.643   1.038   0.840  0.2696 -0.0589 -0.3760
 4841TIP3    H135938   5.646   0.950   0.876 -2.2218  0.0547  0.3272
 4841TIP3    H235939   5.733   1.069   0.841  0.9825 -2.0561  0.7148
 4842TIP3   OH235940   1.714   0.582  12.663 -0.0699 -0.2381  0.3666
 4842TIP3    H135941   1.712   0.642  12.588  0.2939  0.8893  1.2351
 4842TIP3    H235942   1.723   0.495  12.623 -0.3792  0.2912 -0.9119
 4843TIP3   OH235943   6.118   5.524   0.252 -0.0723  0.1361 -0.1701
 4843TIP3    H135944   6.105   5.503   0.344  0.0670  1.9053  0.2957
 4843TIP3    H235945   6.182   5.595   0.252  0.4283 -0.2621 -1.6839
 4844TIP3   OH235946   2.118   2.055   5.297 -0.3437  0.3746  0.1116
 4844TIP3    H135947   2.206   2.022   5.316 -0.7571 -0.9614 -0.1764
 4844TIP3    H235948   2.072   2.050   5.381  0.0422  1.7810  0.4370
 4845TIP3   OH235949   5.461   2.800  14.913 -0.0733 -0.3933  0.5569
 4845TIP3    H135950   5.457   2.706  14.898  0.7665 -0.4433  0.6089
 4845TIP3    H235951   5.439   2.839  14.828  0.5225 -0.6486  0.2778
 4846TIP3   OH235952   3.759   5.262   5.167 -0.6789 -0.0288 -0.2144
 4846TIP3    H135953   3.785   5.354   5.173 -0.6938  0.2406 -3.0686
 4846TIP3    H235954   3.841   5.214   5.157 -0.7592 -0.1583 -0.2549
 4847TIP3   OH235955   4.846   6.170  17.629  0.1673  0.2168  0.2908
 4847TIP3    H135956   4.937   6.193  17.645 -0.1031  0.5817  1.3740
 4847TIP3    H235957   4.796   6.246  17.660 -0.5854 -0.6206  1.1807
 4848TIP3   OH235958   3.275   6.186   0.661 -0.2225  0.1729  0.2112
 4848TIP3    H135959   3.317   6.164   0.578  1.1772  0.4100  0.8193
 4848TIP3    H235960   3.327   6.140   0.727 -0.3107  1.2707  1.0849
 4849TIP3   OH235961   2.433   5.476  15.927  0.0060 -0.8455 -0.1229
 4849TIP3    H135962   2.375   5.407  15.894 -0.0879 -0.5720 -0.5406
 4849TIP3    H235963   2.394   5.503  16.009 -0.4297 -0.6982 -0.3791
 4850TIP3   OH235964   1.710   4.522   3.077  0.9889 -0.0884  0.3263
 4850TIP3    H135965   1.698   4.549   2.986  3.1422  0.0871  0.0574
 4850TIP3    H235966   1.689   4.600   3.128 -0.3640 -0.2247  0.0348
 4851TIP3   OH235967   4.751   2.387   0.724 -0.1523  0.6164 -0.1857
 4851TIP3    H135968   4.779   2.458   0.783  0.9959  0.8126 -0.9340
 4851TIP3    H235969   4.779   2.307   0.768  0.1500  0.7275 -0.1765
 4852TIP3   OH235970   5.605   1.286   1.354  0.3078 -0.3664  0.1736
 4852TIP3    H135971   5.602   1.360   1.294  0.9542 -0.6819 -0.2676
 4852TIP3    H235972   5.520   1.286   1.397  0.0634  0.2355 -0.2944
 4853TIP3   OH235973   5.215   6.345   0.605  0.1373  0.0061 -0.3901
 4853TIP3    H135974   5.152   6.397   0.654 -1.0476 -0.4824 -1.3168
 4853TIP3    H235975   5.245   6.278   0.666  0.0993  0.5217  0.1943
 4854TIP3   OH235976   4.945   4.079  12.394  0.7465  0.1351  0.0336
 4854TIP3    H135977   4.863   4.038  12.368  0.8907  0.8594 -1.7162
 4854TIP3    H235978   4.970   4.035  12.475 -0.6636 -1.0439 -0.1393
 4855TIP3   OH235979   3.689   1.234  12.971  0.9696  0.1527  0.6225
 4855TIP3    H135980   3.633   1.159  12.952  1.3892  0.0681 -0.3612
 4855TIP3    H235981   3.633   1.310  12.959  1.4070  0.1472 -1.8984
 4856TIP3   OH235982   0.025   1.748  12.811 -0.2533  0.0449 -0.0367
 4856TIP3    H135983   0.071   1.733  12.729  1.4760  1.3042  0.6566
 4856TIP3    H235984  -0.057   1.698  12.802  0.2005 -0.3930 -2.2149
 4857TIP3   OH235985   3.399   5.398  11.531 -0.3502  0.6322  0.2553
 4857TIP3    H135986   3.467   5.460  11.559 -0.6146  0.8133  0.5000
 4857TIP3    H235987   3.354   5.373  11.611 -0.1570  0.0076  0.1752
 4858TIP3   OH235988   6.384   5.736  16.955  0.2044  0.0190 -0.2892
 4858TIP3    H135989   6.451   5.755  17.020 -0.6989  1.8535  0.1982
 4858TIP3    H235990   6.383   5.814  16.899 -1.6329  0.1611 -0.1275
 4859TIP3   OH235991   2.132   3.610  16.220  0.1441 -0.0213  0.3542
 4859TIP3    H135992   2.064   3.676  16.232 -0.3222 -0.3626 -0.3635
 4859TIP3    H235993   2.163   3.591  16.309 -0.9156 -0.0987  0.7127
 4860TIP3   OH235994   3.100   0.764  16.514  0.5197  0.4299 -0.2951
 4860TIP3    H135995   3.058   0.785  16.431  0.0489 -1.0116 -0.4642
 4860TIP3    H235996   3.032   0.780  16.580 -0.8095 -2.8851 -0.6564
 4861TIP3   OH235997   3.991   5.572  15.710 -0.6570 -0.2618  0.6847
 4861TIP3    H135998   4.017   5.579  15.618 -1.7623  0.3522  0.3925
 4861TIP3    H235999   3.949   5.487  15.717  0.8841 -1.0204  1.0301
 4862TIP3   OH236000   5.335   3.426  11.209 -0.0838  0.3212 -0.0592
 4862TIP3    H136001   5.287   3.503  11.181  0.5895  0.7901  0.0393
 4862TIP3    H236002   5.407   3.461  11.262  1.4847 -0.2055 -1.7529
 4863TIP3   OH236003   2.843   5.157  15.745  0.1750  0.3466  0.7543
 4863TIP3    H136004   2.880   5.186  15.662  0.8886 -0.5327  0.7474
 4863TIP3    H236005   2.843   5.062  15.739  0.6309  0.2582  1.9283
 4864TIP3   OH236006   2.645   5.683  14.634 -0.1109 -0.0663  0.6684
 4864TIP3    H136007   2.704   5.671  14.559 -1.0270  0.0417 -0.0879
 4864TIP3    H236008   2.704   5.694  14.709  0.8488  0.6864 -0.1574
 4865TIP3   OH236009   1.888   2.752   6.160 -0.3968 -0.0789  0.2110
 4865TIP3    H136010   1.887   2.688   6.231 -0.1460 -0.3319 -0.0073
 4865TIP3    H236011   1.857   2.833   6.199 -3.0448 -0.8904 -0.0503
 4866TIP3   OH236012   3.707   1.295  16.467  0.0851 -0.3584  0.8109
 4866TIP3    H136013   3.748   1.304  16.381 -2.6376 -0.0482 -0.5764
 4866TIP3    H236014   3.719   1.203  16.489 -0.3874 -0.7997 -0.6225
 4867TIP3   OH236015   1.241   4.842  14.228  0.0956 -0.7504  0.1555
 4867TIP3    H136016   1.291   4.813  14.151 -0.4501  0.6581 -0.7655
 4867TIP3    H236017   1.295   4.912  14.265 -1.1190  0.7683 -0.8342
 4868TIP3   OH236018   2.122   3.829   3.578 -0.2092 -0.2575  0.2592
 4868TIP3    H136019   2.026   3.827   3.574 -0.3679  1.9690  1.1124
 4868TIP3    H236020   2.150   3.759   3.519 -2.3476  0.1716 -1.4326
 4869TIP3   OH236021   3.446   3.029  16.201 -0.2003 -0.4392 -0.2169
 4869TIP3    H136022   3.522   3.084  16.186 -0.1408 -0.9238 -1.8042
 4869TIP3    H236023   3.482   2.947  16.235 -0.1750 -0.0601  0.7084
 4870TIP3   OH236024   3.938   1.227  12.759  0.0339  0.0478  0.5836
 4870TIP3    H136025   3.883   1.210  12.835 -0.7281  0.3716  0.1091
 4870TIP3    H236026   3.902   1.172  12.690  1.7560 -1.5556  0.8724
 4871TIP3   OH236027   2.540   3.344   1.662  0.1730 -0.1029  0.7071
 4871TIP3    H136028   2.480   3.410   1.695  1.5749  1.8410 -0.4275
 4871TIP3    H236029   2.496   3.308   1.585  0.0080  0.5886  0.4696
 4872TIP3   OH236030   1.023   4.854  15.223  0.1147  0.4365  0.2273
 4872TIP3    H136031   1.005   4.929  15.166 -0.8250 -0.8128 -1.2102
 4872TIP3    H236032   1.115   4.835  15.209  0.5530  1.7138  1.1466
 4873TIP3   OH236033   1.207   3.485   2.665  0.3042  0.3834 -0.5806
 4873TIP3    H136034   1.285   3.539   2.681  1.0841 -0.1269 -2.3784
 4873TIP3    H236035   1.200   3.430   2.743  1.2589  1.0173 -0.0189
 4874TIP3   OH236036   3.067   0.494   3.143 -0.1771 -0.0835  0.3050
 4874TIP3    H136037   3.145   0.441   3.159  0.8609  1.2067 -0.2104
 4874TIP3    H236038   3.027   0.505   3.229  1.7266  1.4356  1.0645
 4875TIP3   OH236039   5.958   4.244   1.930 -0.1218 -0.9213 -0.0779
 4875TIP3    H136040   5.928   4.230   2.020  0.9689  1.5912  0.7816
 4875TIP3    H236041   5.880   4.270   1.882 -0.1549  1.5414  1.1450
 4876TIP3   OH236042   2.066   3.426   3.690 -0.4564  0.2941 -0.2120
 4876TIP3    H136043   2.016   3.429   3.771 -0.0666  5.1694  0.1474
 4876TIP3    H236044   2.000   3.424   3.621 -1.0231  1.4328  0.2700
 4877TIP3   OH236045   6.062   5.052   2.794 -0.1917 -0.8741 -0.2289
 4877TIP3    H136046   6.047   4.961   2.767  0.7254 -1.5132  1.2603
 4877TIP3    H236047   6.072   5.047   2.889  3.2240  0.2211 -0.3890
 4878TIP3   OH236048   5.603   0.520   4.494 -0.1545  0.2805 -0.3042
 4878TIP3    H136049   5.544   0.445   4.502  0.1877 -0.0533 -0.8667
 4878TIP3    H236050   5.623   0.525   4.401  2.2123 -0.7891  0.0747
 4879TIP3   OH236051   5.551   0.330   3.361 -0.3810 -0.3481 -0.0270
 4879TIP3    H136052   5.471   0.290   3.327  0.6774 -1.6403 -1.0885
 4879TIP3    H236053   5.584   0.382   3.289  0.0580 -0.3138  0.1976
 4880TIP3   OH236054   4.284   6.557   0.157 -0.3045 -0.3242  0.3406
 4880TIP3    H136055   4.287   6.572   0.062  1.4288 -1.3228  0.1959
 4880TIP3    H236056   4.250   6.468   0.167 -1.7168  0.2309  0.7531
 4881TIP3   OH236057   1.367   5.275   1.835  0.4392 -0.3372  0.0289
 4881TIP3    H136058   1.445   5.259   1.783  0.6132 -1.2128  0.5400
 4881TIP3    H236059   1.296   5.231   1.788  0.2281  0.5215 -0.4746
 4882TIP3   OH236060   1.506   4.106   3.063 -0.1557 -0.4049 -0.5571
 4882TIP3    H136061   1.492   4.200   3.069  0.3437 -0.2235 -1.9103
 4882TIP3    H236062   1.422   4.068   3.091 -0.2164  0.4038  0.4374
 4883TIP3   OH236063   5.656   0.959  15.988 -0.3344 -0.0489  0.2708
 4883TIP3    H136064   5.658   1.050  15.958 -0.4980 -0.1235  0.0306
 4883TIP3    H236065   5.573   0.951  16.035 -0.2699 -0.0441  0.3842
 4884TIP3   OH236066   4.992   1.763  11.207  0.5340  0.2986 -0.6516
 4884TIP3    H136067   5.019   1.849  11.239  0.6755 -0.0154  0.1112
 4884TIP3    H236068   5.036   1.701  11.266  0.4873 -0.2936 -1.2359
 4885TIP3   OH236069   3.687   0.979   2.815  0.0249 -0.3709 -0.1281
 4885TIP3    H136070   3.705   0.894   2.776 -0.4718 -0.5333 -0.0102
 4885TIP3    H236071   3.661   0.959   2.905 -0.2352 -0.1069 -0.1413
 4886TIP3   OH236072   3.336   1.911   4.818  0.3019 -0.0283  0.6473
 4886TIP3    H136073   3.245   1.940   4.808  0.4512  0.1708 -0.2666
 4886TIP3    H236074   3.329   1.820   4.847 -0.3515 -1.8470 -4.2508
 4887TIP3   OH236075   3.683   4.021   6.379  0.0948  0.5538 -0.2466
 4887TIP3    H136076   3.596   4.021   6.417 -0.2191 -2.2481 -0.7507
 4887TIP3    H236077   3.742   4.029   6.454 -0.5631  0.7699  0.2592
 4888TIP3   OH236078   5.117   4.876   4.133  0.3614 -0.1250  0.3360
 4888TIP3    H136079   5.085   4.829   4.056 -0.3953 -0.3000  0.7475
 4888TIP3    H236080   5.159   4.954   4.097  1.4092 -0.9755 -0.3387
 4889TIP3   OH236081   2.374   6.412  12.239 -0.3584 -0.7047  0.2878
 4889TIP3    H136082   2.408   6.371  12.160 -1.4278  0.7639 -0.9886
 4889TIP3    H236083   2.452   6.429  12.293  0.7879  0.9204 -1.7370
 4890TIP3   OH236084   0.851   4.502  13.321 -0.6394 -0.2621 -0.0755
 4890TIP3    H136085   0.913   4.436  13.352  0.8808  1.0448 -0.1632
 4890TIP3    H236086   0.829   4.553  13.399  0.8929  1.2051 -0.5443
 4891TIP3   OH236087   0.117   1.466  12.328 -0.2954  0.2724 -0.3427
 4891TIP3    H136088   0.103   1.542  12.271 -0.1145  0.0273 -0.7178
 4891TIP3    H236089   0.029   1.436  12.349 -0.3639  0.2357 -0.6723
 4892TIP3   OH236090   0.089   0.292   4.460 -0.1082  0.1784  0.1902
 4892TIP3    H136091   0.165   0.234   4.452 -1.2307 -1.5876  1.5197
 4892TIP3    H236092   0.040   0.277   4.379 -0.1295 -0.3373  0.2968
 4893TIP3   OH236093   0.569   4.175  15.198 -0.3210 -0.0634 -0.1792
 4893TIP3    H136094   0.514   4.198  15.124 -1.0353 -1.4265 -0.1087
 4893TIP3    H236095   0.625   4.252  15.212 -2.9935  1.8779  0.4929
 4894TIP3   OH236096   1.158   4.229  15.430 -0.4593  0.0843 -0.0400
 4894TIP3    H136097   1.184   4.311  15.472  0.3172 -0.8327  1.3247
 4894TIP3    H236098   1.239   4.194  15.392 -0.5417 -0.6197  0.4105
 4895TIP3   OH236099   1.599   0.149   1.359  0.2065 -0.7092  0.4464
 4895TIP3    H136100   1.508   0.174   1.346 -0.5448 -3.1806  0.3948
 4895TIP3    H236101   1.649   0.224   1.327 -1.7817  0.8717  0.8294
 4896TIP3   OH236102   4.223   6.340   1.200 -0.1730  0.2915  0.2441
 4896TIP3    H136103   4.223   6.259   1.149 -1.4100  0.4492 -0.0274
 4896TIP3    H236104   4.263   6.405   1.142 -0.0758  0.1050  0.1003
 4897TIP3   OH236105   0.984   2.657   6.236  0.4627 -0.1603  0.3545
 4897TIP3    H136106   0.954   2.735   6.189 -0.9770 -1.2611 -0.6146
 4897TIP3    H236107   0.923   2.650   6.310  0.9436 -0.0670  0.7659
 4898TIP3   OH236108   1.585   4.761   1.580  0.1913  0.7755 -0.0503
 4898TIP3    H136109   1.558   4.671   1.599  0.1078  1.1330  1.7526
 4898TIP3    H236110   1.679   4.762   1.596  0.3747  0.7721 -1.0978
 4899TIP3   OH236111   6.369   1.019  14.477  0.2601  0.0150  0.1526
 4899TIP3    H136112   6.314   0.979  14.544  0.9739 -1.3114 -0.0314
 4899TIP3    H236113   6.453   0.975  14.485  0.9242  1.1319 -0.4129
 4900TIP3   OH236114   5.170   2.676  15.017 -0.3631 -0.6434 -0.5018
 4900TIP3    H136115   5.168   2.721  15.101  1.0432 -1.2945 -0.0918
 4900TIP3    H236116   5.127   2.736  14.957 -0.8197  0.1132  0.5477
 4901TIP3   OH236117   4.957   0.527  17.347  0.1096 -0.0213  0.1331
 4901TIP3    H136118   4.918   0.520  17.260 -1.8225 -1.1918  1.0360
 4901TIP3    H236119   5.008   0.447  17.358  2.9679  1.4658 -1.0131
 4902TIP3   OH236120   5.486   0.327  14.663 -0.5474 -0.2092  0.0963
 4902TIP3    H136121   5.532   0.245  14.682 -0.9643 -0.5611 -0.3587
 4902TIP3    H236122   5.394   0.300  14.652 -0.7893  0.4090  0.5347
 4903TIP3   OH236123   1.183   5.954  11.348  0.3324 -0.6858  0.2876
 4903TIP3    H136124   1.212   6.001  11.269 -0.5178 -2.0083 -0.8534
 4903TIP3    H236125   1.096   5.991  11.366  1.7336  1.8581  2.5358
 4904TIP3   OH236126   5.534   2.297   2.964 -0.0977 -0.1616 -0.6662
 4904TIP3    H136127   5.471   2.234   2.999  1.3911 -2.2522 -1.5099
 4904TIP3    H236128   5.565   2.346   3.040 -4.0611  2.4062 -0.4148
 4905TIP3   OH236129   1.207   5.351   3.598  0.0847 -0.3920 -0.2732
 4905TIP3    H136130   1.279   5.399   3.638 -1.4509  0.0582  2.1850
 4905TIP3    H236131   1.234   5.259   3.604  1.7776 -0.1165 -2.3761
 4906TIP3   OH236132   3.768   0.088   6.219  0.0335 -0.4629  0.4524
 4906TIP3    H136133   3.837   0.095   6.152  0.2592 -2.9995  0.3109
 4906TIP3    H236134   3.797   0.145   6.290  2.3154 -1.4510  0.3899
 4907TIP3   OH236135   3.011   0.900   3.465 -0.6752 -0.1500  0.6373
 4907TIP3    H136136   3.052   0.982   3.494 -0.6339  0.9655 -2.2370
 4907TIP3    H236137   3.084   0.845   3.438 -0.7319 -1.0266  2.1664
 4908TIP3   OH236138   2.395   1.244   6.094 -0.6732  0.0111 -0.4578
 4908TIP3    H136139   2.472   1.194   6.065 -0.9667 -0.0310 -1.1958
 4908TIP3    H236140   2.427   1.334   6.103 -0.6186  0.0728 -1.1629
 4909TIP3   OH236141   3.138   2.159   3.459 -0.3415  0.2037 -0.9733
 4909TIP3    H136142   3.104   2.070   3.450  0.1968  0.2113 -4.0790
 4909TIP3    H236143   3.232   2.151   3.446  0.1815  0.9194  1.7697
 4910TIP3   OH236144   5.553   0.776  13.343  0.1645 -0.1452 -0.0985
 4910TIP3    H136145   5.525   0.805  13.255  0.1517 -1.8011 -0.6640
 4910TIP3    H236146   5.500   0.829  13.403  0.9247  1.7830 -1.0369
 4911TIP3   OH236147   2.105   0.120   1.276 -0.6935  0.3559  0.3168
 4911TIP3    H136148   2.093   0.078   1.361 -1.9718  1.3436  0.6484
 4911TIP3    H236149   2.183   0.175   1.287  1.3151 -2.1651 -0.2704
 4912TIP3   OH236150   4.209   5.142   4.241 -0.0127 -0.3402 -0.2770
 4912TIP3    H136151   4.268   5.144   4.316  1.0944 -4.3369 -0.7764
 4912TIP3    H236152   4.152   5.067   4.257  0.2470 -1.3462 -3.3153
 4913TIP3   OH236153   2.147   6.454  15.961  0.3761 -0.3071 -0.5212
 4913TIP3    H136154   2.140   6.366  15.997 -1.1798 -0.1465 -0.3822
 4913TIP3    H236155   2.069   6.499  15.992  0.4659  0.7152 -1.6957
 4914TIP3   OH236156   0.739   5.994  15.307  0.2974  0.3905 -0.2495
 4914TIP3    H136157   0.730   6.072  15.363 -1.9116  0.8368 -1.1390
 4914TIP3    H236158   0.733   6.028  15.218  2.1398 -0.5130 -0.7667
 4915TIP3   OH236159   3.410   2.713  17.332 -0.0019 -0.2613  0.0689
 4915TIP3    H136160   3.384   2.795  17.290  1.7279  0.4112  0.2337
 4915TIP3    H236161   3.432   2.739  17.422 -0.9681 -1.2065  0.5989
 4916TIP3   OH236162   5.256   2.281   4.010  0.0585  0.1665 -0.2884
 4916TIP3    H136163   5.293   2.239   4.088  0.1038 -2.2660 -1.5557
 4916TIP3    H236164   5.331   2.325   3.970  0.1589  0.8960  0.6340
 4917TIP3   OH236165   3.790   4.994  14.609  0.0641  0.2240  0.1918
 4917TIP3    H136166   3.711   4.940  14.615  0.9223 -0.9750  0.9173
 4917TIP3    H236167   3.841   4.955  14.538  0.3296  0.5802  0.1855
 4918TIP3   OH236168   0.563   2.601  16.980  0.0342  0.8358  1.0076
 4918TIP3    H136169   0.482   2.563  17.013 -1.0776  2.6078  0.4541
 4918TIP3    H236170   0.578   2.556  16.897 -0.1669  0.2167  1.3038
 4919TIP3   OH236171   5.990   0.040  15.363  0.4453 -0.3894 -0.5087
 4919TIP3    H136172   5.903   0.062  15.395  0.9326  1.8322 -0.5417
 4919TIP3    H236173   6.045   0.112  15.392  2.0100 -1.0537 -1.6711
 4920TIP3   OH236174   1.396   3.639  11.405 -0.0711 -0.7110 -0.2693
 4920TIP3    H136175   1.357   3.615  11.321 -0.0007 -0.0841 -0.4889
 4920TIP3    H236176   1.433   3.726  11.390  0.9038 -1.0422  0.0986
 4921TIP3   OH236177   3.604   3.503   0.452  0.1958  0.1191  0.3930
 4921TIP3    H136178   3.564   3.540   0.530 -1.3688  0.4331 -0.5224
 4921TIP3    H236179   3.696   3.530   0.457 -0.7328  3.8055 -0.0191
 4922TIP3   OH236180   5.160   0.259   2.834 -0.1782 -0.6522  0.3181
 4922TIP3    H136181   5.123   0.276   2.748  1.1126 -0.2641 -0.1845
 4922TIP3    H236182   5.118   0.323   2.892  1.3689  1.4181 -0.6961
 4923TIP3   OH236183   0.789   2.507  14.763  0.1549  0.0251  0.0211
 4923TIP3    H136184   0.790   2.572  14.692  0.7247  0.5223  0.4701
 4923TIP3    H236185   0.779   2.559  14.843 -1.4163 -0.5930  0.2591
 4924TIP3   OH236186   2.463   0.356  15.823  0.3958 -0.5496 -0.4845
 4924TIP3    H136187   2.376   0.392  15.841 -0.1434 -1.3511 -1.4200
 4924TIP3    H236188   2.519   0.433  15.817 -0.2015 -0.0266  0.2996
 4925TIP3   OH236189   2.732   0.376  15.931 -0.0030 -0.2978 -0.0904
 4925TIP3    H136190   2.698   0.466  15.936  1.0487  0.1035  0.0592
 4925TIP3    H236191   2.739   0.359  15.838 -0.4072 -0.3107 -0.1221
 4926TIP3   OH236192   3.009   4.619   0.035 -0.3879 -0.3142  0.2506
 4926TIP3    H136193   2.920   4.650   0.020 -0.9946 -0.7584  2.5916
 4926TIP3    H236194   3.004   4.525   0.017 -0.5045 -0.4080  0.7547
 4927TIP3   OH236195   4.093   1.448   2.176  0.4221 -0.5757 -0.1925
 4927TIP3    H136196   4.122   1.522   2.124  0.7974 -0.9668 -0.5454
 4927TIP3    H236197   4.100   1.478   2.267 -0.5155  0.2058 -0.3617
 4928TIP3   OH236198   2.491   0.666   5.924  0.3265  0.2904 -0.0023
 4928TIP3    H136199   2.439   0.592   5.954  0.1935 -0.4584 -1.9510
 4928TIP3    H236200   2.532   0.636   5.843 -0.3168  2.5486 -1.2721
 4929TIP3   OH236201   1.536   5.588   4.211  0.0171  0.3458 -0.1322
 4929TIP3    H136202   1.482   5.579   4.133 -0.7262  2.1353  0.1089
 4929TIP3    H236203   1.490   5.539   4.279  0.1912 -0.4515 -0.5742
 4930TIP3   OH236204   0.847   3.061   3.702  0.1879  0.5164 -0.3314
 4930TIP3    H136205   0.872   3.094   3.615  0.4708 -0.5176 -0.6507
 4930TIP3    H236206   0.913   2.996   3.723  0.1726  0.8184  0.7167
 4931TIP3   OH236207   2.081   2.464  13.717 -0.5975  0.7876  0.1015
 4931TIP3    H136208   2.026   2.396  13.678  0.8820 -0.3867 -0.0360
 4931TIP3    H236209   2.114   2.513  13.642  0.0104  0.3032  0.0429
 4932TIP3   OH236210   5.012   0.865  13.448 -0.3093  0.1853 -0.0956
 4932TIP3    H136211   5.073   0.793  13.432 -0.0635  0.1846  0.7895
 4932TIP3    H236212   4.976   0.847  13.535  0.0998  1.3603  0.3315
 4933TIP3   OH236213   3.381   4.393  17.239  0.3512  0.2861 -0.2965
 4933TIP3    H136214   3.445   4.447  17.287  3.6577 -2.4167 -1.2563
 4933TIP3    H236215   3.356   4.325  17.300  0.9334 -0.4952 -0.9086
 4934TIP3   OH236216   1.716   4.508  11.727  0.3274  0.7171  0.2354
 4934TIP3    H136217   1.678   4.576  11.783 -1.0847 -0.5240  0.8658
 4934TIP3    H236218   1.685   4.529  11.639 -1.9493 -0.2156  0.7160
 4935TIP3   OH236219   6.613   6.299  13.274  0.3712 -0.1245  0.5448
 4935TIP3    H136220   6.663   6.320  13.352 -1.3722  1.4818  1.3117
 4935TIP3    H236221   6.612   6.203  13.271  3.1586 -0.2229  0.6268
 4936TIP3   OH236222   2.527   3.721  13.196  0.3405 -0.0568  0.7384
 4936TIP3    H136223   2.601   3.758  13.148 -1.1740  1.0252 -0.9053
 4936TIP3    H236224   2.540   3.626  13.193  1.3999  0.0999  0.0390
 4937TIP3   OH236225   2.849   5.374   6.143  0.0740  0.2384  0.5196
 4937TIP3    H136226   2.759   5.344   6.158  0.4237 -1.3201 -0.2782
 4937TIP3    H236227   2.900   5.329   6.211  0.4025  0.2285  0.2666
 4938TIP3   OH236228   0.031   0.613   0.255 -0.2686  0.1001  0.0800
 4938TIP3    H136229   0.016   0.521   0.234  0.6220  0.2709 -1.4251
 4938TIP3    H236230   0.094   0.643   0.189 -1.3991  2.0950 -0.1671
 4939TIP3   OH236231   3.914   3.098   0.220  0.6760 -0.5058  0.3583
 4939TIP3    H136232   3.911   3.169   0.156 -1.6963  0.0563  0.9961
 4939TIP3    H236233   3.900   3.018   0.168 -1.8769 -0.0026  0.1335
 4940TIP3   OH236234   4.747   3.079   2.302  0.0416  0.5448  0.4983
 4940TIP3    H136235   4.731   2.986   2.286  0.0950  0.2601  1.9088
 4940TIP3    H236236   4.728   3.122   2.219 -0.8678 -0.6215  0.0812
 4941TIP3   OH236237   0.797   0.712   5.716 -0.3988  0.2349 -0.2723
 4941TIP3    H136238   0.867   0.762   5.758 -2.6282  3.5168 -0.1836
 4941TIP3    H236239   0.796   0.743   5.626 -2.0336  0.5991 -0.1438
 4942TIP3   OH236240   4.438   4.923   3.518 -0.2734  0.0464  0.6473
 4942TIP3    H136241   4.445   4.827   3.516 -0.7826  0.0061 -1.2310
 4942TIP3    H236242   4.354   4.942   3.476  0.3928  1.3408 -0.1702
 4943TIP3   OH236243   6.093   2.559  11.167  0.4042 -0.4162  0.0641
 4943TIP3    H136244   6.097   2.468  11.139  1.1179  0.0865 -1.6237
 4943TIP3    H236245   6.010   2.592  11.132  1.1117  0.1052 -1.2197
 4944TIP3   OH236246   3.613   0.690   1.892  0.0902 -0.4880 -0.3366
 4944TIP3    H136247   3.709   0.692   1.888  0.0553 -0.4219 -2.8440
 4944TIP3    H236248   3.593   0.703   1.984  2.4920 -0.3741  0.2465
 4945TIP3   OH236249   3.814   3.927   5.396  0.6688  1.0391  0.2612
 4945TIP3    H136250   3.819   3.928   5.492 -0.0587  1.6054  0.3004
 4945TIP3    H236251   3.737   3.873   5.377  0.3762  1.5352  0.0248
 4946TIP3   OH236252   2.511   6.570   2.622 -0.7368 -0.0739 -0.1835
 4946TIP3    H136253   2.578   6.557   2.689 -1.1278 -0.3769  0.1517
 4946TIP3    H236254   2.465   6.650   2.649 -2.3459 -1.3902  1.1594
 4947TIP3   OH236255   0.584   4.560  13.311 -0.0136 -0.4204  0.0851
 4947TIP3    H136256   0.678   4.543  13.315  0.4643  1.6541 -1.2236
 4947TIP3    H236257   0.559   4.578  13.402  0.9567 -0.4607  0.3722
 4948TIP3   OH236258   0.773   6.510   5.871  0.0903 -0.1508  0.3932
 4948TIP3    H136259   0.828   6.547   5.802 -1.4298  1.1546 -0.1472
 4948TIP3    H236260   0.826   6.518   5.951  1.1351 -0.0137 -0.2959
 4949TIP3   OH236261   6.374   6.089   4.659  0.0157 -0.0244  0.3100
 4949TIP3    H136262   6.391   6.081   4.753  0.7490  0.0168  0.1847
 4949TIP3    H236263   6.459   6.076   4.618  0.5008  3.6499 -0.1535
 4950TIP3   OH236264   4.751   3.757  16.825  0.6336 -0.0476 -0.1320
 4950TIP3    H136265   4.707   3.726  16.745 -1.2040  3.2812 -0.6060
 4950TIP3    H236266   4.707   3.711  16.896 -0.5847 -0.1002 -0.8835
 4951TIP3   OH236267   4.398   4.522  16.849 -0.0738  0.1412 -0.5313
 4951TIP3    H136268   4.457   4.499  16.921 -0.1852  0.6279 -0.2812
 4951TIP3    H236269   4.345   4.595  16.883  1.5463  2.0923 -1.9127
 4952TIP3   OH236270   6.463   6.343   0.140 -0.2622  0.1205  0.5050
 4952TIP3    H136271   6.409   6.269   0.110  3.5890 -2.3814 -0.9560
 4952TIP3    H236272   6.460   6.404   0.066 -0.9742 -0.0386  0.3887
 4953TIP3   OH236273   0.391   4.389  14.446 -0.5237 -0.1523 -0.7495
 4953TIP3    H136274   0.465   4.349  14.400 -0.0286 -1.4757  1.0972
 4953TIP3    H236275   0.368   4.326  14.514 -1.2257  1.6836  0.8057
 4954TIP3   OH236276   5.704   6.203  11.788 -0.1107  0.3043 -0.1864
 4954TIP3    H136277   5.705   6.169  11.877  0.0727  0.9721  0.0769
 4954TIP3    H236278   5.641   6.147  11.741  0.4621 -0.6117  0.1224
 4955TIP3   OH236279   0.314   2.278  11.968 -0.3488  0.8875  0.4770
 4955TIP3    H136280   0.301   2.224  12.046 -1.6757  0.7208  0.1758
 4955TIP3    H236281   0.374   2.227  11.914 -1.9805 -0.6142 -0.0359
 4956TIP3   OH236282   4.456   5.648   4.558 -0.5226 -0.2787  0.0013
 4956TIP3    H136283   4.381   5.657   4.499 -0.9067  0.0879  0.5416
 4956TIP3    H236284   4.437   5.707   4.630  1.0381  1.0623 -0.6161
 4957TIP3   OH236285   0.732   6.053  13.333 -0.3367  0.5587 -0.3388
 4957TIP3    H136286   0.745   6.117  13.402 -0.9404  0.5566 -0.2179
 4957TIP3    H236287   0.686   6.101  13.264  0.9847  0.7864 -1.1062
 4958TIP3   OH236288   6.131   3.958   1.316  0.3103 -0.0861  0.5329
 4958TIP3    H136289   6.092   3.887   1.266  1.8228 -0.7752  0.2716
 4958TIP3    H236290   6.203   3.989   1.262  1.0474  0.1740  1.6231
 4959TIP3   OH236291   4.404   4.057  10.960 -0.0492  0.2729 -0.0328
 4959TIP3    H136292   4.366   3.997  10.897  0.0478 -0.2215  0.3758
 4959TIP3    H236293   4.328   4.096  11.004 -0.1847  1.8330 -1.5369
 4960TIP3   OH236294   6.476   2.946   0.806 -0.2008  0.0531  0.1481
 4960TIP3    H136295   6.486   3.017   0.869 -1.8331  1.2654 -0.8653
 4960TIP3    H236296   6.397   2.900   0.833 -0.9778  0.6440 -0.9961
 4961TIP3   OH236297   0.480   4.704  11.185  0.6951 -0.4391  0.7113
 4961TIP3    H136298   0.497   4.692  11.278  0.2471  0.6864  0.9538
 4961TIP3    H236299   0.483   4.798  11.172 -0.0980 -0.5293 -0.2464
 4962TIP3   OH236300   2.437   5.709   6.381  0.1063 -0.1769 -0.0452
 4962TIP3    H136301   2.501   5.638   6.384 -0.3289 -0.5469  2.8782
 4962TIP3    H236302   2.352   5.665   6.379 -0.1440  0.2657  0.6317
 4963TIP3   OH236303   0.492   4.934   0.983  0.2361 -0.4611 -0.2125
 4963TIP3    H136304   0.457   4.854   0.944 -2.3408  0.2057  0.4926
 4963TIP3    H236305   0.581   4.912   1.008  0.3870 -2.3536 -2.1529
 4964TIP3   OH236306   0.693   0.444  15.238  0.1020 -0.0866  0.3666
 4964TIP3    H136307   0.646   0.518  15.201  3.1210  1.6668 -0.2830
 4964TIP3    H236308   0.729   0.477  15.320  1.0834 -1.0023  0.3216
 4965TIP3   OH236309   5.441   3.450   4.733 -0.3473 -0.1343  0.2960
 4965TIP3    H136310   5.463   3.430   4.642  0.5543 -1.8808  0.8678
 4965TIP3    H236311   5.414   3.542   4.731 -1.9391 -0.5521 -2.0108
 4966TIP3   OH236312   2.852   5.970  16.491  0.6189 -0.4481  0.6275
 4966TIP3    H136313   2.947   5.977  16.504  0.2945  0.7311  2.8523
 4966TIP3    H236314   2.815   6.032  16.554 -1.6463 -0.9920 -0.0967
 4967TIP3   OH236315   0.891   3.728  17.120 -0.2061 -0.2063  0.6510
 4967TIP3    H136316   0.849   3.804  17.159  1.6671  0.6254  1.1483
 4967TIP3    H236317   0.864   3.730  17.028 -2.6241 -0.7485  1.2611
 4968TIP3   OH236318   4.040   2.336   5.679  0.1205  0.4497 -0.6459
 4968TIP3    H136319   4.091   2.268   5.634  1.4498  1.5655 -0.9012
 4968TIP3    H236320   4.018   2.298   5.763 -0.3232 -0.7897 -1.2998
 4969TIP3   OH236321   2.866   0.311   5.707 -0.4565  0.1594 -0.6021
 4969TIP3    H136322   2.880   0.283   5.797  0.1809  0.1478 -0.6989
 4969TIP3    H236323   2.896   0.237   5.654  0.6721  0.7639 -0.8501
 4970TIP3   OH236324   6.674   4.347   3.044 -0.5807 -1.0054  0.7056
 4970TIP3    H136325   6.614   4.417   3.071  1.4649  0.8238  0.8380
 4970TIP3    H236326   6.640   4.317   2.960 -0.3343  1.7806 -0.5028
 4971TIP3   OH236327   1.421   0.150   2.696  0.2021 -0.1955 -0.0793
 4971TIP3    H136328   1.499   0.109   2.659 -0.7423 -1.9528 -0.1841
 4971TIP3    H236329   1.351   0.130   2.634 -0.5263  0.6120  0.4571
 4972TIP3   OH236330   3.475   3.549   4.511 -0.2619 -0.0216 -0.0654
 4972TIP3    H136331   3.521   3.592   4.583 -0.8350 -1.1937  1.0457
 4972TIP3    H236332   3.511   3.589   4.432 -0.2102  1.9119  0.8791
 4973TIP3   OH236333   2.115   2.283  11.621  0.7364  0.6097 -0.4566
 4973TIP3    H136334   2.164   2.365  11.626 -0.6291  1.4583 -0.4081
 4973TIP3    H236335   2.167   2.227  11.563  1.9143  1.3371 -0.1216
 4974TIP3   OH236336   3.214   3.407  16.974 -0.4071 -0.0318 -0.0698
 4974TIP3    H136337   3.219   3.345  16.901  0.3208 -0.0905  0.0163
 4974TIP3    H236338   3.299   3.398  17.018  0.1203  1.7502 -0.6545
 4975TIP3   OH236339   5.765   5.568   5.966  0.1364 -0.2015 -0.2320
 4975TIP3    H136340   5.729   5.603   6.049 -0.9971  0.9068 -1.1402
 4975TIP3    H236341   5.688   5.555   5.911  0.9976  1.0940 -1.8436
 4976TIP3   OH236342   6.295   2.533   6.003  0.3521  0.5298  0.7660
 4976TIP3    H136343   6.203   2.561   5.998  0.9658  2.4803 -2.4554
 4976TIP3    H236344   6.292   2.449   6.049 -3.2699 -0.3573 -0.7785
 4977TIP3   OH236345   2.631   3.450   4.817  0.3515 -0.6905  0.2732
 4977TIP3    H136346   2.618   3.516   4.748  0.7097 -0.4707  0.4121
 4977TIP3    H236347   2.726   3.437   4.821  0.4482  0.1685  1.5168
 4978TIP3   OH236348   5.071   6.587   1.324  0.1373  0.0506 -0.5091
 4978TIP3    H136349   5.014   6.517   1.292  0.5332 -0.4297 -0.1702
 4978TIP3    H236350   5.011   6.659   1.342 -0.5572 -0.8750  1.0745
 4979TIP3   OH236351   4.412   0.963   1.380  0.0773  0.1929 -0.1504
 4979TIP3    H136352   4.472   0.914   1.324 -1.0765 -0.1681 -1.1287
 4979TIP3    H236353   4.414   1.053   1.345  2.0584  0.8777  1.5319
 4980TIP3   OH236354   5.069   0.506   6.398  0.2779  0.5022 -0.0776
 4980TIP3    H136355   4.999   0.468   6.346  0.1952  3.6301 -2.5861
 4980TIP3    H236356   5.025   0.553   6.469  0.2802 -2.0090  1.7150
 4981TIP3   OH236357   2.441   1.606   1.496  0.4224 -0.3003 -0.0815
 4981TIP3    H136358   2.517   1.616   1.439  0.7813  0.0824  0.4551
 4981TIP3    H236359   2.473   1.557   1.571  0.0370 -0.4922 -0.0362
 4982TIP3   OH236360   0.848   1.483   5.679 -0.4950  0.5474 -0.2084
 4982TIP3    H136361   0.860   1.391   5.655 -0.1476  0.4656  0.2637
 4982TIP3    H236362   0.795   1.520   5.608 -2.1282 -0.4130  0.4561
 4983TIP3   OH236363   6.711   5.675  14.181 -0.2404 -0.0082 -0.0915
 4983TIP3    H136364   6.736   5.615  14.251 -0.3545 -0.8040 -0.7101
 4983TIP3    H236365   6.652   5.737  14.223  0.9403  0.5099  0.8642
 4984TIP3   OH236366   2.764   1.620   3.062 -0.3901  0.0341 -0.2134
 4984TIP3    H136367   2.770   1.570   3.143 -1.4581 -1.6131 -1.0942
 4984TIP3    H236368   2.685   1.674   3.074 -0.2510  0.1839  0.0398
 4985TIP3   OH236369   5.829   3.653   2.392  0.2574  0.0300 -0.2914
 4985TIP3    H136370   5.924   3.665   2.388  0.2870  0.6729  1.5153
 4985TIP3    H236371   5.816   3.589   2.461 -0.6652  0.8996  0.3695
 4986TIP3   OH236372   1.154   2.212  16.485  0.3526 -0.3045  0.1608
 4986TIP3    H136373   1.224   2.246  16.429  0.4033 -1.1397 -0.3059
 4986TIP3    H236374   1.077   2.264  16.462  0.6057  0.0099  0.0210
 4987TIP3   OH236375   5.923   6.417  13.534  0.2000 -0.1612  0.1260
 4987TIP3    H136376   6.017   6.406  13.543  0.0203 -1.3823  0.6955
 4987TIP3    H236377   5.911   6.455  13.447  1.2344  0.4645  0.2429
 4988TIP3   OH236378   3.815   1.763   3.266  0.3119  0.2812  0.1003
 4988TIP3    H136379   3.782   1.809   3.343  0.7962 -0.7232  0.9304
 4988TIP3    H236380   3.737   1.741   3.216 -0.3297 -1.8010  1.8846
 4989TIP3   OH236381   0.172   6.542   5.689 -0.3694 -0.3376  0.3096
 4989TIP3    H136382   0.089   6.509   5.722 -1.1704 -0.7824 -1.9370
 4989TIP3    H236383   0.148   6.612   5.629  1.0016  0.5848  0.7824
 4990TIP3   OH236384   3.255   6.067   2.966 -0.1831 -0.2758 -0.0364
 4990TIP3    H136385   3.298   6.137   2.916 -2.3195  0.3677 -1.0959
 4990TIP3    H236386   3.227   6.004   2.900  1.5241 -2.1044  0.8904
 4991TIP3   OH236387   2.905   6.062   5.765  0.6594 -0.3295 -0.3964
 4991TIP3    H136388   2.900   5.972   5.796  1.8896 -0.9093 -1.7651
 4991TIP3    H236389   2.849   6.112   5.825  0.5601 -1.8695  0.8351
 4992TIP3   OH236390   1.378   3.179   4.652  0.2539 -0.5605  0.0498
 4992TIP3    H136391   1.311   3.248   4.660 -0.1961 -1.0990  1.2625
 4992TIP3    H236392   1.420   3.178   4.738  0.2143 -1.8381  0.0613
 4993TIP3   OH236393   0.951   2.952  13.357 -0.7150  0.1747 -0.0423
 4993TIP3    H136394   0.898   3.032  13.356  0.3671  0.9050 -1.3984
 4993TIP3    H236395   0.920   2.901  13.282 -0.7835 -0.2841  0.2879
 4994TIP3   OH236396   6.058   4.110   1.532 -0.4810 -0.1984 -0.4712
 4994TIP3    H136397   6.004   4.187   1.515  0.1747  0.6500  0.9850
 4994TIP3    H236398   6.081   4.077   1.446 -1.4345  0.7717 -1.1259
 4995TIP3   OH236399   4.398   0.890   3.789  0.3325  0.1344 -0.3796
 4995TIP3    H136400   4.486   0.864   3.759  0.0538  0.7716 -1.8430
 4995TIP3    H236401   4.380   0.970   3.740 -0.7332  0.4652  0.5445
 4996TIP3   OH236402   5.809   6.055  13.517 -0.3544  0.3658 -0.1513
 4996TIP3    H136403   5.859   6.092  13.444 -0.8787 -0.2677 -0.8617
 4996TIP3    H236404   5.755   5.987  13.476  1.0517 -1.6649  1.1708
 4997TIP3   OH236405   2.656   2.061  12.730  0.2200 -0.3082  0.3115
 4997TIP3    H136406   2.663   2.065  12.825  0.7254 -2.5607  0.4280
 4997TIP3    H236407   2.565   2.034  12.714 -0.6440  2.5240 -0.0134
 4998TIP3   OH236408   3.657   4.458   4.309 -0.1043 -0.7641 -0.0889
 4998TIP3    H136409   3.732   4.516   4.298  0.8895 -2.1244 -0.7891
 4998TIP3    H236410   3.659   4.402   4.232 -1.2663 -1.4582  0.3678
 4999TIP3   OH236411   0.207   3.159  15.839 -0.1726  0.2612 -0.0595
 4999TIP3    H136412   0.206   3.066  15.817  0.0448  0.5468 -1.3551
 4999TIP3    H236413   0.261   3.200  15.771 -1.2083  1.4841 -0.1897
 5000TIP3   OH236414   5.680   3.163  15.636  0.1778  0.1918 -0.3732
 5000TIP3    H136415   5.682   3.244  15.584  0.2431 -0.2008 -0.9943
 5000TIP3    H236416   5.675   3.193  15.727  3.0834  0.9669 -0.3669
 5001TIP3   OH236417   5.768   0.872  14.420 -0.5721  0.2214  0.8939
 5001TIP3    H136418   5.714   0.950  14.433  0.0349  0.4328  2.4522
 5001TIP3    H236419   5.842   0.903  14.367  0.6237  1.2441  2.9885
 5002TIP3   OH236420   0.880   2.564  13.128  0.0003 -0.1762  0.4361
 5002TIP3    H136421   0.900   2.493  13.066  2.0581  1.8658 -1.4217
 5002TIP3    H236422   0.965   2.590  13.163 -0.6092  1.8140  0.5394
 5003TIP3   OH236423   2.042   6.488  17.029 -0.1491 -0.2443  0.0029
 5003TIP3    H136424   2.090   6.429  16.970 -1.3616 -1.6104  0.3290
 5003TIP3    H236425   1.956   6.496  16.989 -1.3790 -2.1042  2.0732
 5004TIP3   OH236426   4.415   5.764   5.757 -0.0141 -0.2213 -0.1745
 5004TIP3    H136427   4.450   5.676   5.770  1.4831  0.3130 -0.3663
 5004TIP3    H236428   4.428   5.808   5.841  1.5580  0.5416 -0.7668
 5005TIP3   OH236429   6.550   3.168  12.628 -0.5125  0.0764 -0.2431
 5005TIP3    H136430   6.616   3.236  12.643  0.8566 -1.4711  1.0801
 5005TIP3    H236431   6.516   3.186  12.541  0.7430  1.6668 -0.4398
 5006TIP3   OH236432   1.345   4.137   1.876 -0.2060  0.0321 -0.2508
 5006TIP3    H136433   1.400   4.194   1.822  0.2280  0.9397  1.0889
 5006TIP3    H236434   1.393   4.127   1.958 -0.5953 -1.7565 -0.2086
 5007TIP3   OH236435   5.589   3.736   0.578 -0.1400 -0.2228  0.2631
 5007TIP3    H136436   5.557   3.741   0.488  3.2105  3.2256 -0.9822
 5007TIP3    H236437   5.515   3.766   0.631 -2.8739 -4.1292 -0.8362
 5008TIP3   OH236438   1.849   4.316  16.774  0.3811  0.1666  0.2274
 5008TIP3    H136439   1.813   4.395  16.813  1.0783  0.1417  0.9560
 5008TIP3    H236440   1.863   4.257  16.848 -0.2496 -0.6957 -0.3170
 5009TIP3   OH236441   1.457   5.392   0.091 -0.1570 -0.6243  0.2450
 5009TIP3    H136442   1.442   5.304   0.057 -0.1417 -1.0461  1.2795
 5009TIP3    H236443   1.551   5.405   0.082 -0.1377 -0.7745  0.2240
 5010TIP3   OH236444   6.111   3.334  16.118  0.0622  0.0244  0.4460
 5010TIP3    H136445   6.016   3.327  16.114  0.1199 -0.7332  0.3403
 5010TIP3    H236446   6.141   3.248  16.146  0.8227 -0.4054 -1.5179
 5011TIP3   OH236447   2.415   2.321  11.406  0.1388  0.1583 -0.3143
 5011TIP3    H136448   2.461   2.374  11.340  0.3295 -0.1261 -0.4116
 5011TIP3    H236449   2.396   2.383  11.477  0.7003  0.2747 -0.2599
 5012TIP3   OH236450   5.669   1.881   2.118  0.0700 -0.4422 -0.2955
 5012TIP3    H136451   5.656   1.964   2.163  4.1657 -0.2949  0.9756
 5012TIP3    H236452   5.684   1.905   2.027 -1.6431 -0.1489 -0.5411
 5013TIP3   OH236453   0.416   4.912  12.025 -0.1491  0.0475  0.1556
 5013TIP3    H136454   0.462   4.994  12.009  0.8340  0.0715  2.5894
 5013TIP3    H236455   0.485   4.846  12.023 -0.4059 -0.2738  1.3139
 5014TIP3   OH236456   3.717   0.071  16.945  0.0412 -0.3949  0.4210
 5014TIP3    H136457   3.737   0.050  17.036  0.3148  2.2845  1.0766
 5014TIP3    H236458   3.794   0.044  16.895  0.7829  0.0388  1.3193
 5015TIP3   OH236459   3.868   5.256   0.529 -0.1009  0.4250 -0.1861
 5015TIP3    H136460   3.931   5.230   0.596  0.2805 -1.3228 -1.1571
 5015TIP3    H236461   3.902   5.219   0.448 -0.3633  2.7949 -1.4708
 5016TIP3   OH236462   6.030   4.677   6.518  0.6304  0.4969 -0.2781
 5016TIP3    H136463   5.960   4.736   6.544  0.8491  0.0678  1.4786
 5016TIP3    H236464   6.075   4.657   6.600  1.1125 -1.3786 -0.9471
 5017TIP3   OH236465   0.020   1.022   5.775  0.1411 -0.7172 -0.0253
 5017TIP3    H136466  -0.036   1.099   5.759  0.7853 -0.5469 -1.6791
 5017TIP3    H236467   0.041   1.026   5.868 -2.2835 -0.5829  0.5836
 5018TIP3   OH236468   1.038   0.400   2.297 -0.0566 -0.3724 -0.3604
 5018TIP3    H136469   0.955   0.448   2.302  0.9224  1.4477 -0.5644
 5018TIP3    H236470   1.052   0.386   2.203  1.0978  1.7412 -0.5779
 5019TIP3   OH236471   6.651   3.321   6.086 -0.0037 -0.1629 -0.0150
 5019TIP3    H136472   6.667   3.383   6.015 -0.6169  0.9179  0.7750
 5019TIP3    H236473   6.722   3.256   6.077  2.0063  1.8362  0.4638
 5020TIP3   OH236474   0.548   0.860  13.430 -0.0443 -0.1896 -0.5041
 5020TIP3    H136475   0.549   0.799  13.356 -0.0287  0.3966 -0.9968
 5020TIP3    H236476   0.612   0.927  13.407  1.1780 -0.8532  0.7966
 5021TIP3   OH236477   5.464   6.645  14.000 -0.1647  0.6047 -0.0477
 5021TIP3    H136478   5.559   6.656  14.003  0.0612 -0.4680 -1.8554
 5021TIP3    H236479   5.444   6.587  14.074  0.8339 -0.4878 -0.5941
 5022TIP3   OH236480   2.997   6.163  16.803  0.0282  0.3557  0.4052
 5022TIP3    H136481   3.072   6.183  16.859 -0.7315  2.1346  0.8346
 5022TIP3    H236482   3.031   6.169  16.714  0.4787  0.7412  0.6004
 5023TIP3   OH236483   0.127   3.754   5.189  0.3122 -0.0913  0.1162
 5023TIP3    H136484   0.064   3.719   5.252  0.9474 -0.5896  0.4935
 5023TIP3    H236485   0.170   3.677   5.153  0.2676  0.2134 -0.6051
 5024TIP3   OH236486   1.038   5.654  11.774 -0.6993 -0.1739  0.7080
 5024TIP3    H136487   0.965   5.617  11.726 -1.0630  0.9179  0.4110
 5024TIP3    H236488   1.116   5.623  11.727 -1.0345  0.5055 -0.3198
 5025TIP3   OH236489   5.231   5.351   4.153 -0.0787  0.5427 -0.1669
 5025TIP3    H136490   5.244   5.358   4.058  0.1094 -1.5710 -0.3318
 5025TIP3    H236491   5.319   5.354   4.189 -0.0265 -0.2975 -0.2070
 5026TIP3   OH236492   1.576   6.619  11.870 -0.2513  0.7897 -0.5253
 5026TIP3    H136493   1.588   6.661  11.785  0.5840  1.7863  0.0633
 5026TIP3    H236494   1.652   6.645  11.921  0.0338 -1.0330  0.0576
 5027TIP3   OH236495   4.015   0.382   6.190  0.7364 -0.3046  0.1622
 5027TIP3    H136496   3.971   0.428   6.118  0.6050  2.3681  1.8024
 5027TIP3    H236497   3.944   0.356   6.248  1.0400  1.0754  1.1980
 5028TIP3   OH236498   0.437   0.557  14.256  0.4188 -0.0800 -0.5532
 5028TIP3    H136499   0.349   0.589  14.239 -0.6948 -1.6123  1.7523
 5028TIP3    H236500   0.480   0.628  14.303 -0.0378  0.1818 -0.5226
 5029TIP3   OH236501   3.056   5.721  12.939  0.2948 -0.6401  0.2423
 5029TIP3    H136502   3.045   5.678  13.023  0.4522 -0.2026  0.4902
 5029TIP3    H236503   2.993   5.793  12.941 -0.2570 -1.0978 -0.3328
 5030TIP3   OH236504   1.053   5.074   4.160 -0.2456 -0.0526  0.1686
 5030TIP3    H136505   1.013   4.999   4.202  0.7240 -0.4637  0.3711
 5030TIP3    H236506   1.058   5.141   4.228 -2.0697  0.5870 -0.2797
 5031TIP3   OH236507   4.045   1.095  11.121 -0.3293 -0.3718  0.1747
 5031TIP3    H136508   4.042   1.025  11.055  0.8847 -1.2812  1.0290
 5031TIP3    H236509   3.976   1.072  11.183 -1.1847  0.2470 -0.5256
 5032TIP3   OH236510   2.685   0.174   0.357  0.7300  0.4893 -0.0936
 5032TIP3    H136511   2.729   0.107   0.410  1.1965 -0.6202 -1.8029
 5032TIP3    H236512   2.755   0.230   0.325  0.6231  0.2544 -0.7456
 5033TIP3   OH236513   2.975   3.510   1.194  0.0027  0.1381 -0.3303
 5033TIP3    H136514   2.923   3.521   1.114 -0.3624 -0.9004 -0.2418
 5033TIP3    H236515   2.957   3.590   1.245 -1.4047 -0.1348 -0.3637
 5034TIP3   OH236516   1.561   5.099  12.562  0.0871 -0.2974  0.6217
 5034TIP3    H136517   1.566   5.097  12.467  1.2092  1.9212  0.5795
 5034TIP3    H236518   1.478   5.143  12.581  0.5877  0.6687  0.6199
 5035TIP3   OH236519   1.869   6.709  17.596  0.3895  0.5584  0.0920
 5035TIP3    H136520   1.783   6.667  17.597  0.8804 -0.4900  0.2477
 5035TIP3    H236521   1.916   6.665  17.526 -0.0053  2.8822 -1.7346
 5036TIP3   OH236522   5.807   0.899  12.432  0.0215  0.1130  0.2720
 5036TIP3    H136523   5.768   0.857  12.355  1.4895 -0.1645 -0.3494
 5036TIP3    H236524   5.879   0.841  12.457  1.3147  1.6012  0.1460
 5037TIP3   OH236525   6.637   0.625  12.876  0.6180  0.4584 -1.0169
 5037TIP3    H136526   6.585   0.685  12.822  1.1318  1.3401 -0.5542
 5037TIP3    H236527   6.657   0.552  12.818  0.0941  0.7890 -1.6359
 5038TIP3   OH236528   5.257   5.866  13.086  0.0279  0.2340  0.6835
 5038TIP3    H136529   5.297   5.803  13.145  1.2304 -1.3802 -1.7005
 5038TIP3    H236530   5.319   5.938  13.082  2.0839 -1.5120 -1.6949
 5039TIP3   OH236531   5.186   0.971  16.986  0.5468 -0.0514 -0.2219
 5039TIP3    H136532   5.097   0.936  16.991 -0.1530  1.5724 -0.4825
 5039TIP3    H236533   5.225   0.950  17.071 -0.5097  0.2377  0.3573
 5040TIP3   OH236534   5.864   0.351   4.259  0.3424 -0.7195 -0.2327
 5040TIP3    H136535   5.794   0.291   4.233  0.4802 -0.2145 -1.8803
 5040TIP3    H236536   5.892   0.392   4.177 -0.6429  2.5989  0.9621
 5041TIP3   OH236537   2.223   3.803   6.396 -0.0024 -0.4655 -1.0214
 5041TIP3    H136538   2.315   3.777   6.402  0.5988  1.2699 -2.0409
 5041TIP3    H236539   2.207   3.814   6.302 -0.4086  1.9062 -0.7498
 5042TIP3   OH236540   1.883   2.513  13.045 -0.0877  0.2223 -0.4125
 5042TIP3    H136541   1.859   2.421  13.034  0.7509  0.0093 -0.5362
 5042TIP3    H236542   1.907   2.520  13.138  0.6065  0.1330 -0.5862
 5043TIP3   OH236543   1.278   2.338  15.939 -0.1482  0.3588  0.0151
 5043TIP3    H136544   1.362   2.333  15.984 -0.4482  1.1147  0.6821
 5043TIP3    H236545   1.287   2.411  15.879 -0.1955  0.1928 -0.1937
 5044TIP3   OH236546   6.115   6.497   1.504 -0.3483 -0.9639 -0.1614
 5044TIP3    H136547   6.021   6.487   1.521 -0.3182 -0.6706  0.1844
 5044TIP3    H236548   6.121   6.573   1.446 -0.2094  0.0670  1.1459
 5045TIP3   OH236549   3.951   1.230  13.429 -0.1140  0.0315 -0.4251
 5045TIP3    H136550   3.993   1.310  13.461  2.3583 -0.5059 -2.0409
 5045TIP3    H236551   3.876   1.262  13.378 -0.9113  1.1068  1.3173
 5046TIP3   OH236552   2.373   0.084   6.096 -0.2560  0.0322 -0.2712
 5046TIP3    H136553   2.317   0.013   6.065  1.1894 -1.0167 -0.6221
 5046TIP3    H236554   2.317   0.161   6.096 -1.9695 -1.1462  0.3886
 5047TIP3   OH236555   0.223   3.121  11.769 -0.0886  0.0353 -0.2249
 5047TIP3    H136556   0.315   3.094  11.766  0.0353  0.4069  0.1381
 5047TIP3    H236557   0.193   3.095  11.856 -0.5197 -0.6907 -0.5868
 5048TIP3   OH236558   1.656   4.902   1.345  0.3435  0.1028  0.1414
 5048TIP3    H136559   1.622   4.882   1.432 -0.6599 -2.6036 -0.7733
 5048TIP3    H236560   1.751   4.907   1.357  0.3003 -1.1541  1.2514
 5049TIP3   OH236561   2.506   0.331  15.304 -0.1676 -0.2008  0.6664
 5049TIP3    H136562   2.458   0.275  15.244 -0.8345  0.1121  0.9062
 5049TIP3    H236563   2.494   0.291  15.390  1.0715 -0.8445  0.5636
 5050TIP3   OH236564   5.772   0.386   0.925  0.8514 -0.5247  0.3306
 5050TIP3    H136565   5.862   0.352   0.927  2.2573  2.7710 -0.4532
 5050TIP3    H236566   5.757   0.417   1.014  0.3754 -1.1879  0.4950
 5051TIP3   OH236567   0.927   5.709  17.277 -0.4601  0.2357  0.4961
 5051TIP3    H136568   1.014   5.748  17.266 -0.4712  0.4587  1.1211
 5051TIP3    H236569   0.907   5.724  17.370 -0.9214 -0.3235  0.4857
 5052TIP3   OH236570   0.370   6.694   6.629  0.5220  0.6601  0.1108
 5052TIP3    H136571   0.290   6.747   6.635  1.0172  1.3331  0.8460
 5052TIP3    H236572   0.338   6.605   6.611 -0.6371  0.2296  3.5731
 5053TIP3   OH236573   2.187   3.423   0.155 -0.2164 -0.6123 -0.7189
 5053TIP3    H136574   2.260   3.484   0.160 -0.3565 -0.4794 -0.2286
 5053TIP3    H236575   2.197   3.379   0.070  2.3955 -3.0434  0.6958
 5054TIP3   OH236576   2.910   0.700   0.899 -0.5319 -0.2941  0.8660
 5054TIP3    H136577   2.930   0.612   0.931  1.0994 -0.0698  0.5117
 5054TIP3    H236578   2.959   0.709   0.818 -2.5429  0.1138 -0.3928
 5055TIP3   OH236579   1.545   0.722   1.553  0.1808  0.2798  0.0632
 5055TIP3    H136580   1.472   0.771   1.516 -0.6551 -0.3769  0.8256
 5055TIP3    H236581   1.611   0.789   1.573 -0.5741  0.9816  0.2362
 5056TIP3   OH236582   2.690   1.150  16.795  0.0408  0.7282  0.2251
 5056TIP3    H136583   2.734   1.167  16.712  0.9759  1.2259  0.8002
 5056TIP3    H236584   2.753   1.178  16.862 -1.1977  1.5959  1.0858
 5057TIP3   OH236585   0.622   3.090   5.943 -0.5692  0.2512  0.4012
 5057TIP3    H136586   0.571   3.126   6.015  1.1255  0.1369  1.7064
 5057TIP3    H236587   0.697   3.149   5.935  0.0876 -0.6383 -0.2120
 5058TIP3   OH236588   6.521   2.230   3.495 -0.3161 -0.1477 -0.4104
 5058TIP3    H136589   6.443   2.187   3.529 -1.3866  1.6058 -0.5682
 5058TIP3    H236590   6.557   2.277   3.570 -1.0354  1.3592 -0.9889
 5059TIP3   OH236591   4.443   5.039   6.469 -0.3078 -0.1035  0.0399
 5059TIP3    H136592   4.432   5.065   6.378  0.1360 -2.4248 -0.7258
 5059TIP3    H236593   4.374   5.086   6.516 -1.7366 -0.3073 -1.7713
 5060TIP3   OH236594   6.264   4.848   5.672  0.0338  0.5317  0.2212
 5060TIP3    H136595   6.220   4.796   5.605 -0.9597 -1.7136  2.4206
 5060TIP3    H236596   6.257   4.939   5.642 -2.0081 -0.2096 -1.7616
 5061TIP3   OH236597   4.072   1.816  12.753 -0.1674  0.6024 -0.0874
 5061TIP3    H136598   4.049   1.737  12.802  0.8967  1.5260  2.0344
 5061TIP3    H236599   4.115   1.784  12.674 -1.6184 -0.9473 -0.3041
 5062TIP3   OH236600   0.865   4.394   3.383 -0.2170  0.1613  0.1845
 5062TIP3    H136601   0.781   4.369   3.345  0.4006 -0.6167 -0.7249
 5062TIP3    H236602   0.896   4.467   3.328  0.4151 -0.5938 -0.4960
 5063TIP3   OH236603   3.197   2.225  12.479  0.4096  0.4151  0.2921
 5063TIP3    H136604   3.173   2.244  12.389  0.7908  0.3752  0.1788
 5063TIP3    H236605   3.166   2.300  12.529  2.2579  1.5893 -0.1953
 5064TIP3   OH236606   2.151   1.798   2.511 -0.3356 -0.4273 -0.3818
 5064TIP3    H136607   2.060   1.783   2.537 -0.7645 -0.7053 -1.9682
 5064TIP3    H236608   2.172   1.727   2.451  0.7416 -0.0255 -0.5131
 5065TIP3   OH236609   4.097   0.902  11.987  0.0899 -0.0742 -0.5137
 5065TIP3    H136610   4.119   0.954  12.064  0.6261  0.6154 -1.1085
 5065TIP3    H236611   4.145   0.945  11.915 -1.1229 -0.1359 -1.3966
 5066TIP3   OH236612   5.195   5.793  16.650 -0.0185  0.3111  0.1758
 5066TIP3    H136613   5.280   5.780  16.691  0.4402  0.0391 -0.8270
 5066TIP3    H236614   5.162   5.705  16.635 -0.9740  0.4133  1.5145
 5067TIP3   OH236615   0.950   6.375  12.824  0.3011  0.1500  0.0042
 5067TIP3    H136616   0.932   6.305  12.887  0.2590 -0.1597 -0.3469
 5067TIP3    H236617   0.899   6.450  12.856  0.1356 -0.0602  0.2375
 5068TIP3   OH236618   2.861   0.205   0.685  0.1647  0.8037  0.4364
 5068TIP3    H136619   2.790   0.143   0.703  0.8234  0.1649  0.9006
 5068TIP3    H236620   2.925   0.154   0.635 -0.2757  1.7307 -1.1385
 5069TIP3   OH236621   6.493   6.290  17.093 -0.2687  0.4048  0.2451
 5069TIP3    H136622   6.569   6.232  17.087  0.1091  0.8395  0.7307
 5069TIP3    H236623   6.427   6.238  17.137  0.3579  0.6139  1.4666
 5070TIP3   OH236624   2.561   2.173   4.754  0.4879  0.4934  0.1577
 5070TIP3    H136625   2.526   2.142   4.838  3.5332 -1.6123  0.8313
 5070TIP3    H236626   2.644   2.214   4.777 -0.5367  3.7987 -1.4863
 5071TIP3   OH236627   3.822   5.184  11.443  0.3310  0.3399  0.2684
 5071TIP3    H136628   3.835   5.248  11.513 -2.7292 -0.3345  1.6002
 5071TIP3    H236629   3.903   5.189  11.392  0.4261  4.9977  0.4252
 5072TIP3   OH236630   5.553   0.383   3.693  0.3475  0.2324 -0.6012
 5072TIP3    H136631   5.533   0.345   3.608  0.4640 -0.8258 -0.1777
 5072TIP3    H236632   5.602   0.314   3.739  0.2119  0.7477  0.3440
 5073TIP3   OH236633   4.450   5.834   3.581  0.6039  0.0259 -0.5888
 5073TIP3    H136634   4.433   5.758   3.525  0.9211 -0.7071  0.2973
 5073TIP3    H236635   4.485   5.798   3.662 -1.2755  0.9280  0.7099
 5074TIP3   OH236636   2.550   6.326  13.321 -0.3301  0.6471 -0.4418
 5074TIP3    H136637   2.515   6.403  13.365  1.0197  1.1487 -0.1963
 5074TIP3    H236638   2.553   6.259  13.389  1.3557  1.2984  0.1848
 5075TIP3   OH236639   2.783   1.597   5.423 -0.3078 -0.0613 -0.5228
 5075TIP3    H136640   2.829   1.621   5.343  1.2382 -0.3281  0.2536
 5075TIP3    H236641   2.778   1.501   5.420 -0.7111 -0.0430 -0.5315
 5076TIP3   OH236642   5.147   3.517  12.383 -0.1106 -0.2576 -0.3422
 5076TIP3    H136643   5.169   3.509  12.290  0.9345 -1.6486 -0.0049
 5076TIP3    H236644   5.059   3.480  12.389  0.8053 -2.5780 -0.4151
 5077TIP3   OH236645   4.184   2.371  13.979  0.6055  0.4316  0.0909
 5077TIP3    H136646   4.127   2.383  13.903 -1.2215 -1.8308  0.9568
 5077TIP3    H236647   4.134   2.404  14.053  0.6512 -0.9462  0.7827
 5078TIP3   OH236648   3.836   0.566   6.030 -0.4656  0.4711  0.1849
 5078TIP3    H136649   3.900   0.637   6.039  0.6871 -0.6922  1.6187
 5078TIP3    H236650   3.783   0.591   5.954  1.5872  1.5653 -0.9632
 5079TIP3   OH236651   1.648   1.945   2.862 -0.2846 -0.0243  0.3846
 5079TIP3    H136652   1.712   1.960   2.932 -0.3736 -0.3004  0.5291
 5079TIP3    H236653   1.657   1.852   2.841  0.8113  0.3778 -1.0481
 5080TIP3   OH236654   0.912   4.749  16.431  0.7157 -0.0572  0.4433
 5080TIP3    H136655   0.872   4.662  16.432 -0.2717  0.3785  2.0262
 5080TIP3    H236656   0.917   4.772  16.338  0.6898 -1.6489  0.0123
 5081TIP3   OH236657   0.607   3.417   1.431 -0.0071  0.0310 -0.1774
 5081TIP3    H136658   0.658   3.378   1.360 -1.8288 -0.3777 -1.2962
 5081TIP3    H236659   0.641   3.506   1.438  1.2582 -0.3946 -0.4644
 5082TIP3   OH236660   5.061   1.893   2.425 -0.2370 -0.3371  0.3411
 5082TIP3    H136661   5.057   1.845   2.508  1.2374  1.3978  1.4988
 5082TIP3    H236662   4.997   1.963   2.433 -0.1757 -0.2318 -0.0294
 5083TIP3   OH236663   0.363   1.015   2.986  0.2880  0.1016 -0.5462
 5083TIP3    H136664   0.389   1.055   3.069  0.8852 -0.5244 -0.4255
 5083TIP3    H236665   0.289   1.068   2.956  0.3060  0.5584  0.1986
 5084TIP3   OH236666   6.253   6.569   5.160 -0.2889  0.4492 -0.1108
 5084TIP3    H136667   6.207   6.649   5.182  0.2200  0.5839  0.4932
 5084TIP3    H236668   6.289   6.585   5.073  1.1255  1.4941  0.6186
 5085TIP3   OH236669   1.131   0.563  13.169 -0.1169  0.1101  0.0883
 5085TIP3    H136670   1.049   0.515  13.179  0.2243 -0.2414  1.3569
 5085TIP3    H236671   1.131   0.625  13.242  0.4487  0.5551 -0.2828
 5086TIP3   OH236672   5.730   0.298  17.403 -0.0244  0.1076  0.2638
 5086TIP3    H136673   5.813   0.283  17.449  0.6307 -0.3977 -1.0504
 5086TIP3    H236674   5.676   0.223  17.425  0.1804  0.0094  0.4345
 5087TIP3   OH236675   6.259   3.899   0.928 -0.1806 -0.2861  0.3604
 5087TIP3    H136676   6.294   3.876   0.842  1.0962  0.4881  0.6455
 5087TIP3    H236677   6.244   3.994   0.923  1.3389  0.0530  1.4347
 5088TIP3   OH236678   6.699   1.428   1.312  0.1984 -0.1807 -0.2014
 5088TIP3    H136679   6.638   1.487   1.266 -0.6464 -0.9137 -0.0454
 5088TIP3    H236680   6.709   1.354   1.252  1.4936  0.2344 -0.5300
 5089TIP3   OH236681   6.525   0.063  17.251  0.1348 -0.0815  0.7647
 5089TIP3    H136682   6.567  -0.023  17.262 -0.0395 -0.1500  0.8891
 5089TIP3    H236683   6.448   0.059  17.306 -1.0579 -0.6359 -0.8636
 5090TIP3   OH236684   6.543   1.893  11.466 -0.0132 -0.1202 -0.0378
 5090TIP3    H136685   6.607   1.947  11.419  0.7913 -1.4694 -0.5769
 5090TIP3    H236686   6.458   1.930  11.442  0.4727  0.3282 -1.1517
 5091TIP3   OH236687   5.892   0.677  11.419 -0.5805 -0.1182  0.1271
 5091TIP3    H136688   5.949   0.635  11.483 -0.6791  0.3760  0.5463
 5091TIP3    H236689   5.808   0.632  11.430 -0.1299 -1.2597 -0.9113
 5092TIP3   OH236690   5.744   4.775  14.371 -0.0893  0.0438  0.3650
 5092TIP3    H136691   5.838   4.760  14.367  0.0349  0.6896  0.6331
 5092TIP3    H236692   5.728   4.842  14.305 -0.4653 -0.5334 -0.1351
 5093TIP3   OH236693   0.826   0.449  11.653  0.2513 -0.3203 -0.0708
 5093TIP3    H136694   0.843   0.386  11.583  0.4539 -0.9192  0.5084
 5093TIP3    H236695   0.738   0.482  11.635  0.9084  0.7053 -1.4967
 5094TIP3   OH236696   6.150   6.097   4.330 -0.2487  0.4232 -0.5633
 5094TIP3    H136697   6.228   6.051   4.298 -0.3637 -0.4492  0.3830
 5094TIP3    H236698   6.184   6.177   4.371  0.0370  0.6699 -1.2662
 5095TIP3   OH236699   2.714   1.164  14.813 -0.5915 -0.6463  0.3697
 5095TIP3    H136700   2.685   1.199  14.897  0.1750 -0.2444  0.4752
 5095TIP3    H236701   2.803   1.134  14.829  0.4872  1.6152 -0.8585
 5096TIP3   OH236702   4.816   2.401  17.011  0.2679  0.7515  0.9729
 5096TIP3    H136703   4.876   2.404  17.086 -1.4822  1.4226  2.3913
 5096TIP3    H236704   4.759   2.327  17.029 -0.1708  0.9241  0.3124
 5097TIP3   OH236705   0.670   1.933   4.373  0.8404 -0.2543  0.0785
 5097TIP3    H136706   0.690   1.844   4.403  2.2365  0.1554  0.4074
 5097TIP3    H236707   0.638   1.978   4.451  1.4093 -0.1000  0.2278
 5098TIP3   OH236708   5.355   2.858  15.170  0.7749  0.1426  0.1307
 5098TIP3    H136709   5.403   2.788  15.213  1.2013  0.8295  0.8017
 5098TIP3    H236710   5.379   2.851  15.077  1.9337  0.2855  0.4072
 5099TIP3   OH236711   3.512   4.045   4.158 -0.1178 -0.1318 -0.4317
 5099TIP3    H136712   3.559   3.972   4.196 -0.3065  0.6118  1.3276
 5099TIP3    H236713   3.577   4.115   4.149 -0.8331  1.0122  2.3233
 5100TIP3   OH236714   6.482   4.137   2.668 -0.2335  0.3126 -0.1461
 5100TIP3    H136715   6.570   4.114   2.639  0.4411 -1.5731  2.8802
 5100TIP3    H236716   6.429   4.060   2.646  0.3245 -1.2308  3.1536
 5101TIP3   OH236717   3.445   5.673   3.082  0.2734 -0.1314  0.8669
 5101TIP3    H136718   3.513   5.612   3.108  0.4930  0.1151  0.8725
 5101TIP3    H236719   3.431   5.655   2.989  0.3668 -0.1627  0.8593
 5102TIP3   OH236720   5.955   5.277  17.102 -0.0139 -0.2112  0.0510
 5102TIP3    H136721   5.949   5.290  17.008  1.6788 -1.6701 -0.3048
 5102TIP3    H236722   5.887   5.213  17.122  2.4702 -3.4911 -1.0582
 5103TIP3   OH236723   6.490   1.345  13.322 -0.0139  0.2891 -0.1706
 5103TIP3    H136724   6.519   1.277  13.262  0.3787  0.1679  0.1457
 5103TIP3    H236725   6.563   1.407  13.325 -0.3265  0.6649 -0.3749
 5104TIP3   OH236726   0.387   3.279   1.331 -0.2230 -0.3050  0.2711
 5104TIP3    H136727   0.453   3.348   1.344  0.0521 -0.5279  0.0690
 5104TIP3    H236728   0.361   3.254   1.420 -2.3192  1.9282  0.3901
 5105TIP3   OH236729   4.460   3.813   2.436 -0.0111 -0.2242 -0.7386
 5105TIP3    H136730   4.396   3.790   2.503 -1.9975  0.5161 -2.2753
 5105TIP3    H236731   4.478   3.906   2.451  1.6943 -0.7159  0.4389
 5106TIP3   OH236732   3.677   4.775   4.449  0.1434 -0.1411  0.9406
 5106TIP3    H136733   3.598   4.724   4.467 -0.2292  0.0984  0.0499
 5106TIP3    H236734   3.645   4.860   4.422  0.6116 -0.5950 -1.2348
 5107TIP3   OH236735   6.174   4.358   3.623 -0.0639  0.0156  1.2830
 5107TIP3    H136736   6.141   4.435   3.670 -2.5422  1.0784 -1.8276
 5107TIP3    H236737   6.260   4.385   3.590 -0.0949  0.7492  1.7773
 5108TIP3   OH236738   0.956   3.915   6.620  0.0217 -0.0090 -0.3838
 5108TIP3    H136739   1.036   3.940   6.666 -0.0189 -0.3657 -0.1212
 5108TIP3    H236740   0.885   3.938   6.681 -0.3526  3.3967 -1.8335
 5109TIP3   OH236741   3.744   4.017  17.387  0.1382 -0.2134 -0.3554
 5109TIP3    H136742   3.663   4.047  17.347  0.3859 -0.9922 -1.4753
 5109TIP3    H236743   3.717   3.980  17.471 -0.8045 -1.2654 -1.0856
 5110TIP3   OH236744   2.328   2.994  14.160  0.2565  0.4449 -0.8402
 5110TIP3    H136745   2.256   3.055  14.169  0.6173  0.7442  0.1327
 5110TIP3    H236746   2.380   3.029  14.087  0.6702  1.5242 -0.0485
 5111TIP3   OH236747   4.607   2.733  11.140  0.2404 -0.3895  0.2521
 5111TIP3    H136748   4.543   2.768  11.077  0.0716 -1.2339 -0.0514
 5111TIP3    H236749   4.584   2.776  11.222 -0.7189 -0.6633  0.1462
 5112TIP3   OH236750   0.872   4.923   3.689 -0.1994 -0.2716 -0.4107
 5112TIP3    H136751   0.934   4.937   3.618 -0.0206  1.3048  0.0254
 5112TIP3    H236752   0.911   4.967   3.764 -1.8500  0.7825 -0.1281
 5113TIP3   OH236753   2.419   6.194  13.829 -0.3965  0.2532  0.2828
 5113TIP3    H136754   2.372   6.152  13.902 -1.3753  1.1418  0.2033
 5113TIP3    H236755   2.506   6.155  13.830 -1.3944 -2.1919 -0.1535
 5114TIP3   OH236756   1.548   0.797   5.386 -0.3011  0.0120 -0.0560
 5114TIP3    H136757   1.528   0.735   5.316 -1.6621  1.0563 -0.6379
 5114TIP3    H236758   1.535   0.883   5.346  0.0044  0.6551  1.1722
 5115TIP3   OH236759   2.991   2.753   1.690  0.3452  0.2216  0.6637
 5115TIP3    H136760   2.976   2.834   1.641 -0.0830  0.1040  0.5999
 5115TIP3    H236761   3.072   2.718   1.653  0.4205  0.5116  0.5468
 5116TIP3   OH236762   3.726   6.251  15.627  0.0770  0.1912  0.7138
 5116TIP3    H136763   3.777   6.279  15.703  0.9151  0.3672  0.1089
 5116TIP3    H236764   3.723   6.329  15.571  1.0627 -0.4380 -0.2626
 5117TIP3   OH236765   5.595   3.279   5.088 -0.5541 -0.1651 -0.0626
 5117TIP3    H136766   5.519   3.301   5.142  1.0732  0.9319  1.9557
 5117TIP3    H236767   5.622   3.192   5.118 -0.2371  0.0183  0.1913
 5118TIP3   OH236768   0.165   1.624   3.730 -0.3134  0.4626 -0.0419
 5118TIP3    H136769   0.177   1.655   3.820  0.3465 -1.2435  0.5008
 5118TIP3    H236770   0.147   1.704   3.680  1.6139  1.7685  1.1906
 5119TIP3   OH236771   4.072   4.523   6.329 -0.2734 -0.4358 -0.1282
 5119TIP3    H136772   4.091   4.568   6.247  0.6362 -1.4027 -0.4806
 5119TIP3    H236773   4.140   4.456   6.336  1.1584  1.0959  2.5766
 5120TIP3   OH236774   3.598   2.666  15.513  0.4444 -0.2987  0.3561
 5120TIP3    H136775   3.635   2.689  15.428 -1.2696 -0.5720 -0.4973
 5120TIP3    H236776   3.544   2.589  15.496 -0.6609  0.1822  1.4954
 5121TIP3   OH236777   4.779   1.572   4.105 -0.2954 -0.2417  0.1571
 5121TIP3    H136778   4.689   1.602   4.092  0.7820  2.3189 -2.4731
 5121TIP3    H236779   4.790   1.499   4.044 -0.2514  0.2897 -0.4795
 5122TIP3   OH236780   4.450   0.200  16.352 -0.0528  0.3327  0.2905
 5122TIP3    H136781   4.518   0.213  16.286  0.6301  0.1179  0.9339
 5122TIP3    H236782   4.470   0.266  16.419 -0.7640  0.5794  0.2650
 5123TIP3   OH236783   0.909   0.708  14.065  0.6361  0.5351  0.1762
 5123TIP3    H136784   0.831   0.739  14.112  0.5563 -0.2253  0.5587
 5123TIP3    H236785   0.925   0.775  13.998 -0.6258  0.4736 -0.2178
 5124TIP3   OH236786   5.817   3.381  17.103  0.4872  0.4075  0.7480
 5124TIP3    H136787   5.812   3.287  17.122  1.1494  0.5230  1.5478
 5124TIP3    H236788   5.805   3.423  17.188 -0.9767  1.1066  0.2405
 5125TIP3   OH236789   5.088   1.011   0.727  0.5821  0.1663 -0.0619
 5125TIP3    H136790   5.171   0.963   0.721  0.6679  0.2701  0.2762
 5125TIP3    H236791   5.058   0.996   0.817  1.0727  1.5000  0.3455
 5126TIP3   OH236792   5.707   1.957  14.763  0.4048  0.4290  0.4048
 5126TIP3    H136793   5.654   1.981  14.687  0.8172 -0.7713 -0.2931
 5126TIP3    H236794   5.796   1.982  14.738  0.7637 -1.2332 -0.1245
 5127TIP3   OH236795   0.750   4.326  13.737 -0.8326  0.0477 -0.1103
 5127TIP3    H136796   0.699   4.247  13.751 -0.8642 -0.5564 -2.9274
 5127TIP3    H236797   0.693   4.397  13.766 -1.4002 -0.8553  1.0479
 5128TIP3   OH236798   3.260   4.068   0.061  0.5058 -0.1490  0.1979
 5128TIP3    H136799   3.219   4.006   0.120  0.9461 -0.2985  0.3502
 5128TIP3    H236800   3.354   4.047   0.064  0.4439 -0.7866 -1.2633
 5129TIP3   OH236801   2.108   5.670  13.778 -0.3094 -0.2267 -0.1377
 5129TIP3    H136802   2.174   5.669  13.709  0.9940  3.3394  0.8712
 5129TIP3    H236803   2.141   5.608  13.844 -0.6881 -2.3265 -1.8069
 5130TIP3   OH236804   4.419   6.243   5.716  0.0607 -0.5863 -0.3746
 5130TIP3    H136805   4.385   6.163   5.677 -2.1691  0.5852 -1.0499
 5130TIP3    H236806   4.383   6.244   5.805  1.4566 -1.1120  0.2088
 5131TIP3   OH236807   5.417   2.226  11.806 -0.0892 -0.2848 -0.3577
 5131TIP3    H136808   5.436   2.146  11.854  2.1872  0.2934 -0.1992
 5131TIP3    H236809   5.324   2.242  11.822  0.3743 -0.4718  3.3701
 5132TIP3   OH236810   0.823   4.806   2.931 -0.1052  0.4730 -0.3783
 5132TIP3    H136811   0.822   4.712   2.913  1.7266  0.3292  0.0787
 5132TIP3    H236812   0.913   4.825   2.958 -0.3873  2.3908 -0.5978
 5133TIP3   OH236813   3.407   2.087  12.652 -0.2187 -0.1810 -0.1329
 5133TIP3    H136814   3.457   2.146  12.595 -1.1394  0.5461 -0.2001
 5133TIP3    H236815   3.343   2.046  12.594 -1.9264  1.4224  0.5398
 5134TIP3   OH236816   6.322   5.128  16.668 -0.3734  0.0691  0.1450
 5134TIP3    H136817   6.321   5.039  16.703  0.0275 -0.8688 -2.1182
 5134TIP3    H236818   6.415   5.150  16.662 -0.4139  0.0019 -0.8200
 5135TIP3   OH236819   3.226   4.157   2.479  0.1386  0.3732 -0.1531
 5135TIP3    H136820   3.168   4.083   2.498  0.3892 -0.3754 -2.0651
 5135TIP3    H236821   3.226   4.163   2.383  0.5496  2.5318 -0.0559
 5136TIP3   OH236822   5.068   3.828  13.103 -0.0922  0.1582  0.6017
 5136TIP3    H136823   5.084   3.735  13.086  0.5141  0.3677 -0.0438
 5136TIP3    H236824   5.086   3.839  13.196  0.1153 -0.3137  0.6210
 5137TIP3   OH236825   5.744   6.042  17.606 -0.3845 -0.3369  0.1520
 5137TIP3    H136826   5.655   6.009  17.594  0.0334 -0.8377 -1.8609
 5137TIP3    H236827   5.782   5.984  17.672 -1.2929 -0.6119  0.4515
 5138TIP3   OH236828   2.770   0.750   1.970 -0.3976 -0.2703  0.2733
 5138TIP3    H136829   2.800   0.719   1.885  0.5956  0.3230  0.3855
 5138TIP3    H236830   2.851   0.775   2.016 -1.0569  1.4881  0.5554
 5139TIP3   OH236831   1.838   6.240   3.702  0.5279  0.8364  0.5033
 5139TIP3    H136832   1.914   6.190   3.672  0.5401  1.4970 -0.6394
 5139TIP3    H236833   1.858   6.264   3.792  1.5556  0.7721  0.3035
 5140TIP3   OH236834   6.323   4.581   3.296 -0.5826  0.9615 -0.2237
 5140TIP3    H136835   6.382   4.577   3.220  1.0636 -1.6270  1.0603
 5140TIP3    H236836   6.256   4.516   3.277  0.5929 -0.7004  1.0252
 5141TIP3   OH236837   2.959   3.093  14.560 -0.4276 -0.7320 -0.4219
 5141TIP3    H136838   2.904   3.160  14.520 -3.3217 -2.0944  0.9282
 5141TIP3    H236839   2.997   3.135  14.637  1.7894  0.6651 -2.1555
 5142TIP3   OH236840   6.667   3.758   5.863  0.0719 -0.2972  0.3068
 5142TIP3    H136841   6.586   3.712   5.884  0.1117  0.2774  1.7893
 5142TIP3    H236842   6.657   3.845   5.901  2.1405 -0.8126  2.2561
 5143TIP3   OH236843   1.863   4.473   1.259  0.4593  0.0325 -0.5428
 5143TIP3    H136844   1.873   4.446   1.350  1.2576  1.5658 -0.1433
 5143TIP3    H236845   1.772   4.503   1.252  0.1472 -0.8797 -0.4884
 5144TIP3   OH236846   1.794   0.035  11.215 -0.0198  0.1313  0.5685
 5144TIP3    H136847   1.808  -0.033  11.281  0.9610 -0.3978 -0.1676
 5144TIP3    H236848   1.708   0.015  11.177 -1.0300  0.9671  2.2612
 5145TIP3   OH236849   4.104   2.112  13.367  0.1153 -0.0698 -0.2541
 5145TIP3    H136850   4.130   2.192  13.412  1.4073 -0.7134  0.1835
 5145TIP3    H236851   4.043   2.069  13.427  0.7605 -0.2485  0.2773
 5146TIP3   OH236852   2.107   1.116  11.180 -0.1006  0.0592 -0.3250
 5146TIP3    H136853   2.183   1.160  11.142  0.4941 -0.9919 -0.3819
 5146TIP3    H236854   2.134   1.025  11.190 -0.7514  0.0091  1.2575
 5147TIP3   OH236855   1.667   1.906  12.147 -0.2199  0.1048  0.1846
 5147TIP3    H136856   1.731   1.895  12.077 -0.8097 -0.5584 -0.2547
 5147TIP3    H236857   1.614   1.981  12.120 -0.8020 -0.4888 -0.3730
 5148TIP3   OH236858   0.375   2.397   3.156  0.0167  0.3680 -0.0084
 5148TIP3    H136859   0.366   2.349   3.074 -0.7795  0.3347  0.0986
 5148TIP3    H236860   0.469   2.415   3.162  0.0304  0.7969 -1.1705
 5149TIP3   OH236861   1.957   5.679   1.593  0.3831  0.0376 -0.1260
 5149TIP3    H136862   1.983   5.670   1.501  0.8384  1.1644 -0.1271
 5149TIP3    H236863   1.909   5.762   1.595  0.5524  0.1165  0.6980
 5150TIP3   OH236864   5.569   4.155  13.760 -0.6544 -0.4049  0.1993
 5150TIP3    H136865   5.636   4.188  13.699  0.1044 -0.3985  1.0153
 5150TIP3    H236866   5.521   4.233  13.787  0.0562 -0.1822  0.8412
 5151TIP3   OH236867   0.163   5.783  13.191 -0.1519  0.3996  0.2113
 5151TIP3    H136868   0.222   5.708  13.186  1.3717  1.5665 -0.0181
 5151TIP3    H236869   0.126   5.778  13.279  0.3080 -0.3573  0.3702
 5152TIP3   OH236870   4.374   0.898   3.402  0.1651 -0.0177 -0.0336
 5152TIP3    H136871   4.291   0.871   3.363  0.1605  0.2673 -0.2237
 5152TIP3    H236872   4.400   0.824   3.457 -1.2404  0.6672  1.6657
 5153TIP3   OH236873   1.586   6.336  15.614 -0.6705  0.1234  0.0952
 5153TIP3    H136874   1.513   6.396  15.632  0.7599  2.0013 -0.1042
 5153TIP3    H236875   1.664   6.391  15.616  0.9427 -2.0039  1.5651
 5154TIP3   OH236876   0.001   4.489   1.698 -0.0274  0.1511 -0.3809
 5154TIP3    H136877   0.017   4.398   1.723  1.9253  0.7079  0.6094
 5154TIP3    H236878   0.084   4.519   1.661 -0.0442  2.0588  0.9825
 5155TIP3   OH236879   0.456   5.975  12.010 -0.0213 -0.1130  0.2077
 5155TIP3    H136880   0.551   5.977  12.016  0.2465  0.8371 -2.5599
 5155TIP3    H236881   0.426   5.974  12.101  2.6041 -0.2696  1.1675
 5156TIP3   OH236882   4.603   5.057   1.720 -0.3509 -0.0688  0.1915
 5156TIP3    H136883   4.557   4.973   1.728 -0.4527 -0.0743 -0.4169
 5156TIP3    H236884   4.633   5.076   1.809 -0.1592 -0.8440  0.3002
 5157TIP3   OH236885   3.324   4.341  14.187  0.2893 -0.5444 -0.2130
 5157TIP3    H136886   3.408   4.361  14.144  0.2393  1.3918  0.4669
 5157TIP3    H236887   3.325   4.395  14.266 -1.6291 -0.4312 -0.2308
 5158TIP3   OH236888   2.307   6.292  15.031 -0.5347  0.3076 -0.0244
 5158TIP3    H136889   2.306   6.198  15.010 -2.0143 -0.0423  1.4512
 5158TIP3    H236890   2.217   6.320  15.016 -0.7161  0.9025  1.9682
 5159TIP3   OH236891   1.831   3.473  16.813  0.5916 -0.0750 -0.2283
 5159TIP3    H136892   1.738   3.469  16.835  0.3967  1.8626 -0.5205
 5159TIP3    H236893   1.875   3.494  16.895  0.5006  1.3160 -0.5190
 5160TIP3   OH236894   3.641   5.861   2.137 -0.0127 -0.0666 -0.5912
 5160TIP3    H136895   3.563   5.867   2.193  0.8722  1.5306  0.5444
 5160TIP3    H236896   3.704   5.814   2.191  0.2908 -0.0375 -0.9234
 5161TIP3   OH236897   2.352   6.131   1.241  0.3781 -0.3602  0.3399
 5161TIP3    H136898   2.378   6.039   1.243  0.1048 -0.4354  0.4379
 5161TIP3    H236899   2.363   6.157   1.150 -0.0073 -0.6221  0.2159
 5162TIP3   OH236900   3.067   6.065   3.148 -1.0267  0.0235 -0.1641
 5162TIP3    H136901   2.997   6.055   3.083 -0.7716 -1.4476 -0.2256
 5162TIP3    H236902   3.147   6.058   3.097 -0.8165  0.9532  0.0211
 5163TIP3   OH236903   2.251   3.388  12.651  0.1921  0.4349  0.2546
 5163TIP3    H136904   2.165   3.429  12.639  0.4252  0.5269 -1.3910
 5163TIP3    H236905   2.264   3.387  12.746 -1.7604  0.1113  0.5663
 5164TIP3   OH236906   0.489   2.767   6.139 -0.3094 -0.5529 -0.2980
 5164TIP3    H136907   0.547   2.694   6.159  0.7120  0.7754  2.0223
 5164TIP3    H236908   0.472   2.808   6.224 -2.8948  0.4353 -1.1945
 5165TIP3   OH236909   4.164   5.253  13.125  0.8339  0.4546  0.2846
 5165TIP3    H136910   4.079   5.270  13.165 -0.1320 -0.3024 -1.3503
 5165TIP3    H236911   4.216   5.332  13.144 -1.3174  2.4134 -1.4843
 5166TIP3   OH236912   6.106   2.886  14.972  0.0873  0.7099 -0.0532
 5166TIP3    H136913   6.084   2.793  14.970  1.8699  0.2788 -1.6213
 5166TIP3    H236914   6.188   2.891  15.021  0.3954  1.3712 -0.6170
 5167TIP3   OH236915   0.650   0.498  12.232 -0.0349 -0.2270 -0.0981
 5167TIP3    H136916   0.579   0.510  12.169 -0.3155  0.8385  0.4092
 5167TIP3    H236917   0.718   0.559  12.204 -0.7176  1.2961  1.4009
 5168TIP3   OH236918   2.007   2.317  16.769  0.1193  0.1074  0.7496
 5168TIP3    H136919   2.052   2.254  16.826 -0.4286  0.8371  2.0040
 5168TIP3    H236920   1.917   2.318  16.800 -0.2751  0.2618 -0.3622
 5169TIP3   OH236921   6.080   5.871   0.906  0.2577  0.5631 -0.0346
 5169TIP3    H136922   6.018   5.933   0.944 -0.0925  1.2820 -1.7049
 5169TIP3    H236923   6.045   5.785   0.929 -0.6180  0.9703  0.2030
 5170TIP3   OH236924   0.015   4.989  14.850 -0.2310  0.2190 -0.0457
 5170TIP3    H136925  -0.039   4.927  14.898 -0.1849  0.1255 -0.1148
 5170TIP3    H236926   0.003   5.072  14.896 -0.4318  0.1979 -0.0584
 5171TIP3   OH236927   3.955   0.248  15.217  0.1805  0.4237 -0.0781
 5171TIP3    H136928   3.965   0.301  15.296 -1.0610  1.2085 -0.4253
 5171TIP3    H236929   4.027   0.277  15.160  0.3122  0.7677  0.2573
 5172TIP3   OH236930   0.520   1.414   0.616 -0.6841  0.2130  0.6508
 5172TIP3    H136931   0.565   1.457   0.689 -0.2259  0.4843  0.2159
 5172TIP3    H236932   0.580   1.343   0.590 -0.3742  0.7268 -0.0900
 5173TIP3   OH236933   3.643   0.637   3.430 -0.3714 -0.1309  0.2032
 5173TIP3    H136934   3.569   0.677   3.476 -0.3763  2.1606 -1.6544
 5173TIP3    H236935   3.716   0.697   3.444  0.8730 -1.7418  0.9855
 5174TIP3   OH236936   4.752   6.329  16.596 -0.2044  0.0389  0.4713
 5174TIP3    H136937   4.714   6.409  16.559 -3.2363 -0.4744  2.1753
 5174TIP3    H236938   4.687   6.261  16.577  0.3558 -1.1677  2.6217
 5175TIP3   OH236939   2.042   2.516   3.609 -0.0427  0.5539  0.2050
 5175TIP3    H136940   2.083   2.576   3.672  0.1024  1.0465 -0.3555
 5175TIP3    H236941   1.984   2.572   3.558  2.2467  0.8580 -2.3005
 5176TIP3   OH236942   3.633   5.842   6.496 -0.1662 -0.4100 -0.1102
 5176TIP3    H136943   3.712   5.813   6.452  0.9668 -0.2251  1.7187
 5176TIP3    H236944   3.571   5.859   6.425  1.5345 -0.1953 -1.6028
 5177TIP3   OH236945   3.646   1.875   2.969 -0.1555 -0.0834 -1.1440
 5177TIP3    H136946   3.604   1.958   2.990  1.8587  0.3594  1.6565
 5177TIP3    H236947   3.653   1.875   2.874 -0.2725  2.9251 -1.2501
 5178TIP3   OH236948   4.181   2.775  13.036 -0.3668  0.3996  0.1378
 5178TIP3    H136949   4.143   2.861  13.019  0.9587  0.7802 -1.1103
 5178TIP3    H236950   4.225   2.785  13.121 -1.1185  0.6101  0.5128
 5179TIP3   OH236951   5.867   5.382  17.593  0.0860  0.1397  0.4182
 5179TIP3    H136952   5.877   5.370  17.688  0.1652 -0.2108  0.3649
 5179TIP3    H236953   5.941   5.437  17.568  0.1524  0.1030  0.5335
 5180TIP3   OH236954   0.230   4.722   3.230 -0.5891 -0.4721 -0.2717
 5180TIP3    H136955   0.256   4.740   3.140 -1.9395 -0.1944 -0.6310
 5180TIP3    H236956   0.164   4.789   3.249 -1.4721 -1.5041  0.3727
 5181TIP3   OH236957   1.126   4.953  16.936  0.2152  0.4345 -0.3896
 5181TIP3    H136958   1.055   4.958  16.872  0.3953 -0.1821 -0.6459
 5181TIP3    H236959   1.169   5.039  16.931 -0.7700  0.9594  0.0731
 5182TIP3   OH236960   1.959   4.625  14.473  0.0732  0.2728 -0.0636
 5182TIP3    H136961   1.897   4.610  14.402 -0.9382 -0.6704  0.9876
 5182TIP3    H236962   1.937   4.713  14.505  0.4645  0.6585 -0.8303
 5183TIP3   OH236963   3.005   1.343   0.975 -0.5433  0.0384 -0.2371
 5183TIP3    H136964   3.086   1.376   1.014  0.0775 -0.4923 -1.0582
 5183TIP3    H236965   2.940   1.411   0.994 -0.2776 -0.2054  1.7013
 5184TIP3   OH236966   3.462   2.887  17.580  0.2120  0.3364  0.7276
 5184TIP3    H136967   3.542   2.931  17.552  0.5460 -0.3140  0.6388
 5184TIP3    H236968   3.492   2.819  17.640  0.2209 -2.6684 -2.3815
 5185TIP3   OH236969   5.460   1.560   2.258  0.3331  0.5774  0.0755
 5185TIP3    H136970   5.533   1.613   2.290  0.0668  1.1734 -0.2946
 5185TIP3    H236971   5.383   1.597   2.300  0.1334  0.5301 -0.2470
 5186TIP3   OH236972   3.099   0.448   2.609 -0.0673  0.0194  0.4555
 5186TIP3    H136973   3.036   0.485   2.671 -2.1836  1.4221 -2.3047
 5186TIP3    H236974   3.180   0.497   2.624 -1.1538  1.7898  0.7481
 5187TIP3   OH236975   6.583   5.212   2.255  0.3812  0.3166 -0.4445
 5187TIP3    H136976   6.610   5.216   2.347  0.0145 -1.1560 -0.2529
 5187TIP3    H236977   6.665   5.222   2.206  0.6690  0.4367  0.0523
 5188TIP3   OH236978   6.247   3.545   4.261 -0.5066 -0.1890  0.1604
 5188TIP3    H136979   6.237   3.475   4.196  0.6633 -0.0972 -0.1539
 5188TIP3    H236980   6.172   3.536   4.319 -1.6876 -0.1840 -1.2993
 5189TIP3   OH236981   4.634   2.860  12.628  0.2947 -0.1647  0.5027
 5189TIP3    H136982   4.598   2.844  12.716  0.8277  1.0493  0.9597
 5189TIP3    H236983   4.688   2.938  12.638 -0.3727  0.5497 -1.1189
 5190TIP3   OH236984   6.464   0.781   0.494 -0.2062  0.3559  0.0854
 5190TIP3    H136985   6.543   0.731   0.516 -1.6348 -1.7466  0.7722
 5190TIP3    H236986   6.419   0.726   0.430 -0.9138  1.7333 -0.6295
 5191TIP3   OH236987   2.459   3.152  15.021  0.3985 -0.5287  0.3345
 5191TIP3    H136988   2.522   3.191  15.081 -0.2551  1.4641 -0.2031
 5191TIP3    H236989   2.512   3.117  14.949  1.0612 -1.4837  1.2593
 5192TIP3   OH236990   5.469   0.541  12.176 -0.1490  0.0408  0.1564
 5192TIP3    H136991   5.454   0.478  12.246  0.2811  0.4576  0.6329
 5192TIP3    H236992   5.384   0.583  12.163 -0.0951  0.3728  0.8406
 5193TIP3   OH236993   4.193   3.529  11.945 -0.3407  0.9020  0.5129
 5193TIP3    H136994   4.173   3.509  11.854 -1.3551  1.5291  0.5878
 5193TIP3    H236995   4.225   3.446  11.981  0.3403  0.7160 -0.4727
 5194TIP3   OH236996   0.236   1.876   3.592 -0.7348  0.0308  0.2619
 5194TIP3    H136997   0.262   1.910   3.678  1.0295 -1.3626  0.3209
 5194TIP3    H236998   0.318   1.860   3.546 -1.5745 -1.7281 -0.7131
 5195TIP3   OH236999   2.335   3.691   3.412 -0.2368  0.0471  0.6814
 5195TIP3    H137000   2.417   3.739   3.401  0.8130 -2.0082 -1.1532
 5195TIP3    H237001   2.345   3.647   3.497  0.8477 -0.6442  0.2200
 5196TIP3   OH237002   5.430   4.113   5.359 -0.3884 -0.5017 -0.0876
 5196TIP3    H137003   5.480   4.170   5.416 -1.3226 -0.0962  0.3470
 5196TIP3    H237004   5.496   4.060   5.314  0.4253  0.1114  0.3593
 5197TIP3   OH237005   1.974   0.121   4.014 -0.1463  0.0288  0.0053
 5197TIP3    H137006   1.891   0.163   3.991  0.4277  2.1419  1.5580
 5197TIP3    H237007   2.040   0.189   4.001  1.1969 -1.2373  0.0076
 5198TIP3   OH237008   2.685   3.489   1.066 -0.2473 -0.1447 -0.3861
 5198TIP3    H137009   2.619   3.422   1.047 -2.0808  1.0211  1.4617
 5198TIP3    H237010   2.709   3.474   1.157  0.2956  0.9181 -0.3376
 5199TIP3   OH237011   6.326   6.189  16.555 -0.8405  0.0584  0.0986
 5199TIP3    H137012   6.384   6.193  16.631 -1.7009  1.4687  0.7191
 5199TIP3    H237013   6.268   6.115  16.573  1.2017 -1.8911 -0.9102
 5200TIP3   OH237014   2.821   3.184   1.319 -0.3700  0.1989 -0.6637
 5200TIP3    H137015   2.778   3.269   1.330 -0.0833  0.5373 -1.9792
 5200TIP3    H237016   2.754   3.120   1.342 -1.6169  0.7189 -2.6282
 5201TIP3   OH237017   3.264   1.856  13.362  0.1472 -0.1677  0.0358
 5201TIP3    H137018   3.338   1.803  13.393  0.0127  0.3795  1.3602
 5201TIP3    H237019   3.292   1.947  13.377  0.2985  0.1822 -2.0200
 5202TIP3   OH237020   5.024   1.665   6.077  0.1124  0.0242  0.0869
 5202TIP3    H137021   4.990   1.705   6.157  1.0491  0.9246  0.0687
 5202TIP3    H237022   5.071   1.587   6.107 -1.6422 -1.0572  0.1379
 5203TIP3   OH237023   3.880   6.580   2.502 -0.0244  0.0111 -0.0034
 5203TIP3    H137024   3.865   6.674   2.509  2.2712  0.5863 -1.8251
 5203TIP3    H237025   3.855   6.558   2.412 -0.3478 -1.1092  0.3369
 5204TIP3   OH237026   1.847   5.457  17.587 -0.0479  0.6712 -0.2551
 5204TIP3    H137027   1.905   5.385  17.564  0.1596  1.0267 -0.8803
 5204TIP3    H237028   1.810   5.486  17.503 -0.4994  0.9765  0.0412
 5205TIP3   OH237029   5.067   4.225  17.202  0.0702 -0.0036 -0.3262
 5205TIP3    H137030   5.092   4.197  17.114  2.1610  0.3339  0.1103
 5205TIP3    H237031   5.150   4.244  17.246 -1.0110  2.6252  0.8145
 5206TIP3   OH237032   0.907   1.062  15.895 -0.6568 -0.3937 -0.6692
 5206TIP3    H137033   0.916   1.158  15.894  0.7626 -0.5006 -0.5817
 5206TIP3    H237034   0.883   1.039  15.805  1.5025 -0.1166 -1.3888
 5207TIP3   OH237035   5.751   3.577   4.236 -0.4027  0.3013  0.3622
 5207TIP3    H137036   5.670   3.622   4.212 -0.4921 -0.3939 -0.7505
 5207TIP3    H237037   5.820   3.642   4.221 -0.6840  0.6282  0.4883
 5208TIP3   OH237038   2.432   3.205   4.410 -0.0097 -0.0498  0.7168
 5208TIP3    H137039   2.392   3.285   4.376  0.8158  0.9964  2.0826
 5208TIP3    H237040   2.388   3.190   4.494 -3.1568 -3.4753 -1.2152
 5209TIP3   OH237041   3.874   2.448  13.409  0.4111  0.0041  0.2148
 5209TIP3    H137042   3.952   2.500  13.389  1.0878 -1.1892 -0.3605
 5209TIP3    H237043   3.810   2.512  13.441  1.7233  0.9680  1.0161
 5210TIP3   OH237044   1.749   2.996  15.630  0.6042  0.1473 -0.3507
 5210TIP3    H137045   1.790   2.919  15.591  1.2288  0.6256 -0.6542
 5210TIP3    H237046   1.780   2.997  15.720 -0.5021 -0.7199  0.0606
 5211TIP3   OH237047   4.136   2.327   2.948  0.4899  0.5651  0.2223
 5211TIP3    H137048   4.125   2.405   3.003  1.0364  0.0599  1.0685
 5211TIP3    H237049   4.164   2.362   2.863 -1.0694  1.4083  0.0083
 5212TIP3   OH237050   2.048   0.495   0.603 -0.2535  0.5745 -0.6795
 5212TIP3    H137051   1.983   0.426   0.592 -1.6983  1.5820  1.0610
 5212TIP3    H237052   2.094   0.472   0.684  0.2329  0.9010 -0.8624
 5213TIP3   OH237053   6.272   3.235   5.334  0.3681 -0.2221  0.1425
 5213TIP3    H137054   6.262   3.177   5.259  1.0305  0.6161 -0.6032
 5213TIP3    H237055   6.239   3.184   5.408  1.1647 -1.6386 -0.4528
 5214TIP3   OH237056   0.741   4.432  15.582 -0.2287 -0.1435 -0.3651
 5214TIP3    H137057   0.782   4.443  15.668  1.4583 -0.7825 -1.0530
 5214TIP3    H237058   0.810   4.397  15.527  0.1582  4.2641 -3.1882
 5215TIP3   OH237059   2.906   5.722  14.892  0.0721  0.0688  0.1176
 5215TIP3    H137060   2.980   5.760  14.939 -0.8659  1.9973  0.1590
 5215TIP3    H237061   2.842   5.793  14.887 -1.6328 -1.4112 -0.2526
 5216TIP3   OH237062   3.345   0.825  14.026  0.6795 -0.0649  0.1254
 5216TIP3    H137063   3.363   0.834  13.932  0.7867  0.7812  0.2176
 5216TIP3    H237064   3.253   0.850  14.035  0.6613 -0.1737  0.2396
 5217TIP3   OH237065   5.733   3.064  14.854  0.2912 -0.1209  0.1270
 5217TIP3    H137066   5.767   3.036  14.938 -1.2769 -0.5861  0.6359
 5217TIP3    H237067   5.700   2.984  14.813  1.6491 -0.0293 -1.2709
 5218TIP3   OH237068   1.001   5.823  14.050 -0.1256 -0.0886 -0.4121
 5218TIP3    H137069   1.054   5.830  13.971  1.7106  0.0113  0.7884
 5218TIP3    H237070   1.064   5.816  14.121 -1.7397 -0.7232  1.0167
 5219TIP3   OH237071   0.689   5.895  16.356 -0.5001 -0.5105 -0.0590
 5219TIP3    H137072   0.783   5.902  16.338 -0.5515 -0.8370 -0.4628
 5219TIP3    H237073   0.659   5.986  16.365 -0.4309 -0.3428 -1.4257
 5220TIP3   OH237074   0.937   5.954   1.509  0.3809  0.0309  0.3186
 5220TIP3    H137075   0.988   6.026   1.546 -0.5958  0.4081  0.9579
 5220TIP3    H237076   0.872   5.997   1.453 -0.7808 -0.2819  1.3977
 5221TIP3   OH237077   0.081   4.220  12.195  0.0649 -0.3949  0.6131
 5221TIP3    H137078  -0.005   4.261  12.195  0.3623  0.2369  0.7270
 5221TIP3    H237079   0.101   4.206  12.102 -0.4661 -1.2127  0.6104
 5222TIP3   OH237080   2.904   1.375   0.647  0.0590 -0.6636  0.1523
 5222TIP3    H137081   2.892   1.313   0.719  1.3770 -1.2812 -0.1155
 5222TIP3    H237082   2.953   1.325   0.581 -0.7738  0.0032 -1.0111
 5223TIP3   OH237083   6.538   4.880  13.672 -0.1785 -0.0970  0.5797
 5223TIP3    H137084   6.464   4.936  13.646 -1.1783 -1.2997  0.7751
 5223TIP3    H237085   6.594   4.938  13.724  0.4536  1.6088 -1.8228
 5224TIP3   OH237086   3.760   5.482  14.880 -0.0107 -0.9003  0.0260
 5224TIP3    H137087   3.715   5.529  14.949 -0.7892  0.1186 -1.1320
 5224TIP3    H237088   3.759   5.542  14.805  1.9023 -1.4637 -0.5216
 5225TIP3   OH237089   0.704   4.143   2.128 -0.0607 -0.2272  0.3827
 5225TIP3    H137090   0.638   4.081   2.161 -0.7860 -0.6037 -1.6058
 5225TIP3    H237091   0.682   4.153   2.035  0.8073  2.0842  0.3755
 5226TIP3   OH237092   1.224   1.055   3.792 -0.3825 -0.2692  0.3070
 5226TIP3    H137093   1.136   1.089   3.779 -0.2423 -0.0592 -0.1031
 5226TIP3    H237094   1.241   0.999   3.716 -0.5185 -1.0813  0.8516
 5227TIP3   OH237095   4.207   0.284  11.792  0.6559  0.4201 -0.1126
 5227TIP3    H137096   4.132   0.225  11.798  0.8277  0.0396 -1.4992
 5227TIP3    H237097   4.168   0.369  11.771  0.6393  0.1076 -1.3896
 5228TIP3   OH237098   4.407   5.188  11.572 -0.4349 -0.2167  0.1323
 5228TIP3    H137099   4.332   5.159  11.624 -0.4983  0.7021  0.5624
 5228TIP3    H237100   4.403   5.134  11.493 -2.8850  1.3212 -0.8992
 5229TIP3   OH237101   0.487   2.391  12.261 -0.0582  0.3193  0.3986
 5229TIP3    H137102   0.510   2.301  12.239  0.2735  0.1383  1.4676
 5229TIP3    H237103   0.502   2.440  12.179  0.1695 -0.5133 -0.0661
 5230TIP3   OH237104   5.227   5.813  15.967  0.2196  0.6346  0.1246
 5230TIP3    H137105   5.292   5.883  15.961  1.2577 -0.2918  0.3990
 5230TIP3    H237106   5.203   5.795  15.876  0.0199  1.2608  0.0449
 5231TIP3   OH237107   6.130   6.384   4.121  0.1811  0.6774  0.3868
 5231TIP3    H137108   6.060   6.348   4.067  0.5121  2.1797 -1.1137
 5231TIP3    H237109   6.106   6.359   4.211 -0.3442 -1.9455 -0.3955
 5232TIP3   OH237110   0.985   1.546   3.454 -0.2629  0.0361 -0.4070
 5232TIP3    H137111   0.965   1.639   3.443 -0.2655  0.1604  0.5066
 5232TIP3    H237112   1.079   1.544   3.473 -0.4157 -0.0637  0.3681
 5233TIP3   OH237113   1.104   5.122  17.519 -0.2395 -0.0791  0.3908
 5233TIP3    H137114   1.099   5.027  17.534 -0.4899 -0.0811  0.3087
 5233TIP3    H237115   1.109   5.130  17.424  2.1339 -0.1063  0.4721
 5234TIP3   OH237116   3.430   2.730   1.261 -0.1108  0.2593 -0.3537
 5234TIP3    H137117   3.348   2.778   1.268  0.7762  1.7194  0.5583
 5234TIP3    H237118   3.431   2.674   1.339 -0.8898 -0.8733 -1.1305
 5235TIP3   OH237119   4.911   2.534  15.440 -0.4841  0.2373  0.5028
 5235TIP3    H137120   4.841   2.568  15.496  0.2193  0.1478  1.4503
 5235TIP3    H237121   4.991   2.549  15.489  0.4073  2.0456 -1.3527
 5236TIP3   OH237122   0.067   3.020  17.629 -0.1427  0.1339  0.6469
 5236TIP3    H137123   0.110   2.957  17.570 -1.0422 -0.2495  0.3712
 5236TIP3    H237124   0.041   3.092  17.572 -0.3301  0.1133  0.7034
 5237TIP3   OH237125   6.209   3.907  14.523 -0.1040  0.7566 -0.0844
 5237TIP3    H137126   6.120   3.943  14.523 -0.5086 -0.2006  0.6650
 5237TIP3    H237127   6.198   3.817  14.493  0.4537  0.2830  1.0796
 5238TIP3   OH237128   4.487   6.021   1.098  0.0777 -0.1475  0.1483
 5238TIP3    H137129   4.513   6.095   1.154  2.9562 -0.7582 -0.1814
 5238TIP3    H237130   4.394   6.034   1.082  0.2500  2.8579  0.9225
 5239TIP3   OH237131   5.580   1.762  13.891 -0.0444  0.4278  0.3565
 5239TIP3    H137132   5.631   1.828  13.938 -0.1948  1.9274 -1.4596
 5239TIP3    H237133   5.517   1.813  13.840 -1.6359 -1.2665  0.5487
 5240TIP3   OH237134   5.788   6.067  12.640  0.3560 -0.1655  0.2469
 5240TIP3    H137135   5.776   6.045  12.732 -0.2066  0.0131  0.2245
 5240TIP3    H237136   5.875   6.106  12.635  0.1283  0.4482  0.8297
 5241TIP3   OH237137   5.562   5.405   3.833  0.0562 -0.2512 -0.5460
 5241TIP3    H137138   5.562   5.387   3.739  0.5827  0.5663 -0.7096
 5241TIP3    H237139   5.639   5.461   3.847  0.0721 -0.4922  0.3960
 5242TIP3   OH237140   2.053   1.950  16.787 -0.3358 -0.0532 -0.3254
 5242TIP3    H137141   1.960   1.929  16.785  0.0786 -2.3071  0.5776
 5242TIP3    H237142   2.090   1.887  16.849  1.5752  1.7468  0.4814
 5243TIP3   OH237143   5.895   2.645  11.023 -0.5726  0.2306  0.5966
 5243TIP3    H137144   5.904   2.738  11.044  0.7853  0.4533 -0.7882
 5243TIP3    H237145   5.819   2.640  10.964 -1.2201  0.3181  1.4165
 5244TIP3   OH237146   0.990   2.473   3.851  0.6085  0.2056  0.2050
 5244TIP3    H137147   0.902   2.439   3.871  0.0537  1.0186 -0.7555
 5244TIP3    H237148   1.028   2.493   3.937  0.0278 -0.5713  0.6524
 5245TIP3   OH237149   1.526   0.168   0.457  0.5264 -0.3826 -0.3457
 5245TIP3    H137150   1.481   0.135   0.535  0.4674 -0.0837 -0.2499
 5245TIP3    H237151   1.618   0.150   0.472  0.3911 -1.4629 -0.7701
 5246TIP3   OH237152   3.953   0.330  14.897 -0.2107  0.8068  0.0046
 5246TIP3    H137153   3.881   0.322  14.834 -0.3250  0.2208  0.2024
 5246TIP3    H237154   3.976   0.239  14.918  0.5427  0.9914 -0.0056
 5247TIP3   OH237155   0.360   3.042  16.832  0.3185 -0.1377 -0.4160
 5247TIP3    H137156   0.395   3.130  16.849 -0.2413  0.4429 -2.0657
 5247TIP3    H237157   0.425   2.983  16.869 -0.6928  0.8964  3.5650
 5248TIP3   OH237158   1.612   0.957   6.342 -0.1074 -0.0455  0.3539
 5248TIP3    H137159   1.691   0.909   6.368 -0.5364  0.1920  2.2518
 5248TIP3    H237160   1.627   1.046   6.373 -0.4444  0.4230 -0.7769
 5249TIP3   OH237161   0.869   4.391  14.276  0.7124  0.1458  0.0957
 5249TIP3    H137162   0.826   4.315  14.316  2.3035 -0.4445  0.7701
 5249TIP3    H237163   0.952   4.400  14.323  0.1862  2.9031  0.6509
 5250TIP3   OH237164   0.581   3.794   5.517 -0.1565 -0.5218 -0.4941
 5250TIP3    H137165   0.659   3.850   5.512  0.8259 -1.7671  0.3436
 5250TIP3    H237166   0.535   3.825   5.595  0.3192 -0.7742 -0.1040
 5251TIP3   OH237167   3.548   6.671  17.272  0.3499  0.4167  0.3667
 5251TIP3    H137168   3.639   6.695  17.254  0.8780 -1.3678  0.4554
 5251TIP3    H237169   3.543   6.579  17.250 -1.2554  0.2955  1.0952
 5252TIP3   OH237170   0.635   1.943  15.930 -0.1295 -0.5108 -0.3930
 5252TIP3    H137171   0.648   1.957  16.023  1.0259  0.0827 -0.6366
 5252TIP3    H237172   0.651   1.849  15.917  1.4909 -0.2653 -0.2723
 5253TIP3   OH237173   1.977   4.205   1.711 -0.0101  0.0511 -0.3571
 5253TIP3    H137174   2.055   4.150   1.703  0.6340  1.0352 -1.0890
 5253TIP3    H237175   2.001   4.270   1.777 -0.4703 -0.0373 -0.0954
 5254TIP3   OH237176   2.699   2.613   5.768 -0.0504  0.1507 -0.2138
 5254TIP3    H137177   2.695   2.638   5.676  0.6017 -0.2523 -0.3615
 5254TIP3    H237178   2.648   2.679   5.814 -0.8152  0.0624 -0.9210
 5255TIP3   OH237179   5.681   3.245  14.447 -0.7879 -0.0490  0.0741
 5255TIP3    H137180   5.703   3.239  14.354  1.8499 -2.5588  0.7094
 5255TIP3    H237181   5.616   3.176  14.461  1.0612 -1.7980  0.5281
 5256TIP3   OH237182   0.736   3.495   3.070 -0.7654 -0.0453 -0.1904
 5256TIP3    H137183   0.670   3.562   3.089 -1.1442 -0.5993  0.4694
 5256TIP3    H237184   0.817   3.529   3.108 -1.0373 -0.1295  0.4640
 5257TIP3   OH237185   0.152   5.995  13.784 -0.2095 -0.1925 -0.0368
 5257TIP3    H137186   0.187   5.951  13.706 -2.0722 -2.9686  0.5152
 5257TIP3    H237187   0.224   6.050  13.815  0.8473  0.4495 -3.2341
 5258TIP3   OH237188   1.092   4.602   6.404  0.3930 -0.3453 -0.6787
 5258TIP3    H137189   1.117   4.686   6.365 -1.8135 -0.1067 -1.7319
 5258TIP3    H237190   1.102   4.615   6.498 -0.0621  1.1755 -0.8122
 5259TIP3   OH237191   3.194   5.147   5.792 -0.6076 -0.0698 -0.2652
 5259TIP3    H137192   3.169   5.113   5.707 -1.2249 -0.7535  0.1801
 5259TIP3    H237193   3.118   5.199   5.820 -0.6957 -0.4345  0.1776
 5260TIP3   OH237194   5.508   3.644  14.624 -0.2155 -0.4286 -0.3842
 5260TIP3    H137195   5.437   3.688  14.578 -1.2575 -0.6302  0.9707
 5260TIP3    H237196   5.548   3.587  14.558 -0.6586  0.4385 -1.4251
 5261TIP3   OH237197   6.337   2.895  13.580  0.3451 -0.0590 -0.1062
 5261TIP3    H137198   6.374   2.968  13.531  1.2801  0.3817  1.1720
 5261TIP3    H237199   6.270   2.935  13.635 -0.1109 -0.4001 -0.4128
 5262TIP3   OH237200   5.568   2.904   5.987 -0.3776  0.2317  0.3098
 5262TIP3    H137201   5.632   2.959   5.942 -2.0155  1.2637 -0.8714
 5262TIP3    H237202   5.550   2.949   6.069  0.1875  0.0625  0.5369
 5263TIP3   OH237203   3.138   4.396  13.922  0.1243  0.3114 -0.1742
 5263TIP3    H137204   3.070   4.460  13.939  0.2032  0.1472  0.8305
 5263TIP3    H237205   3.187   4.389  14.004  1.7725  0.8996 -1.0528
 5264TIP3   OH237206   4.757   3.244   4.783 -0.6821  0.5824  0.4040
 5264TIP3    H137207   4.711   3.161   4.767 -1.6065  0.8034  1.7444
 5264TIP3    H237208   4.791   3.270   4.697 -2.6314  0.1539 -0.5564
 5265TIP3   OH237209   2.572   3.285   3.565 -0.1181 -0.3468 -0.2106
 5265TIP3    H137210   2.645   3.302   3.505 -2.1004  3.7980 -1.8265
 5265TIP3    H237211   2.507   3.240   3.512 -0.4668  0.0117 -0.0884
 5266TIP3   OH237212   1.118   4.638   5.275  0.3908  0.3770 -0.0054
 5266TIP3    H137213   1.043   4.694   5.251  0.4108  0.7153  0.6851
 5266TIP3    H237214   1.096   4.552   5.241 -1.2764 -0.0289  1.8816
 5267TIP3   OH237215   0.693   6.017  11.713  0.5388  0.0182 -0.3528
 5267TIP3    H137216   0.712   5.982  11.800 -1.6817 -0.1501  0.1250
 5267TIP3    H237217   0.682   5.939  11.658 -0.0613  0.0573 -0.2968
 5268TIP3   OH237218   0.354   3.919   6.320  0.1575 -0.0148  0.3566
 5268TIP3    H137219   0.279   3.980   6.319  0.2565  0.1064  0.1523
 5268TIP3    H237220   0.413   3.954   6.253  0.6938  0.2562  0.9615
 5269TIP3   OH237221   1.907   5.485  11.352  0.1588  0.2230  0.1415
 5269TIP3    H137222   1.963   5.436  11.411  0.6992  0.4882 -0.1431
 5269TIP3    H237223   1.966   5.545  11.306 -0.5748  1.7106  1.0402
 5270TIP3   OH237224   3.861   0.640   4.417  0.3127 -0.2122  0.1529
 5270TIP3    H137225   3.875   0.732   4.394  0.1066 -0.5888 -1.6988
 5270TIP3    H237226   3.918   0.625   4.492 -1.5690  2.0549  2.1994
 5271TIP3   OH237227   1.813   1.119  12.001 -0.1929 -0.2839 -0.1510
 5271TIP3    H137228   1.780   1.036  11.969  0.2084 -0.7682  0.6675
 5271TIP3    H237229   1.906   1.103  12.017 -0.0078  0.4566 -0.4305
 5272TIP3   OH237230   2.926   3.036   2.530  0.4829 -0.5589 -0.3173
 5272TIP3    H137231   2.837   3.033   2.567  0.3631 -1.4144 -0.6408
 5272TIP3    H237232   2.935   3.125   2.498 -0.5186 -0.6387 -0.8713
 5273TIP3   OH237233   3.427   1.499   2.769 -0.0157 -0.2001 -0.1317
 5273TIP3    H137234   3.521   1.518   2.775 -0.4457  3.5805 -2.3978
 5273TIP3    H237235   3.419   1.440   2.694  0.4635  0.6046 -0.8302
 5274TIP3   OH237236   6.483   6.712   2.176  0.6812  0.0227 -0.0530
 5274TIP3    H137237   6.431   6.636   2.149 -0.1488 -0.0824  1.6893
 5274TIP3    H237238   6.565   6.704   2.128  0.1266 -1.2978 -0.8249
 5275TIP3   OH237239   1.816   2.683   3.133  0.0307  0.4601 -0.2947
 5275TIP3    H137240   1.809   2.638   3.049  4.1386 -2.1599  0.4375
 5275TIP3    H237241   1.848   2.771   3.111 -1.3319  0.6824 -1.5008
 5276TIP3   OH237242   5.340   1.385   0.089  0.1317  0.5239  0.2284
 5276TIP3    H137243   5.321   1.325   0.017  0.7097 -0.4831  0.8982
 5276TIP3    H237244   5.392   1.454   0.049 -1.0079  0.9055 -0.6663
 5277TIP3   OH237245   3.065   6.708   3.563 -0.2143  0.2933  0.3310
 5277TIP3    H137246   2.974   6.735   3.551  0.1181  1.1685 -0.2869
 5277TIP3    H237247   3.059   6.629   3.617 -1.3156  0.5409  0.6045
 5278TIP3   OH237248   5.502   3.290   3.258  0.0944 -0.1031  0.0740
 5278TIP3    H137249   5.434   3.358   3.253 -2.4330 -2.1657  2.6588
 5278TIP3    H237250   5.562   3.322   3.326  0.4720  0.6829 -0.6049
 5279TIP3   OH237251   6.574   5.854   2.570  0.1088 -0.3861  0.0349
 5279TIP3    H137252   6.486   5.877   2.600  0.3429 -2.1754  2.3674
 5279TIP3    H237253   6.632   5.898   2.632  0.9981  1.5887 -2.0452
 5280TIP3   OH237254   5.292   3.212  11.073 -0.5808  0.3799 -0.5090
 5280TIP3    H137255   5.305   3.288  11.130  1.8646 -0.4384  0.1577
 5280TIP3    H237256   5.284   3.249  10.985 -3.2344  1.5862  0.1543
 5281TIP3   OH237257   4.481   1.119   1.929  0.2494 -0.2074  0.6312
 5281TIP3    H137258   4.514   1.193   1.877 -1.0058 -0.4593 -0.5715
 5281TIP3    H237259   4.386   1.127   1.925  0.0602 -2.1735  0.0209
 5282TIP3   OH237260   2.229   2.052   4.466 -0.3532  0.2197 -0.3167
 5282TIP3    H137261   2.239   1.967   4.507  1.3671 -0.0834 -1.2399
 5282TIP3    H237262   2.294   2.108   4.510 -1.1918  0.9459  0.0173
 5283TIP3   OH237263   0.663   1.871   3.736  0.0432 -0.3306 -0.3456
 5283TIP3    H137264   0.656   1.953   3.784  2.0658  0.0989 -0.6556
 5283TIP3    H237265   0.730   1.822   3.784 -1.4316 -2.0019  0.0753
 5284TIP3   OH237266   5.009   4.281  14.459 -0.0394 -0.7416  0.0435
 5284TIP3    H137267   5.082   4.340  14.442 -0.1123 -0.1405  1.6332
 5284TIP3    H237268   4.931   4.331  14.433 -0.0688 -0.2770  0.9857
 5285TIP3   OH237269   1.960   4.224  15.354 -0.3017 -0.3151  0.0664
 5285TIP3    H137270   1.922   4.281  15.420  1.0302  1.0110 -0.2633
 5285TIP3    H237271   1.923   4.137  15.373 -2.6534  0.6879  0.3499
 5286TIP3   OH237272   0.524   6.253  13.842 -0.8324 -0.2248  0.8784
 5286TIP3    H137273   0.608   6.213  13.819  0.2859  2.0831  0.6109
 5286TIP3    H237274   0.514   6.234  13.935 -0.4182 -1.2062  0.7380
 5287TIP3   OH237275   3.343   1.586  16.100  0.0510  0.0581  0.1414
 5287TIP3    H137276   3.251   1.561  16.091  0.1995 -0.3747 -0.1970
 5287TIP3    H237277   3.351   1.614  16.191 -1.3526  3.9605 -0.7012
 5288TIP3   OH237278   1.450   5.875   5.153  0.2546 -0.4450  0.9216
 5288TIP3    H137279   1.403   5.945   5.106  0.3830 -1.2464 -0.4674
 5288TIP3    H237280   1.383   5.832   5.206 -0.2875 -0.6108  0.1264
 5289TIP3   OH237281   1.802   0.936   5.129 -0.7269 -0.2393  0.1143
 5289TIP3    H137282   1.861   0.961   5.201 -0.4452  0.0508 -0.2080
 5289TIP3    H237283   1.848   0.966   5.050 -1.5149  0.3921 -0.1120
 5290TIP3   OH237284   0.099   5.743  12.221  0.3906 -0.0811  0.1959
 5290TIP3    H137285   0.084   5.666  12.275  1.5349 -0.3708  0.1310
 5290TIP3    H237286   0.019   5.753  12.169  1.2595 -2.8829 -1.8537
 5291TIP3   OH237287   5.891   2.544   1.138  0.3268 -0.3609 -0.1516
 5291TIP3    H137288   5.933   2.553   1.052 -0.7345  1.4188 -0.5318
 5291TIP3    H237289   5.857   2.455   1.139  0.3975 -0.4213 -1.5594
 5292TIP3   OH237290   1.554   2.304   3.188  0.8629  0.1946 -0.6021
 5292TIP3    H137291   1.591   2.253   3.261  0.4521  1.6705  0.7065
 5292TIP3    H237292   1.623   2.304   3.122  0.5086 -2.8709 -1.1480
 5293TIP3   OH237293   0.026   4.707   2.518  0.7542 -0.7280 -0.3724
 5293TIP3    H137294   0.036   4.800   2.498  1.0214 -0.7487 -0.3355
 5293TIP3    H237295   0.086   4.691   2.591 -0.5230 -0.5508  0.7731
 5294TIP3   OH237296   1.284   1.533   0.053  0.3434  0.5953 -0.1724
 5294TIP3    H137297   1.292   1.567   0.142 -0.7991 -0.0103  0.1865
 5294TIP3    H237298   1.275   1.610  -0.002  0.7328  0.9636  0.2705
 5295TIP3   OH237299   5.214   3.153   1.675  0.0594  0.0208  0.2250
 5295TIP3    H137300   5.211   3.237   1.720  2.4404  0.1986  0.2140
 5295TIP3    H237301   5.157   3.164   1.599 -1.7015  0.6975  1.5796
 5296TIP3   OH237302   0.196   1.591   0.154  0.5833 -0.3285  0.5364
 5296TIP3    H137303   0.254   1.668   0.156  1.1660 -0.7310 -0.2768
 5296TIP3    H237304   0.147   1.596   0.236 -0.4254  1.6978 -0.1004
 5297TIP3   OH237305   2.479   3.510  14.441  0.1376  0.4407 -0.0906
 5297TIP3    H137306   2.419   3.584  14.435  0.3193  0.5994  0.0493
 5297TIP3    H237307   2.532   3.516  14.362  0.7124  0.9489  0.3296
 5298TIP3   OH237308   1.086   2.610  15.344 -0.0945  0.0348 -0.2987
 5298TIP3    H137309   1.041   2.563  15.274 -0.1067  0.1690 -0.3806
 5298TIP3    H237310   1.132   2.682  15.300  1.1296 -0.7618 -0.3555
 5299TIP3   OH237311   2.390   0.692  15.309  0.2729 -0.4366 -0.0409
 5299TIP3    H137312   2.315   0.634  15.293  0.4187 -0.5668 -0.2544
 5299TIP3    H237313   2.355   0.780  15.294 -0.2228 -0.3778  1.2991
 5300TIP3   OH237314   1.255   1.002  17.219  0.0261  0.0887  0.1320
 5300TIP3    H137315   1.345   0.977  17.200  0.1913  0.3660  0.5199
 5300TIP3    H237316   1.243   1.085  17.173 -1.0999 -1.4895 -2.6771
 5301TIP3   OH237317   6.555   5.177   2.794 -0.0939  0.2040  0.3148
 5301TIP3    H137318   6.514   5.257   2.762  0.8197  0.6986  0.3633
 5301TIP3    H237319   6.528   5.110   2.730 -3.0877 -0.0991  1.6873
 5302TIP3   OH237320   4.661   1.926  16.428  0.5176 -0.0733  0.0954
 5302TIP3    H137321   4.589   1.906  16.369  1.3153  0.1751 -0.9974
 5302TIP3    H237322   4.702   2.004  16.391  1.6076 -0.4554  0.4427
 5303TIP3   OH237323   2.307   1.893   4.234  0.0889 -0.5439 -0.1113
 5303TIP3    H137324   2.262   1.938   4.305  1.4814 -0.6783  0.8950
 5303TIP3    H237325   2.352   1.962   4.186 -1.2274 -0.3938 -1.1933
 5304TIP3   OH237326   6.269   0.274  12.283 -0.2555 -0.0790  0.5266
 5304TIP3    H137327   6.360   0.254  12.261  0.0287  0.0768  1.5374
 5304TIP3    H237328   6.247   0.347  12.225  0.3793  0.1236  0.5267
 5305TIP3   OH237329   3.091   2.528   4.938  0.4527 -0.0481 -0.5631
 5305TIP3    H137330   3.121   2.562   5.022  1.1757  1.7536 -1.4988
 5305TIP3    H237331   2.997   2.518   4.948  0.7447 -1.7763  1.0671
 5306TIP3   OH237332   0.614   0.622   2.977  0.8620  0.4026  0.0663
 5306TIP3    H137333   0.524   0.599   2.955  0.5397 -0.4339  2.0604
 5306TIP3    H237334   0.608   0.711   3.011  0.5201 -0.1523  1.5309
 5307TIP3   OH237335   2.040   6.654   4.665  0.2147 -0.0076  0.2168
 5307TIP3    H137336   2.081   6.692   4.588  2.4037 -0.2479  1.2090
 5307TIP3    H237337   2.034   6.726   4.727  0.9456 -0.4117  0.7703
 5308TIP3   OH237338   4.474   5.792  13.372  0.6071  0.0955  0.1232
 5308TIP3    H137339   4.503   5.841  13.450 -0.4513  1.6953 -0.4236
 5308TIP3    H237340   4.386   5.762  13.394  0.9126 -0.8428  0.1138
 5309TIP3   OH237341   1.146   4.655  12.787  0.1443 -0.1341  0.1428
 5309TIP3    H137342   1.060   4.620  12.764  0.0796  0.0479  0.1049
 5309TIP3    H237343   1.146   4.743  12.751  0.5510 -0.3254 -0.3268
 5310TIP3   OH237344   1.019   5.650   3.863 -0.2235  0.4452 -0.2476
 5310TIP3    H137345   0.946   5.706   3.835  1.2563  1.7475 -1.6404
 5310TIP3    H237346   1.097   5.692   3.828  1.3264 -0.4760  1.8702
 5311TIP3   OH237347   4.186   2.634   3.338  0.1378  0.0715  0.5419
 5311TIP3    H137348   4.104   2.645   3.385 -0.8810 -2.2652 -0.5425
 5311TIP3    H237349   4.251   2.620   3.407 -0.8419 -0.6265  1.3535
 5312TIP3   OH237350   3.377   6.433  14.794  0.6700 -0.1334 -0.2668
 5312TIP3    H137351   3.398   6.406  14.705  2.4990 -0.2220  0.1387
 5312TIP3    H237352   3.459   6.420  14.843  0.4161  2.1202  0.9001
 5313TIP3   OH237353   6.292   1.633  16.530  0.1259 -0.5994 -0.5202
 5313TIP3    H137354   6.291   1.566  16.462 -1.1223 -1.0454 -0.0912
 5313TIP3    H237355   6.210   1.620  16.579  0.8887 -0.1709  0.9422
 5314TIP3   OH237356   1.428   4.760   6.416  0.3068  0.5751 -0.1806
 5314TIP3    H137357   1.433   4.711   6.497  2.0590 -0.4578 -0.8503
 5314TIP3    H237358   1.334   4.771   6.400 -0.0779  0.4798  1.7569
 5315TIP3   OH237359   0.284   3.142   3.854  0.8787  0.1460 -0.1622
 5315TIP3    H137360   0.337   3.205   3.805 -0.1100  0.8364 -0.3861
 5315TIP3    H237361   0.195   3.153   3.818  0.8107 -1.9125 -0.7441
 5316TIP3   OH237362   1.998   1.312   1.933 -0.0814 -0.4693 -0.1238
 5316TIP3    H137363   1.955   1.251   1.872  1.1982 -0.4559 -1.0772
 5316TIP3    H237364   2.061   1.258   1.980  0.0014 -0.1761  0.1036
 5317TIP3   OH237365   5.439   0.547   0.033  0.1184 -0.5158  0.3718
 5317TIP3    H137366   5.364   0.529  -0.024  1.0618 -0.5064 -0.9017
 5317TIP3    H237367   5.496   0.605  -0.019  0.2503  0.8326  1.9305
 5318TIP3   OH237368   4.591   5.084   2.709 -0.3659 -0.0607  0.4392
 5318TIP3    H137369   4.680   5.116   2.694 -0.2569  0.8299  2.5785
 5318TIP3    H237370   4.560   5.136   2.783 -2.2015 -1.2524  0.5550
 5319TIP3   OH237371   2.500   0.653  13.120  0.7830 -0.4295  0.2084
 5319TIP3    H137372   2.420   0.655  13.172  0.7684  0.6048  0.1625
 5319TIP3    H237373   2.473   0.687  13.034  1.2451 -0.1970  0.1558
 5320TIP3   OH237374   1.174   4.889  14.982 -0.1300  0.1283 -0.2701
 5320TIP3    H137375   1.232   4.952  14.939 -0.4074  0.4648 -0.1645
 5320TIP3    H237376   1.093   4.893  14.931 -0.9723  1.5705  1.0571
 5321TIP3   OH237377   0.446   1.119  12.282  0.1104  0.3605  0.4124
 5321TIP3    H137378   0.458   1.034  12.241 -1.5862  0.0009  0.5805
 5321TIP3    H237379   0.528   1.166  12.266  0.4597 -0.7059 -1.0998
 5322TIP3   OH237380   1.441   1.996  13.582 -0.4274 -0.6612 -0.2885
 5322TIP3    H137381   1.352   2.003  13.617 -0.5207  1.6793 -0.8449
 5322TIP3    H237382   1.495   2.043  13.645 -0.2243  1.3505 -1.8457
 5323TIP3   OH237383   3.045   4.488   2.066  0.3619 -0.1779  0.0129
 5323TIP3    H137384   3.053   4.535   1.984  1.5736  0.8719  0.6920
 5323TIP3    H237385   3.022   4.399   2.041  0.0257  0.2890 -1.4083
 5324TIP3   OH237386   4.517   3.127   1.149 -0.6904  0.4046 -0.1935
 5324TIP3    H137387   4.449   3.101   1.086 -2.3476  0.8891  1.2962
 5324TIP3    H237388   4.523   3.222   1.140  0.1511  0.3102 -0.6511
 5325TIP3   OH237389   1.519   0.914  14.156  0.2443  0.3487 -0.2209
 5325TIP3    H137390   1.485   0.898  14.068  0.1581 -1.0965  0.0540
 5325TIP3    H237391   1.558   1.002  14.152 -1.4147  1.0840 -1.1812
 5326TIP3   OH237392   2.683   5.747  15.177  0.1398 -0.2068  0.0086
 5326TIP3    H137393   2.659   5.807  15.248 -0.6670 -0.6483  0.1216
 5326TIP3    H237394   2.603   5.737  15.126  0.1479 -1.4750  0.2118
 5327TIP3   OH237395   4.800   3.300  11.814 -0.1452 -0.0911 -0.3516
 5327TIP3    H137396   4.835   3.303  11.725  0.5848 -1.1857 -0.1286
 5327TIP3    H237397   4.783   3.207  11.830 -0.5499  0.1271  0.5418
 5328TIP3   OH237398   3.484   6.251  10.729 -0.2048  0.3107 -0.2358
 5328TIP3    H137399   3.431   6.178  10.762  0.5264  0.1342  0.5693
 5328TIP3    H237400   3.421   6.320  10.711 -0.8285 -0.2630 -0.3029
 5329TIP3   OH237401   2.761   6.411   3.196  0.0145  0.5456 -0.1250
 5329TIP3    H137402   2.719   6.483   3.242  0.9234  1.6772 -1.0070
 5329TIP3    H237403   2.855   6.427   3.207  0.3496  1.8036 -3.5962
 5330TIP3   OH237404   5.025   1.289   2.141 -0.0257 -0.3638 -0.0630
 5330TIP3    H137405   4.941   1.328   2.168  0.1512  1.2338 -1.6172
 5330TIP3    H237406   5.001   1.232   2.068  0.2475  0.4955 -0.8555
 5331TIP3   OH237407   4.750   2.733  13.411  0.0561  0.1260 -0.4794
 5331TIP3    H137408   4.687   2.685  13.357 -0.8188  2.4788 -1.6763
 5331TIP3    H237409   4.712   2.733  13.498 -0.9938  0.4429 -0.9257
 5332TIP3   OH237410   5.925   5.205  13.829 -0.5447 -0.1465 -0.2546
 5332TIP3    H137411   5.830   5.202  13.839 -0.4829 -0.4612  0.3422
 5332TIP3    H237412   5.953   5.269  13.894 -0.4084  0.5317 -0.9706
 5333TIP3   OH237413   3.538   4.408   3.450 -0.0263 -0.2849  0.2746
 5333TIP3    H137414   3.586   4.453   3.380 -2.3113  0.6366 -0.8144
 5333TIP3    H237415   3.565   4.316   3.442  1.0768  0.0915 -0.6782
 5334TIP3   OH237416   6.172   4.719  16.699 -0.5391  0.4535  0.4330
 5334TIP3    H137417   6.197   4.630  16.673 -0.6265  0.5074  0.1588
 5334TIP3    H237418   6.253   4.757  16.733  0.1117  1.0624 -1.6699
 5335TIP3   OH237419   5.004   0.027  17.472 -0.6136  0.6412  0.4241
 5335TIP3    H137420   4.914  -0.005  17.479 -0.8416  0.7934 -1.4600
 5335TIP3    H237421   4.996   0.115  17.437  0.2537  0.9742  1.0093
 5336TIP3   OH237422   6.523   2.716  17.542  0.0822 -0.4341 -1.0879
 5336TIP3    H137423   6.608   2.712  17.585  0.8047  3.3790 -1.7898
 5336TIP3    H237424   6.462   2.743  17.610 -0.2685 -1.4182 -0.9869
 5337TIP3   OH237425   2.073   5.530  13.396  0.0450 -0.0010  0.5938
 5337TIP3    H137426   2.147   5.538  13.457  1.2471 -1.3787 -0.5905
 5337TIP3    H237427   2.046   5.620  13.380  2.8512  0.7855 -0.4738
 5338TIP3   OH237428   5.157   0.232   5.354  0.2165 -0.3813 -0.1162
 5338TIP3    H137429   5.129   0.263   5.440 -0.6257 -1.1256 -0.1070
 5338TIP3    H237430   5.188   0.310   5.309  0.6818  0.0107  0.8690
 5339TIP3   OH237431   0.604   5.148   0.089  0.2731 -0.6379 -0.4492
 5339TIP3    H137432   0.559   5.076   0.132 -0.6563 -1.5855 -2.8484
 5339TIP3    H237433   0.585   5.137  -0.004  1.4872  1.7583 -1.0805
 5340TIP3   OH237434   1.388   5.694   3.569 -0.5317 -0.2728  0.2157
 5340TIP3    H137435   1.455   5.762   3.562 -0.0378 -0.8075 -0.4869
 5340TIP3    H237436   1.375   5.683   3.663 -1.6703  1.7691  0.3600
 5341TIP3   OH237437   5.629   1.225  13.078  0.3018 -0.7345 -0.1640
 5341TIP3    H137438   5.646   1.139  13.040 -2.9525 -1.5483 -0.1430
 5341TIP3    H237439   5.558   1.209  13.141  1.5933  1.5147  2.0566
 5342TIP3   OH237440   5.584   1.826  17.149 -0.4877 -0.0987  0.1331
 5342TIP3    H137441   5.570   1.919  17.130  0.6057  0.5358  2.0785
 5342TIP3    H237442   5.496   1.792  17.168 -0.9568  0.3935 -1.0801
 5343TIP3   OH237443   2.170   5.539   1.306 -0.6817 -0.7131 -0.0682
 5343TIP3    H137444   2.226   5.608   1.343 -2.8635  1.2767 -0.2376
 5343TIP3    H237445   2.186   5.463   1.362  2.3171 -0.3692 -0.2647
 5344TIP3   OH237446   4.532   3.450   1.702  0.0456  0.1284  0.0485
 5344TIP3    H137447   4.498   3.417   1.619 -0.8577  0.7132  0.1759
 5344TIP3    H237448   4.471   3.519   1.727  0.7453  0.4809  0.8158
 5345TIP3   OH237449   1.079   3.942   0.165  0.0237 -0.1721 -0.4365
 5345TIP3    H137450   1.067   3.878   0.095 -1.1690 -2.2655  1.5006
 5345TIP3    H237451   1.020   4.014   0.143 -1.5126 -1.4911 -0.8866
 5346TIP3   OH237452   5.145   3.222  15.756 -0.4811 -0.1128 -0.3068
 5346TIP3    H137453   5.100   3.239  15.838 -1.2465  2.0841 -1.1051
 5346TIP3    H237454   5.177   3.308  15.728  0.0305 -0.8534 -2.1433
 5347TIP3   OH237455   3.887   1.841   1.118  0.3442 -0.5318  0.5470
 5347TIP3    H137456   3.901   1.775   1.049  0.0075 -1.2887  1.1937
 5347TIP3    H237457   3.834   1.797   1.183  1.1821 -0.0235  1.6066
 5348TIP3   OH237458   4.363   0.847  10.962  0.6650  0.3744  0.1625
 5348TIP3    H137459   4.327   0.761  10.983 -1.1396  1.0425  0.0581
 5348TIP3    H237460   4.317   0.873  10.882 -0.2078  2.1620  1.1706
 5349TIP3   OH237461   1.287   0.807  11.733  0.1579 -0.2274  0.1907
 5349TIP3    H137462   1.369   0.772  11.767 -0.4150 -0.5881  1.2301
 5349TIP3    H237463   1.279   0.893  11.772  0.5895  0.2896 -0.8169
 5350TIP3   OH237464   4.324   1.491   3.457 -0.6317  0.2857  0.0949
 5350TIP3    H137465   4.289   1.553   3.393 -0.2963  0.4832  0.1025
 5350TIP3    H237466   4.416   1.515   3.467 -0.1424 -1.0070 -0.8817
 5351TIP3   OH237467   2.523   4.718   1.716 -0.0804 -0.0727 -0.4554
 5351TIP3    H137468   2.432   4.690   1.724 -0.0361  0.0057  0.4098
 5351TIP3    H237469   2.546   4.697   1.625 -1.4674  1.4293 -1.2266
 5352TIP3   OH237470   3.737   1.122   2.359  0.0847  0.2177  0.6136
 5352TIP3    H137471   3.726   1.138   2.266 -3.6699 -1.0727  0.6803
 5352TIP3    H237472   3.831   1.132   2.374  1.1841 -1.4964 -3.6818
 5353TIP3   OH237473   1.306   1.756  12.784 -0.6641  0.3435  0.1037
 5353TIP3    H137474   1.389   1.755  12.737 -0.1662 -0.5829  0.9645
 5353TIP3    H237475   1.281   1.663  12.791 -1.5175  0.5756  0.3061
 5354TIP3   OH237476   0.995   4.506  14.037  0.9840 -0.3621 -0.2230
 5354TIP3    H137477   1.023   4.429  13.986 -2.5190 -0.1640 -2.8957
 5354TIP3    H237478   0.958   4.469  14.117  1.1992 -1.3189 -0.5501
 5355TIP3   OH237479   4.054   5.321  13.684  0.6990  0.8938 -0.6945
 5355TIP3    H137480   4.074   5.412  13.705  2.4531  0.0276  1.8924
 5355TIP3    H237481   4.108   5.270  13.744  0.6311 -1.9036 -2.7969
 5356TIP3   OH237482   6.711   4.166   1.794 -0.2029  0.0143  0.3514
 5356TIP3    H137483   6.764   4.172   1.873  0.3888  0.9323 -0.0845
 5356TIP3    H237484   6.623   4.191   1.822  0.0917  0.7553  0.6494
 5357TIP3   OH237485   0.130   0.648   5.114  0.0416 -0.5730 -0.6106
 5357TIP3    H137486   0.043   0.611   5.130  0.3761 -1.6277 -1.1540
 5357TIP3    H237487   0.127   0.735   5.154 -0.6279 -1.3505  1.0864
 5358TIP3   OH237488   0.975   5.228   3.354  0.2185 -0.1300 -0.0676
 5358TIP3    H137489   0.922   5.243   3.275  1.2593 -0.9948 -0.9559
 5358TIP3    H237490   0.913   5.236   3.426 -0.7770  0.6010 -0.9739
 5359TIP3   OH237491   4.906   0.494  13.336 -0.0459  0.0449 -0.0014
 5359TIP3    H137492   4.840   0.512  13.403  0.0032 -0.1335  0.0955
 5359TIP3    H237493   4.969   0.437  13.379 -0.5680 -0.9345 -0.4961
 5360TIP3   OH237494   1.753   0.837  17.466  0.2740  0.1594  0.0954
 5360TIP3    H137495   1.848   0.850  17.471  0.2273  0.3428  0.5353
 5360TIP3    H237496   1.728   0.810  17.555 -0.3289  1.7278  0.4355
 5361TIP3   OH237497   0.074   4.997   1.122 -0.2136  0.1695  0.1397
 5361TIP3    H137498   0.058   4.991   1.027 -0.7212 -1.2722  0.2837
 5361TIP3    H237499   0.120   5.080   1.134  1.1989 -0.3032 -1.5627
 5362TIP3   OH237500   5.025   0.424  14.865  0.2286 -0.0279 -0.3636
 5362TIP3    H137501   4.961   0.479  14.821 -1.6206  0.0737  2.2278
 5362TIP3    H237502   5.096   0.483  14.888  0.6289  0.1659 -1.9479
 5363TIP3   OH237503   2.291   1.583   3.963 -0.2507  0.0864  0.1288
 5363TIP3    H137504   2.367   1.535   3.928 -1.4373 -1.4857 -0.4113
 5363TIP3    H237505   2.316   1.604   4.053  1.3846  0.9142 -0.4593
 5364TIP3   OH237506   2.899   5.070   3.670 -0.8016  0.0349  0.2504
 5364TIP3    H137507   2.926   4.982   3.696 -0.6762  0.5808  2.1908
 5364TIP3    H237508   2.977   5.124   3.685 -1.2393  0.6714  0.2880
 5365TIP3   OH237509   0.171   5.935  17.313  0.2579  0.0211 -0.6641
 5365TIP3    H137510   0.237   5.965  17.375 -1.0675 -0.2417  0.9608
 5365TIP3    H237511   0.173   5.840  17.319 -0.4129  0.0178 -0.4218
 5366TIP3   OH237512   0.856   0.288  15.750  0.7206  0.1668 -0.7183
 5366TIP3    H137513   0.844   0.282  15.845  1.3393 -1.9538 -0.7298
 5366TIP3    H237514   0.767   0.282  15.715  0.6087 -0.7310 -0.3145
 5367TIP3   OH237515   2.691   5.480  13.685 -0.3018 -0.3111  0.1794
 5367TIP3    H137516   2.744   5.537  13.741  0.4334  1.7867 -2.4321
 5367TIP3    H237517   2.707   5.392  13.718  2.2177  0.5639  1.5327
 5368TIP3   OH237518   0.888   1.826   4.680 -0.8177 -0.3238  0.4686
 5368TIP3    H137519   0.840   1.816   4.762  0.7940  0.1843  1.5102
 5368TIP3    H237520   0.970   1.869   4.705  0.7848 -2.3206 -1.0269
 5369TIP3   OH237521   0.691   4.540   0.282 -0.1110  0.2370  0.6219
 5369TIP3    H137522   0.658   4.565   0.196 -1.1091  0.6665  1.1103
 5369TIP3    H237523   0.672   4.616   0.337  0.8465  0.1137  1.1428
 5370TIP3   OH237524   2.996   5.697  13.527  0.3104  0.6951 -0.2833
 5370TIP3    H137525   3.005   5.608  13.495  0.2558  0.6576 -0.1935
 5370TIP3    H237526   3.008   5.691  13.622  1.8377  1.0007 -0.4433
 5371TIP3   OH237527   2.251   2.813   2.266  0.0031  0.1241  0.2274
 5371TIP3    H137528   2.278   2.786   2.178 -0.7544 -0.0841  0.0553
 5371TIP3    H237529   2.224   2.904   2.256  0.9718  0.4511  0.4759
 5372TIP3   OH237530   6.268   2.003  16.866  0.5317  0.3122  0.0609
 5372TIP3    H137531   6.177   2.024  16.843  0.5144  0.8399  0.5624
 5372TIP3    H237532   6.316   2.083  16.847  0.5139  0.7802  1.7694
 5373TIP3   OH237533   4.216   4.244  14.352 -0.1820  0.3621  0.3412
 5373TIP3    H137534   4.148   4.188  14.315  0.3276 -0.3854  0.5281
 5373TIP3    H237535   4.177   4.280  14.432 -1.0855  1.5481 -0.5912
 5374TIP3   OH237536   2.687   6.472   2.175 -0.3370 -0.3233 -0.1173
 5374TIP3    H137537   2.646   6.477   2.089 -0.6693 -1.7418 -0.0733
 5374TIP3    H237538   2.654   6.390   2.212 -0.5825  0.5005  1.5684
 5375TIP3   OH237539   3.557   3.283  17.259  0.0582 -0.0061  0.0418
 5375TIP3    H137540   3.518   3.367  17.285 -1.1494 -0.6414  0.3371
 5375TIP3    H237541   3.539   3.277  17.165  1.1838  0.5963 -0.2242
 5376TIP3   OH237542   5.914   4.318   3.622  0.1160  0.9828  0.1644
 5376TIP3    H137543   5.896   4.412   3.623  0.5746  1.0656  1.1166
 5376TIP3    H237544   6.009   4.312   3.609 -0.0170  0.6200 -0.7550
 5377TIP3   OH237545   3.197   1.657   4.910  0.1978 -0.9058 -0.3851
 5377TIP3    H137546   3.125   1.596   4.897 -1.0469  0.2161  0.9151
 5377TIP3    H237547   3.273   1.601   4.927 -1.0929 -2.1258  1.7646
 5378TIP3   OH237548   1.377   1.755   5.811 -0.4582  0.0161  0.1970
 5378TIP3    H137549   1.439   1.683   5.797 -0.4671  0.4713 -2.8412
 5378TIP3    H237550   1.432   1.829   5.836 -0.0717 -0.2268  0.0838
 5379TIP3   OH237551   3.918   4.960   0.643  0.6130 -0.9839  0.3427
 5379TIP3    H137552   3.979   5.027   0.612 -1.8261  2.3484  2.0088
 5379TIP3    H237553   3.833   4.989   0.610 -0.6442 -3.0480  1.5460
 5380TIP3   OH237554   5.824   5.971   1.836 -0.2688 -0.6082  0.3429
 5380TIP3    H137555   5.809   6.048   1.892 -0.0951 -0.7673  0.6096
 5380TIP3    H237556   5.915   5.946   1.854  0.1922  0.0703 -0.9155
 5381TIP3   OH237557   5.441   2.432   1.719  0.2441  0.1328  0.1194
 5381TIP3    H137558   5.508   2.394   1.662  0.5823  2.1819 -0.9180
 5381TIP3    H237559   5.465   2.403   1.807  1.9557  0.0720 -0.3406
 5382TIP3   OH237560   0.317   4.970   3.929  0.3349 -0.1486  0.2562
 5382TIP3    H137561   0.336   5.061   3.953  0.0779  0.0309 -0.2108
 5382TIP3    H237562   0.344   4.919   4.005 -0.5150  0.4143  0.9595
 5383TIP3   OH237563   4.336   3.985  16.042  0.5903 -0.2138 -0.4030
 5383TIP3    H137564   4.328   4.069  16.088  0.2824 -0.0644 -0.7209
 5383TIP3    H237565   4.337   3.919  16.111  2.9983  0.1648 -0.0087
 5384TIP3   OH237566   6.081   6.021  17.472  0.0806  0.0352 -0.2195
 5384TIP3    H137567   5.996   6.064  17.475 -0.2675 -0.6358 -0.0848
 5384TIP3    H237568   6.061   5.928  17.488  0.7915 -0.1873 -0.5676
 5385TIP3   OH237569   1.381   6.020   2.254 -0.6501 -0.6493  0.0138
 5385TIP3    H137570   1.338   5.940   2.226 -2.0449  0.1854 -0.3378
 5385TIP3    H237571   1.356   6.085   2.189  1.1225 -0.0862 -0.1692
 5386TIP3   OH237572   0.132   3.430   1.645 -0.4755 -0.1446  0.8281
 5386TIP3    H137573   0.205   3.404   1.701  0.9276 -0.9068 -1.2294
 5386TIP3    H237574   0.152   3.519   1.618 -0.0117 -0.5387 -0.1579
 5387TIP3   OH237575   5.680   2.153  14.120  0.0231 -0.0010  0.2396
 5387TIP3    H137576   5.685   2.060  14.101 -0.9396 -0.0949  0.3941
 5387TIP3    H237577   5.656   2.158  14.213 -1.1237  0.3701 -0.0579
 5388TIP3   OH237578   3.129   0.655   1.314 -0.0528 -0.2583 -0.0156
 5388TIP3    H137579   3.196   0.633   1.380  0.5587  0.1536 -0.4858
 5388TIP3    H237580   3.130   0.751   1.311  0.4132 -0.2845 -1.1123
 5389TIP3   OH237581   2.304   1.087  12.342  0.2905  0.4854 -0.0227
 5389TIP3    H137582   2.394   1.084  12.375  0.4812  1.7964 -0.3506
 5389TIP3    H237583   2.301   1.167  12.289 -0.0648 -1.3618 -2.9840
 5390TIP3   OH237584   1.455   5.958   5.439  0.2443  0.4026  0.2743
 5390TIP3    H137585   1.384   5.926   5.383  1.6170  0.6427 -1.7123
 5390TIP3    H237586   1.462   5.892   5.508 -0.6491 -0.6379 -0.5719
 5391TIP3   OH237587   4.446   2.290  13.675  0.3806  0.3980  0.3038
 5391TIP3    H137588   4.422   2.354  13.742 -2.0292 -0.4172  0.3195
 5391TIP3    H237589   4.493   2.222  13.723  2.8059  1.9885  0.3145
 5392TIP3   OH237590   3.314   4.319  15.480 -0.6080 -0.2798  0.2211
 5392TIP3    H137591   3.248   4.290  15.417  0.6438 -1.6146 -0.5320
 5392TIP3    H237592   3.321   4.413  15.465 -2.8545  0.0671  0.8671
 5393TIP3   OH237593   1.735   0.722  14.799 -0.4478  0.6310 -0.7088
 5393TIP3    H137594   1.664   0.717  14.863 -1.4364  0.9770 -1.7539
 5393TIP3    H237595   1.727   0.809  14.760  1.6908  1.4138  0.3970
 5394TIP3   OH237596   3.021   1.179   0.437 -0.0011  0.1541 -0.0050
 5394TIP3    H137597   3.046   1.087   0.441  0.2242  0.1930 -0.4716
 5394TIP3    H237598   2.949   1.182   0.375  0.0685  0.3103 -0.0774
 5395TIP3   OH237599   4.795   1.912  16.092 -0.3835  0.4444 -0.2204
 5395TIP3    H137600   4.851   1.841  16.123  0.6681  0.1324 -2.6084
 5395TIP3    H237601   4.843   1.992  16.115  0.5645  0.2123 -1.3127
 5396TIP3   OH237602   2.338   4.051   0.642 -0.1077  0.5431  0.2482
 5396TIP3    H137603   2.271   3.982   0.648 -0.7651  1.0780 -0.6715
 5396TIP3    H237604   2.420   4.004   0.628 -0.8464 -0.0495 -2.8591
 5397TIP3   OH237605   3.848   6.209  11.702  0.0645 -0.1805 -0.0093
 5397TIP3    H137606   3.772   6.159  11.673  1.1352 -2.1078  0.3426
 5397TIP3    H237607   3.817   6.260  11.776 -0.9876 -0.5871 -0.1498
 5398TIP3   OH237608   2.295   2.856  17.514  0.1046  0.1473  0.3039
 5398TIP3    H137609   2.300   2.762  17.495 -2.0217 -0.1237  0.8168
 5398TIP3    H237610   2.380   2.877  17.554  1.2422 -1.1648 -1.3084
 5399TIP3   OH237611   3.346   6.590   1.167 -0.2263 -0.2050 -0.1536
 5399TIP3    H137612   3.337   6.523   1.098 -1.7363  0.5364 -0.7148
 5399TIP3    H237613   3.435   6.577   1.200  0.2431 -1.1550 -1.6532
 5400TIP3   OH237614   0.082   2.383   4.468 -0.5379 -0.4307  0.3834
 5400TIP3    H137615   0.158   2.424   4.427 -1.7037  1.1291 -0.3494
 5400TIP3    H237616   0.096   2.289   4.458  0.6394 -0.1423 -0.9370
 5401TIP3   OH237617   6.473   1.280  15.620  1.0179  0.2137 -0.5275
 5401TIP3    H137618   6.396   1.273  15.564  1.6569 -0.2853 -1.3765
 5401TIP3    H237619   6.441   1.320  15.701 -0.2846 -0.7341 -0.5480
 5402TIP3   OH237620   2.057   1.419  14.637 -0.4890 -0.3308  0.1522
 5402TIP3    H137621   2.009   1.374  14.707 -1.7837 -0.6667 -0.9013
 5402TIP3    H237622   2.060   1.355  14.566 -1.2469  0.7804 -0.9207
 5403TIP3   OH237623   6.469   4.930   1.266  0.5329  0.1394 -0.5446
 5403TIP3    H137624   6.560   4.898   1.269  0.8361  1.0277  0.2144
 5403TIP3    H237625   6.477   5.025   1.278 -0.5617  0.1088  0.5778
 5404TIP3   OH237626   3.268   0.078   1.367 -0.1452  0.4245 -0.0956
 5404TIP3    H137627   3.311   0.081   1.281 -0.8109 -0.4913 -0.4849
 5404TIP3    H237628   3.325   0.022   1.420  0.7668  1.7438  0.3858
 5405TIP3   OH237629   6.253   5.507   3.447 -0.0893  0.0785  0.1567
 5405TIP3    H137630   6.214   5.461   3.521 -0.1072  0.0523  0.1315
 5405TIP3    H237631   6.275   5.438   3.385  1.3332 -0.0520  0.7678
 5406TIP3   OH237632   0.070   1.119  11.953 -0.2855 -0.3332  0.5733
 5406TIP3    H137633   0.152   1.133  11.999  0.7352 -1.0884 -0.9318
 5406TIP3    H237634   0.067   1.190  11.888  0.0621 -1.2860 -0.5198
 5407TIP3   OH237635   1.201   4.884  14.583  0.5083 -0.3504  0.0536
 5407TIP3    H137636   1.201   4.828  14.661  1.1063 -0.6238 -0.1406
 5407TIP3    H237637   1.255   4.959  14.607  0.1246 -0.0970  0.1372
 5408TIP3   OH237638   5.176   3.035  13.311  0.1988  0.4783 -0.9493
 5408TIP3    H137639   5.179   3.103  13.377  0.8254  0.1389 -0.6214
 5408TIP3    H237640   5.129   3.075  13.237  0.8336  1.3645 -0.8886
 5409TIP3   OH237641   0.889   4.475  12.853  0.2740 -0.3330 -0.1224
 5409TIP3    H137642   0.810   4.430  12.882 -0.4546 -0.0218 -1.5235
 5409TIP3    H237643   0.858   4.559  12.819  0.9594 -0.8319 -2.1538
 5410TIP3   OH237644   1.249   2.102  14.324  0.5317  0.3964 -0.3277
 5410TIP3    H137645   1.299   2.183  14.333 -0.3988  1.0303 -0.7169
 5410TIP3    H237646   1.158   2.131  14.323  0.2253 -0.5623 -1.4866
 5411TIP3   OH237647   0.946   0.334  11.216 -0.8209  0.0265  1.2305
 5411TIP3    H137648   0.874   0.273  11.230 -0.8305 -0.1651  0.4074
 5411TIP3    H237649   0.957   0.337  11.120  0.2295  0.0783  1.3370
 5412TIP3   OH237650   1.876   5.544  13.016 -0.0273 -0.3157 -0.1912
 5412TIP3    H137651   1.922   5.605  12.958  1.3047 -0.2375  0.9021
 5412TIP3    H237652   1.921   5.461  13.005  0.5187 -0.1974  1.0230
 5413TIP3   OH237653   2.644   4.805  16.851 -0.3110  0.2131 -0.5288
 5413TIP3    H137654   2.636   4.710  16.862 -1.4108  0.0761 -2.1012
 5413TIP3    H237655   2.557   4.834  16.824  0.2956  1.4897 -1.2315
 5414TIP3   OH237656   0.313   4.836   2.248  0.0577 -0.3136  0.0341
 5414TIP3    H137657   0.396   4.793   2.229  0.1364  0.2957 -1.0794
 5414TIP3    H237658   0.246   4.779   2.209  0.1234  0.2902 -0.9811
 5415TIP3   OH237659   6.218   2.192   6.294  0.3245  0.1281  0.2290
 5415TIP3    H137660   6.140   2.200   6.349 -0.9630 -0.1255 -1.4688
 5415TIP3    H237661   6.260   2.111   6.323 -0.8109 -0.4590  0.2996
 5416TIP3   OH237662   2.935   5.719  12.218  0.7436 -0.1686 -0.7822
 5416TIP3    H137663   3.030   5.728  12.230  0.7518 -0.9874 -0.1617
 5416TIP3    H237664   2.900   5.803  12.247  1.2922  0.2323 -1.2497
 5417TIP3   OH237665   2.642   3.475   6.084  0.2581  0.0809 -0.1742
 5417TIP3    H137666   2.661   3.381   6.085  1.6986  0.3500  0.1645
 5417TIP3    H237667   2.547   3.480   6.082  0.1379 -1.3890  0.5130
 5418TIP3   OH237668   4.067   0.829   4.684  0.2470  0.0165 -0.9591
 5418TIP3    H137669   4.144   0.826   4.627  0.8082 -0.5514 -0.1947
 5418TIP3    H237670   4.103   0.838   4.772 -0.6104  0.8936 -0.6795
 5419TIP3   OH237671   3.602   6.266   0.790  0.2569  0.0255 -0.4899
 5419TIP3    H137672   3.577   6.174   0.794  1.3204 -0.3226 -1.3086
 5419TIP3    H237673   3.610   6.293   0.881  0.6278 -0.9009 -0.2307
 5420TIP3   OH237674   2.322   3.205   5.235 -0.7131 -0.5808 -0.0436
 5420TIP3    H137675   2.307   3.122   5.280  0.4980 -1.1439 -0.6257
 5420TIP3    H237676   2.283   3.193   5.149 -1.8621  0.0230  0.3632
 5421TIP3   OH237677   5.392   4.665  13.759 -0.3384  0.0669  0.1538
 5421TIP3    H137678   5.325   4.647  13.824 -1.0062 -0.8010 -0.7527
 5421TIP3    H237679   5.363   4.619  13.680  0.9993  0.1918 -0.4466
 5422TIP3   OH237680   5.287   0.077  11.864 -0.0740  0.2195  0.2829
 5422TIP3    H137681   5.361   0.129  11.833 -0.7124  0.8039 -0.3002
 5422TIP3    H237682   5.244   0.046  11.784  0.1824 -1.0699  0.6156
 5423TIP3   OH237683   1.046   2.794  15.927  0.5387  0.0257  0.4938
 5423TIP3    H137684   1.097   2.804  16.007  0.9052 -1.3110  0.4550
 5423TIP3    H237685   0.975   2.734  15.951 -0.3125  0.9016  0.2284
 5424TIP3   OH237686   3.956   1.339  17.610  0.3784  0.6566  0.2125
 5424TIP3    H137687   4.003   1.291  17.542  0.8214  0.9465  0.3079
 5424TIP3    H237688   3.880   1.284  17.630  0.3233  0.4997 -0.4069
 5425TIP3   OH237689   0.114   5.395   6.410 -0.5377 -0.0217  0.1682
 5425TIP3    H137690   0.054   5.393   6.484 -1.5893  0.8157 -0.6340
 5425TIP3    H237691   0.167   5.474   6.424  0.8667 -1.0936  1.2083
 5426TIP3   OH237692   5.716   5.312   3.387  0.0696  0.3406 -0.2634
 5426TIP3    H137693   5.735   5.230   3.431 -1.2022  0.9986  1.6034
 5426TIP3    H237694   5.801   5.339   3.350  1.3164 -0.1139  2.0579
 5427TIP3   OH237695   2.222   3.285  17.559 -0.4781 -0.0450  0.0794
 5427TIP3    H137696   2.294   3.247  17.508 -0.1915 -1.1501  1.2652
 5427TIP3    H237697   2.145   3.272  17.504  0.0524  0.1924 -0.7403
 5428TIP3   OH237698   5.886   0.105   3.176 -0.3249  0.5291 -0.6698
 5428TIP3    H137699   5.869   0.036   3.241 -0.9099  0.2521 -1.1078
 5428TIP3    H237700   5.979   0.098   3.158 -0.3635 -0.1054 -0.6543
 5429TIP3   OH237701   6.612   2.967  13.825 -0.3376 -0.4081  0.3309
 5429TIP3    H137702   6.685   2.912  13.853 -0.0995 -1.1477 -1.6155
 5429TIP3    H237703   6.625   2.978  13.731 -2.5346 -0.2557  0.0018
 5430TIP3   OH237704   1.702   0.781  13.473 -0.1901 -0.6381  0.4440
 5430TIP3    H137705   1.736   0.707  13.523  0.1786  0.1016  1.3147
 5430TIP3    H237706   1.779   0.819  13.431 -0.5029 -1.2787 -0.7510
 5431TIP3   OH237707   4.322   6.252   5.989  0.1676  0.4856 -0.3088
 5431TIP3    H137708   4.287   6.165   6.007 -0.9028  0.5535 -1.8831
 5431TIP3    H237709   4.395   6.261   6.050 -2.3270  0.2449  3.0024
 5432TIP3   OH237710   1.826   0.567   4.142 -0.3604  0.2868  0.1223
 5432TIP3    H137711   1.750   0.510   4.138 -0.0916 -0.0078 -1.7510
 5432TIP3    H237712   1.857   0.572   4.052  2.8057 -0.9107  0.9904
 5433TIP3   OH237713   6.650   1.609   4.854 -0.1002  0.0579  0.0639
 5433TIP3    H137714   6.635   1.701   4.832 -0.6644  0.4820  2.0044
 5433TIP3    H237715   6.742   1.594   4.832 -0.1235  0.9363 -0.7126
 5434TIP3   OH237716   2.717   2.357   0.755 -0.2781  0.1418 -0.1179
 5434TIP3    H137717   2.796   2.351   0.810 -0.8701  1.8560  0.9875
 5434TIP3    H237718   2.745   2.407   0.679  0.0433 -0.5246 -0.4508
 5435TIP3   OH237719   1.872   6.387   0.980 -0.0323  0.5914  0.4176
 5435TIP3    H137720   1.937   6.352   1.040 -0.7575  1.4865  1.7863
 5435TIP3    H237721   1.872   6.482   0.997 -1.4684  0.6479  0.2608
 5436TIP3   OH237722   3.913   2.768  14.073  0.5698  0.2942 -0.3802
 5436TIP3    H137723   3.880   2.739  13.988 -0.8369  0.7710 -0.0303
 5436TIP3    H237724   3.900   2.693  14.131  2.0709 -0.2392 -0.6745
 5437TIP3   OH237725   1.119   6.591   5.940 -0.0631  0.0453  0.1031
 5437TIP3    H137726   1.134   6.509   5.892 -0.7784 -0.1452  0.1829
 5437TIP3    H237727   1.045   6.571   5.998 -1.2787  1.1999 -0.9981
 5438TIP3   OH237728   4.946   4.502  12.811  0.2729 -0.3497  0.0301
 5438TIP3    H137729   4.854   4.508  12.834 -0.1428 -3.2316 -0.4776
 5438TIP3    H237730   4.992   4.506  12.895 -0.3726  0.3423  0.3567
 5439TIP3   OH237731   0.967   1.984   1.657 -0.4907 -0.2469  0.4849
 5439TIP3    H137732   0.950   1.901   1.702 -1.1437  0.1659  1.0109
 5439TIP3    H237733   1.003   2.041   1.725 -1.9339  0.5354  0.6191
 5440TIP3   OH237734   4.336   5.651   2.938  0.0538  0.2742 -0.5359
 5440TIP3    H137735   4.248   5.687   2.923 -0.5469 -0.8132  0.2626
 5440TIP3    H237736   4.340   5.573   2.883  1.4256  1.5885 -2.4086
 5441TIP3   OH237737   1.190   2.775   6.001  0.1743 -0.1692  0.4335
 5441TIP3    H137738   1.177   2.708   6.068 -0.9436 -0.9553 -0.5247
 5441TIP3    H237739   1.112   2.769   5.946 -0.3574  2.5184  0.7841
 5442TIP3   OH237740   1.724   4.377   4.453  0.0942 -0.4662  0.0102
 5442TIP3    H137741   1.762   4.328   4.525  1.4607  1.4414  0.6939
 5442TIP3    H237742   1.683   4.453   4.494 -1.0313 -0.4555 -1.0654
 5443TIP3   OH237743   6.710   2.135   1.350  0.0446 -0.4142 -0.8732
 5443TIP3    H137744   6.776   2.193   1.310 -0.2813  0.8352  0.3274
 5443TIP3    H237745   6.632   2.148   1.296 -0.1593  0.6549 -0.3494
 5444TIP3   OH237746   0.460   6.444  15.846 -0.1277  0.1667  0.3041
 5444TIP3    H137747   0.537   6.430  15.901  1.0735 -0.2933 -1.4249
 5444TIP3    H237748   0.386   6.439  15.907  1.2313  2.0980  2.2799
 5445TIP3   OH237749   2.371   0.750   5.521  0.6792  0.1176  0.4828
 5445TIP3    H137750   2.421   0.808   5.463  0.3783 -0.3664 -0.2703
 5445TIP3    H237751   2.334   0.809   5.587 -1.1313  1.1252 -1.2905
 5446TIP3   OH237752   5.596   5.099  12.602  0.6771  0.0225 -0.4185
 5446TIP3    H137753   5.602   5.024  12.662  2.3534 -1.7046 -2.5802
 5446TIP3    H237754   5.526   5.077  12.541 -1.3974  2.0215  1.0526
 5447TIP3   OH237755   2.494   0.369   1.906  0.5199 -0.1864  0.6220
 5447TIP3    H137756   2.468   0.277   1.899  3.6085 -1.0768 -0.8478
 5447TIP3    H237757   2.469   0.407   1.822 -0.5501  0.3258  1.1454
 5448TIP3   OH237758   2.352   0.342  14.145  0.5300  0.2900 -0.1455
 5448TIP3    H137759   2.397   0.287  14.208  2.0836  3.2233  1.5252
 5448TIP3    H237760   2.414   0.350  14.072  0.9159  0.8950  0.2389
 5449TIP3   OH237761   6.552   4.610  13.711 -0.4013 -0.0166 -0.0156
 5449TIP3    H137762   6.526   4.702  13.705 -1.3633 -0.2026  0.8920
 5449TIP3    H237763   6.469   4.562  13.710  0.1276 -0.9452 -1.4206
 5450TIP3   OH237764   2.730   2.159   3.640  0.1596  0.2544  0.0464
 5450TIP3    H137765   2.653   2.211   3.664  0.2597  0.3898  0.0750
 5450TIP3    H237766   2.798   2.224   3.622  0.3218  0.1291  0.2017
 5451TIP3   OH237767   3.390   6.336  16.278  0.0285 -0.3090 -0.1716
 5451TIP3    H137768   3.384   6.242  16.290 -0.8391 -0.2204  0.1361
 5451TIP3    H237769   3.300   6.364  16.260 -0.0161  0.6728  1.4015
 5452TIP3   OH237770   2.841   3.585  11.832  0.1381  0.2784 -0.2049
 5452TIP3    H137771   2.899   3.656  11.860  0.7084  0.4671 -1.8049
 5452TIP3    H237772   2.891   3.505  11.848  0.6780  0.4158 -1.1502
 5453TIP3   OH237773   3.007   6.698   0.273  0.2539 -0.1351  0.7045
 5453TIP3    H137774   2.922   6.674   0.238 -0.2031  0.3066  1.4772
 5453TIP3    H237775   3.025   6.784   0.236  0.1805 -0.0591  0.8431
 5454TIP3   OH237776   5.465   5.224   4.336 -0.2677 -0.4862  0.1270
 5454TIP3    H137777   5.492   5.151   4.280  1.7139  0.3369 -0.0803
 5454TIP3    H237778   5.542   5.282   4.338 -0.9384  0.4120  2.2362
 5455TIP3   OH237779   0.865   2.837  16.233  0.5478  0.0394  0.0164
 5455TIP3    H137780   0.851   2.767  16.169 -1.7548 -0.8457  1.3542
 5455TIP3    H237781   0.887   2.791  16.314  0.2580  0.9242  0.6124
 5456TIP3   OH237782   0.306   6.436  16.694  0.2896 -0.1772 -0.8038
 5456TIP3    H137783   0.272   6.514  16.651 -0.4966 -0.4902 -0.7873
 5456TIP3    H237784   0.322   6.374  16.623  0.6585 -0.0942 -0.7943
 5457TIP3   OH237785   4.810   4.768  14.645  0.8139  0.5777  0.3704
 5457TIP3    H137786   4.840   4.765  14.736  3.6455  0.6396 -0.4533
 5457TIP3    H237787   4.805   4.861  14.624 -1.1085  0.6127  0.7597
 5458TIP3   OH237788   0.773   1.680   5.911  0.5357  0.3314 -0.0734
 5458TIP3    H137789   0.677   1.676   5.908  0.4998  1.4466 -1.3084
 5458TIP3    H237790   0.801   1.630   5.835  1.0006 -0.8847  0.8661
 5459TIP3   OH237791   6.507   3.620   2.957 -0.3420 -0.1338 -0.4450
 5459TIP3    H137792   6.463   3.684   2.901 -1.6542 -0.2672  0.3880
 5459TIP3    H237793   6.526   3.669   3.037  0.2688 -0.3200 -0.4724
 5460TIP3   OH237794   3.322   2.154  14.351 -0.4189  0.0068 -0.4562
 5460TIP3    H137795   3.374   2.077  14.327 -1.2300 -0.0424 -2.2166
 5460TIP3    H237796   3.280   2.129  14.434 -1.2421 -1.7810 -1.3444
 5461TIP3   OH237797   3.903   3.207   3.391  0.4493 -0.1235  0.1758
 5461TIP3    H137798   3.812   3.179   3.385 -0.1602  1.9486 -1.3474
 5461TIP3    H237799   3.898   3.297   3.425  1.8152  0.4450 -1.0287
 5462TIP3   OH237800   0.379   5.882  11.632 -0.1392  0.1145 -0.1409
 5462TIP3    H137801   0.299   5.869  11.580  0.5218 -0.2615 -1.0775
 5462TIP3    H237802   0.355   5.952  11.693 -1.4016 -0.4493  0.0514
 5463TIP3   OH237803   6.559   4.248  11.929 -0.1988 -0.2412  0.3602
 5463TIP3    H137804   6.549   4.343  11.935  0.7258 -0.1951  1.4976
 5463TIP3    H237805   6.505   4.213  12.000  2.2810 -0.3141  2.3781
 5464TIP3   OH237806   2.204   3.043   0.300  0.5202 -0.2913 -0.0442
 5464TIP3    H137807   2.244   3.125   0.272  0.7775 -0.6312 -0.7077
 5464TIP3    H237808   2.113   3.066   0.319  0.4999  0.0801 -0.5666
 5465TIP3   OH237809   5.522   1.318   6.612 -0.1429  0.4408 -0.6060
 5465TIP3    H137810   5.606   1.362   6.609  0.7757 -1.0326  1.3159
 5465TIP3    H237811   5.457   1.388   6.616  1.0123  1.5785 -1.2808
 5466TIP3   OH237812   5.982   4.855   3.502 -0.3693  0.5077 -0.1463
 5466TIP3    H137813   6.076   4.850   3.518 -0.0979  0.6505 -1.6128
 5466TIP3    H237814   5.950   4.765   3.511 -0.0320  0.3980 -0.0579
 5467TIP3   OH237815   2.524   3.188  15.594  0.2386 -0.0639  0.5493
 5467TIP3    H137816   2.588   3.219  15.659 -0.5508 -0.5809  1.6042
 5467TIP3    H237817   2.548   3.096  15.579  0.1823 -0.0538  0.3993
 5468TIP3   OH237818   3.530   2.868   6.322  0.1991  0.2735 -0.1883
 5468TIP3    H137819   3.603   2.912   6.365 -0.6070  0.2174  1.2948
 5468TIP3    H237820   3.524   2.783   6.366 -0.1276 -0.1414 -1.0066
 5469TIP3   OH237821   6.282   2.695  11.451 -0.4047 -0.0779  0.0171
 5469TIP3    H137822   6.370   2.676  11.483  0.3546 -0.0333 -1.8793
 5469TIP3    H237823   6.243   2.751  11.518  0.9575 -0.1992  0.9535
 5470TIP3   OH237824   4.937   4.448  11.531  0.2028  0.1804  0.3848
 5470TIP3    H137825   4.939   4.534  11.490  3.2922  0.6505  1.2844
 5470TIP3    H237826   4.934   4.386  11.457 -1.7093  0.9674 -0.2689
 5471TIP3   OH237827   4.886   2.585   3.941  0.4956 -0.7987 -0.2425
 5471TIP3    H137828   4.805   2.617   3.981  1.2117 -0.8205  1.3253
 5471TIP3    H237829   4.891   2.630   3.857 -0.0794  0.8833  0.5715
 5472TIP3   OH237830   3.250   3.784  14.833  0.3384  0.5663 -0.2966
 5472TIP3    H137831   3.212   3.848  14.773 -0.4189  0.7547  0.3823
 5472TIP3    H237832   3.201   3.794  14.914  1.2719  0.2279  0.3287
 5473TIP3   OH237833   4.993   6.159  12.988 -0.1928 -0.2318 -0.1003
 5473TIP3    H137834   4.913   6.153  12.936 -0.5121  0.1563  0.3452
 5473TIP3    H237835   4.964   6.185  13.075  0.4655  0.5081 -0.0873
 5474TIP3   OH237836   0.792   5.930   2.856 -0.0618 -0.3553 -0.2325
 5474TIP3    H137837   0.702   5.962   2.865  0.0727 -0.3762  1.4839
 5474TIP3    H237838   0.783   5.835   2.852 -0.1526 -0.3271 -0.9578
 5475TIP3   OH237839   3.318   3.278   5.088  0.3014  0.3066 -0.0465
 5475TIP3    H137840   3.252   3.322   5.034  0.0565 -0.0809 -0.0650
 5475TIP3    H237841   3.282   3.279   5.176 -0.6811 -1.7114 -0.3898
 5476TIP3   OH237842   0.462   4.003  14.781  0.0048  0.5215 -0.4308
 5476TIP3    H137843   0.495   4.024  14.694  0.2148 -1.9465 -1.0326
 5476TIP3    H237844   0.466   3.907  14.785 -0.1053  0.5605  2.2597
 5477TIP3   OH237845   3.375   3.786   1.773 -0.0670 -0.7684 -0.1904
 5477TIP3    H137846   3.330   3.716   1.820  0.7721 -0.4590  1.1159
 5477TIP3    H237847   3.445   3.743   1.724 -1.2632 -1.1578 -1.6373
 5478TIP3   OH237848   5.559   3.532   1.379  0.2929 -0.3832  0.3188
 5478TIP3    H137849   5.544   3.458   1.438  0.4472 -2.4075 -2.0104
 5478TIP3    H237850   5.475   3.545   1.335  0.8682 -0.7286 -0.9197
 5479TIP3   OH237851   4.492   5.639  14.104 -0.1061  0.1210  0.5585
 5479TIP3    H137852   4.574   5.589  14.098 -0.0576  0.3550 -2.1985
 5479TIP3    H237853   4.520   5.729  14.116 -0.0654 -0.0351  1.7509
 5480TIP3   OH237854   3.114   3.671  13.393 -0.1837 -0.6566  0.2263
 5480TIP3    H137855   3.040   3.703  13.341  0.2898 -0.5581 -0.4083
 5480TIP3    H237856   3.183   3.737  13.378 -0.9730  1.1148  3.4623
 5481TIP3   OH237857   3.564   4.991  15.059 -0.3252  0.0804  0.3905
 5481TIP3    H137858   3.654   4.994  15.090 -0.0807 -0.3855 -0.2573
 5481TIP3    H237859   3.539   5.083  15.048  0.0033  0.2126  0.7462
 5482TIP3   OH237860   3.935   0.267  12.346 -0.1472 -0.5471  0.0533
 5482TIP3    H137861   3.997   0.337  12.324 -1.0096  0.9246  1.9879
 5482TIP3    H237862   3.987   0.205  12.398 -0.1262  0.4177  1.2298
 5483TIP3   OH237863   5.776   5.687   2.686 -0.3135 -0.0629 -0.5443
 5483TIP3    H137864   5.814   5.647   2.764 -0.8023 -1.5611 -1.0265
 5483TIP3    H237865   5.851   5.724   2.639  0.5958 -2.5509 -1.2525
 5484TIP3   OH237866   0.789   2.561  12.158 -0.1912  0.3216 -0.3994
 5484TIP3    H137867   0.722   2.511  12.112 -0.1624  1.5245 -1.8157
 5484TIP3    H237868   0.754   2.573  12.247 -0.0059 -2.4962  0.1413
 5485TIP3   OH237869   5.770   3.534  16.743 -0.3042  0.1355  0.2053
 5485TIP3    H137870   5.701   3.467  16.739  0.2439 -0.4971 -4.7520
 5485TIP3    H237871   5.850   3.486  16.764 -0.4056 -0.2505 -0.2763
 5486TIP3   OH237872   1.727   2.646  11.695  0.1185 -0.3565 -0.0887
 5486TIP3    H137873   1.716   2.710  11.765 -1.6522 -1.9941  1.2555
 5486TIP3    H237874   1.640   2.641  11.653  0.1845 -1.8574 -0.1266
 5487TIP3   OH237875   4.794   3.717  14.281  0.0020 -0.0900 -0.0968
 5487TIP3    H137876   4.844   3.700  14.361  0.1134  0.3494 -0.0676
 5487TIP3    H237877   4.726   3.779  14.309  0.1966  0.2588 -0.3967
 5488TIP3   OH237878   2.568   3.981   4.444 -0.2753  0.3614  0.2904
 5488TIP3    H137879   2.539   4.070   4.424 -2.4577 -0.4679 -0.4956
 5488TIP3    H237880   2.491   3.937   4.479 -0.0098 -1.9015 -1.6787
 5489TIP3   OH237881   1.796   6.222   4.775  0.1819 -0.3291 -0.5062
 5489TIP3    H137882   1.843   6.146   4.743 -0.6056 -1.4411  0.8667
 5489TIP3    H237883   1.863   6.290   4.784  1.3826 -1.5931  0.5391
 5490TIP3   OH237884   1.476   2.667  14.033  0.9487 -1.0548  0.1046
 5490TIP3    H137885   1.555   2.626  14.069  0.0194  0.0529  3.9574
 5490TIP3    H237886   1.508   2.740  13.981  2.5807 -0.4089  1.8766
 5491TIP3   OH237887   1.894   5.852  12.223  0.8135 -0.2125  0.5474
 5491TIP3    H137888   1.842   5.773  12.210  1.0860 -0.3158  0.0731
 5491TIP3    H237889   1.973   5.821  12.268  1.3786 -0.3747 -0.5316
 5492TIP3   OH237890   6.474   5.422  14.952 -0.0598  0.3392 -0.7111
 5492TIP3    H137891   6.454   5.486  14.884 -0.9670  0.6918 -0.1273
 5492TIP3    H237892   6.457   5.469  15.034  3.7395  0.9265 -0.0557
 5493TIP3   OH237893   0.238   5.919   2.923  0.0100 -0.5648  0.4430
 5493TIP3    H137894   0.226   5.873   2.840  0.0950  0.8279 -0.3719
 5493TIP3    H237895   0.154   5.962   2.939  0.1285 -0.4887  0.8650
 5494TIP3   OH237896   5.467   6.304   0.524 -0.3873 -0.5464 -0.3193
 5494TIP3    H137897   5.376   6.330   0.539 -0.0489 -0.1389  1.1865
 5494TIP3    H237898   5.501   6.283   0.611  2.1743  3.3432 -0.1361
 5495TIP3   OH237899   4.230   6.121   1.029 -0.0306  0.0115  0.0408
 5495TIP3    H137900   4.242   6.177   0.952  0.2098  1.3989  1.0493
 5495TIP3    H237901   4.153   6.067   1.008 -1.9532  2.5820  0.0472
 5496TIP3   OH237902   4.346   6.501   4.025  0.0166  0.2442  0.3133
 5496TIP3    H137903   4.252   6.518   4.027 -0.2241 -0.6095 -1.4594
 5496TIP3    H237904   4.356   6.416   4.067 -0.6675 -1.7897 -3.1819
 5497TIP3   OH237905   6.251   5.210  14.281 -0.0515 -0.1211  0.0527
 5497TIP3    H137906   6.303   5.130  14.278 -1.3603 -1.0203  0.2622
 5497TIP3    H237907   6.219   5.215  14.371 -1.3602 -0.3196 -0.3698
 5498TIP3   OH237908   3.467   4.963   4.850  0.2877  0.2139 -0.3639
 5498TIP3    H137909   3.554   4.992   4.875 -0.1394 -0.9015  2.7782
 5498TIP3    H237910   3.461   4.873   4.880 -1.9727  0.2810 -0.3891
 5499TIP3   OH237911   3.065   1.845  13.818 -0.6661  0.5915  0.0606
 5499TIP3    H137912   2.970   1.844  13.807 -0.8188 -0.5829  1.1826
 5499TIP3    H237913   3.096   1.913  13.758 -2.0793  0.0359 -1.3744
 5500TIP3   OH237914   4.603   2.921   3.959  0.3709  0.3678 -0.1882
 5500TIP3    H137915   4.523   2.950   3.915  1.4251  1.5870 -1.4359
 5500TIP3    H237916   4.579   2.912   4.051 -0.6659  3.0380 -0.1038
 5501TIP3   OH237917   2.452   3.114  12.735 -0.3714  0.2979 -0.2765
 5501TIP3    H137918   2.428   3.095  12.826 -0.5061 -1.3954 -0.6341
 5501TIP3    H237919   2.492   3.201  12.738  1.3924 -0.5115  1.6983
 5502TIP3   OH237920   2.087   4.624   0.895 -0.1227  0.5163 -0.4002
 5502TIP3    H137921   2.121   4.644   0.808  1.7019  2.5549  0.6875
 5502TIP3    H237922   2.153   4.567   0.934 -0.7880 -0.1526 -0.2250
 5503TIP3   OH237923   3.127   5.436   0.939  0.0590  0.2912 -0.0654
 5503TIP3    H137924   3.038   5.443   0.903 -0.2970 -0.0930  0.7124
 5503TIP3    H237925   3.151   5.344   0.926  0.5104  0.4857 -0.6432
 5504TIP3   OH237926   0.707   5.532  16.972 -0.1707  0.0746 -0.5077
 5504TIP3    H137927   0.640   5.594  16.943  0.1406  0.2926 -0.7684
 5504TIP3    H237928   0.672   5.446  16.949 -1.4916 -0.0125  1.5905
 5505TIP3   OH237929   3.783   1.040  11.626 -0.2170  0.1013  0.2237
 5505TIP3    H137930   3.742   0.966  11.582 -0.8498  0.7798 -0.3421
 5505TIP3    H237931   3.876   1.034  11.601 -0.4499  0.1014 -0.6759
 5506TIP3   OH237932   6.127   0.752  17.281  0.2025 -0.6903 -0.2570
 5506TIP3    H137933   6.125   0.667  17.323 -0.6197  0.6629  2.6806
 5506TIP3    H237934   6.220   0.775  17.278  0.2451  0.0155  2.9159
 5507TIP3   OH237935   5.405   5.211  15.187 -0.8380  0.0163 -0.3448
 5507TIP3    H137936   5.424   5.249  15.273 -1.0560 -1.4674  0.4014
 5507TIP3    H237937   5.491   5.183  15.155 -0.9419 -1.0375  0.2251
 5508TIP3   OH237938   1.016   3.843   3.243 -0.7086  0.2839 -0.4479
 5508TIP3    H137939   0.939   3.892   3.269 -1.1540 -0.3391 -0.5598
 5508TIP3    H237940   0.982   3.759   3.213  0.0641 -0.2458  0.1147
 5509TIP3   OH237941   3.917   2.985   3.747 -0.2211  0.1679 -0.3077
 5509TIP3    H137942   3.882   3.010   3.661 -0.1362  0.9649 -0.1173
 5509TIP3    H237943   3.857   3.023   3.810 -1.2946 -1.9041  0.0122
 5510TIP3   OH237944   4.268   4.711  11.939  0.1885  0.1464  0.2452
 5510TIP3    H137945   4.233   4.642  11.995 -1.7562  1.6310  1.0278
 5510TIP3    H237946   4.252   4.681  11.850  0.5328 -0.9488  0.5472
 5511TIP3   OH237947   0.266   5.402  11.481 -0.0106  0.4936  0.6822
 5511TIP3    H137948   0.354   5.386  11.445  0.0722  1.1662  0.5805
 5511TIP3    H237949   0.207   5.390  11.407  0.0212  0.3177  0.6853
 5512TIP3   OH237950   3.200   6.277  17.368  0.0353  0.8015  0.0576
 5512TIP3    H137951   3.191   6.369  17.394 -1.8957  0.4939  0.6328
 5512TIP3    H237952   3.155   6.272  17.283 -2.6474 -0.1526  1.4327
 5513TIP3   OH237953   6.523   2.345   2.479  0.6414 -0.2285  0.6031
 5513TIP3    H137954   6.463   2.404   2.523  1.1700 -0.3255  1.4799
 5513TIP3    H237955   6.533   2.271   2.540  0.7181 -0.7674 -0.0555
 5514TIP3   OH237956   0.867   3.428   2.806 -0.1472 -0.1658 -0.1307
 5514TIP3    H137957   0.958   3.415   2.834 -0.6807 -2.5086  0.6978
 5514TIP3    H237958   0.815   3.399   2.881 -1.5999 -0.0739 -1.0743
 5515TIP3   OH237959   1.861   5.786  16.788  0.2153  0.4196 -0.5706
 5515TIP3    H137960   1.911   5.766  16.708  0.4440 -1.0925 -0.0814
 5515TIP3    H237961   1.860   5.704  16.837  0.6260  1.4812  1.3055
 5516TIP3   OH237962   0.537   2.859  13.383  0.8313  0.8344 -0.0290
 5516TIP3    H137963   0.586   2.787  13.344 -1.3123 -0.3358 -0.6880
 5516TIP3    H237964   0.592   2.887  13.457  2.3066 -0.6251 -0.4997
 5517TIP3   OH237965   0.638   3.928  15.035  0.0950 -0.1565 -0.0191
 5517TIP3    H137966   0.603   3.922  14.946  1.1955  1.3587 -0.6072
 5517TIP3    H237967   0.607   4.012  15.068 -0.5680 -0.8396  1.1820
 5518TIP3   OH237968   1.866   5.426   3.598  0.2027 -0.4596  0.1611
 5518TIP3    H137969   1.808   5.501   3.581 -1.0050 -1.2181  0.8662
 5518TIP3    H237970   1.954   5.464   3.595 -0.3781  0.9872  0.4343
 5519TIP3   OH237971   3.167   2.989   1.317  0.0763  0.6332 -0.4971
 5519TIP3    H137972   3.152   2.903   1.355 -0.8582  0.4345 -1.2875
 5519TIP3    H237973   3.214   2.972   1.235  1.3541  1.0021  0.1316
 5520TIP3   OH237974   4.690   0.830   5.960 -0.5260 -0.0346 -0.2672
 5520TIP3    H137975   4.606   0.796   5.990 -0.2737 -1.4707 -1.0948
 5520TIP3    H237976   4.741   0.752   5.937  1.2973  0.7628  0.8520
 5521TIP3   OH237977   6.514   3.312  16.663  0.4331 -0.1710 -0.4360
 5521TIP3    H137978   6.587   3.317  16.601 -0.9011 -0.2810 -2.0790
 5521TIP3    H237979   6.438   3.340  16.613 -0.5636  0.6997  1.4581
 5522TIP3   OH237980   5.678   1.352   4.329  0.2425  0.3709  0.7381
 5522TIP3    H137981   5.631   1.414   4.385 -0.8529 -1.3991  1.8994
 5522TIP3    H237982   5.759   1.334   4.375  0.2586  0.4387  0.7352
 5523TIP3   OH237983   0.932   6.229   4.543  0.0550  0.5816  0.3960
 5523TIP3    H137984   0.960   6.195   4.628 -1.1078  0.1778  0.6353
 5523TIP3    H237985   1.013   6.257   4.500  0.6339  1.0390  1.7427
 5524TIP3   OH237986   2.511   6.149  16.608  0.1586  0.7115 -0.1285
 5524TIP3    H137987   2.497   6.243  16.596 -0.3264  0.6994  0.2888
 5524TIP3    H237988   2.556   6.142  16.692 -1.4474  0.4762  0.7549
 5525TIP3   OH237989   3.003   4.621  12.305 -0.0219 -0.3284  0.2723
 5525TIP3    H137990   2.986   4.620  12.399  0.9938  1.0777  0.5102
 5525TIP3    H237991   2.951   4.695  12.272  2.1635  1.3443  0.3346
 5526TIP3   OH237992   2.272   4.959   1.251 -0.1094  0.2662  0.1951
 5526TIP3    H137993   2.220   4.918   1.182 -1.5865  1.4131  0.5801
 5526TIP3    H237994   2.358   4.972   1.211 -0.5492 -0.2699 -0.9887
 5527TIP3   OH237995   1.340   4.905   1.592  0.3207 -0.6344  0.5536
 5527TIP3    H137996   1.348   4.826   1.539  1.6281 -0.4901  0.5118
 5527TIP3    H237997   1.427   4.918   1.630 -0.1747  0.1524  1.4654
 5528TIP3   OH237998   5.282   5.018  11.584  0.4632 -0.1909 -0.0308
 5528TIP3    H137999   5.249   4.954  11.521 -0.9110 -2.0528  2.3642
 5528TIP3    H238000   5.374   4.994  11.597  0.0826 -1.4454  0.4923
 5529TIP3   OH238001   1.300   0.657   4.399  0.2938  0.1072  0.2245
 5529TIP3    H138002   1.365   0.713   4.357  0.8526 -0.6174  0.1115
 5529TIP3    H238003   1.263   0.712   4.469 -0.7555  1.3880 -1.2538
 5530TIP3   OH238004   1.320   3.462   5.498 -0.2918  0.0877  0.3623
 5530TIP3    H138005   1.274   3.545   5.506 -0.9529 -0.0348 -1.5239
 5530TIP3    H238006   1.372   3.472   5.418  1.5707 -0.4366  1.4709
 5531TIP3   OH238007   0.204   4.252  16.934 -0.2641 -0.5182 -0.3892
 5531TIP3    H138008   0.176   4.343  16.924 -1.0967 -0.7981 -0.7017
 5531TIP3    H238009   0.240   4.247  17.023 -0.1866  0.1233 -0.3844
 5532TIP3   OH238010   3.478   1.642  13.470 -0.2005  0.7997  0.1193
 5532TIP3    H138011   3.487   1.580  13.542 -0.9583 -0.3675 -0.7680
 5532TIP3    H238012   3.547   1.618  13.409 -0.5205  0.8227 -0.2485
 5533TIP3   OH238013   0.227   1.382  11.453  0.0469 -0.0148 -0.3725
 5533TIP3    H138014   0.165   1.381  11.380 -0.0023  1.0478 -0.3535
 5533TIP3    H238015   0.180   1.425  11.524  0.5740  0.1790 -0.1402
 5534TIP3   OH238016   2.685   5.571   0.103  0.0843 -0.5508 -0.2597
 5534TIP3    H138017   2.716   5.482   0.089 -0.7167 -1.0972  1.1890
 5534TIP3    H238018   2.699   5.586   0.197  0.5631  0.9972 -0.5605
 5535TIP3   OH238019   0.215   2.494   2.771  0.4915  0.3534  0.1543
 5535TIP3    H138020   0.248   2.471   2.684 -4.1277  1.6967 -2.3379
 5535TIP3    H238021   0.243   2.585   2.784  1.3712  0.0825  0.2363
 5536TIP3   OH238022   1.870   1.986   5.176 -0.6642 -0.5355  0.2396
 5536TIP3    H138023   1.951   2.000   5.225  0.2410 -0.0015 -1.3096
 5536TIP3    H238024   1.810   2.053   5.208 -0.3841 -0.7054  1.1520
 5537TIP3   OH238025   0.422   6.587   4.122 -0.5398  0.1471  0.6527
 5537TIP3    H138026   0.396   6.613   4.210 -0.4121 -0.0673  0.7567
 5537TIP3    H238027   0.425   6.669   4.073 -0.7852  0.2465  0.8009
 5538TIP3   OH238028   5.113   2.827  16.290  0.8154  0.4230  0.7290
 5538TIP3    H138029   5.091   2.734  16.290 -2.1473  1.0115  0.3750
 5538TIP3    H238030   5.204   2.831  16.261  0.8716 -2.3047  0.2911
 5539TIP3   OH238031   0.785   2.924  11.382 -0.7737 -0.1147  1.0341
 5539TIP3    H138032   0.809   2.906  11.291  0.2727 -1.6517  1.5773
 5539TIP3    H238033   0.856   2.978  11.416 -0.9898  0.1616  1.0549
 5540TIP3   OH238034   3.304   6.512   4.240 -0.1768 -0.7462  0.6471
 5540TIP3    H138035   3.327   6.603   4.259  2.3420 -0.8914 -1.2395
 5540TIP3    H238036   3.324   6.464   4.320 -0.2999  0.1479  1.2259
 5541TIP3   OH238037   5.431   1.136  15.196 -0.0345  0.1772  0.5931
 5541TIP3    H138038   5.372   1.133  15.121 -1.1428 -0.6676  1.4485
 5541TIP3    H238039   5.518   1.122  15.159 -0.7320 -2.0810 -0.3728
 5542TIP3   OH238040   1.329   4.401   6.415  0.2686 -0.0424  0.5378
 5542TIP3    H138041   1.266   4.472   6.427  0.3658  0.0763  0.3497
 5542TIP3    H238042   1.319   4.347   6.493 -0.4962 -0.3619  0.2324
 5543TIP3   OH238043   3.072   2.577   4.083  0.6176 -0.1767  0.5797
 5543TIP3    H138044   2.999   2.533   4.038  0.6506  0.2941  0.0510
 5543TIP3    H238045   3.032   2.651   4.129  0.5223 -0.9039  1.6979
 5544TIP3   OH238046   5.084   1.709   4.116  0.2813 -0.5943 -0.4609
 5544TIP3    H138047   4.993   1.721   4.144  0.0890 -2.0419 -0.3922
 5544TIP3    H238048   5.129   1.787   4.147 -1.4067  1.4031 -2.6238
 5545TIP3   OH238049   1.932   0.882  14.412 -0.2301 -0.2668  0.2484
 5545TIP3    H138050   1.853   0.829  14.398 -0.7262  0.6163 -0.4173
 5545TIP3    H238051   2.003   0.829  14.374 -0.9037  0.0637 -1.5786
 5546TIP3   OH238052   5.102   2.087  11.550 -0.2661  0.2861  0.1793
 5546TIP3    H138053   5.030   2.128  11.597  0.8743  0.0818  2.2184
 5546TIP3    H238054   5.168   2.155  11.542 -0.0805  0.0526 -0.3508
 5547TIP3   OH238055   3.696   3.209   5.078  0.5408  0.2835 -0.0188
 5547TIP3    H138056   3.773   3.156   5.099 -0.5004 -1.2330  0.1898
 5547TIP3    H238057   3.630   3.145   5.053 -0.8131  1.5076  0.2995
 5548TIP3   OH238058   5.145   5.725  16.207 -0.9227 -0.0039 -0.6034
 5548TIP3    H138059   5.233   5.729  16.245 -0.6600 -0.4318 -1.1615
 5548TIP3    H238060   5.160   5.720  16.113 -1.5528  0.1397 -0.7131
 5549TIP3   OH238061   5.649   4.232   4.546 -0.2782 -0.3027 -0.6252
 5549TIP3    H138062   5.681   4.172   4.480  2.3378 -0.5697  0.7219
 5549TIP3    H238063   5.720   4.235   4.611 -1.1099  2.7510  0.3038
 5550TIP3   OH238064   4.601   6.505   4.320  0.1281  0.1474  0.6509
 5550TIP3    H138065   4.582   6.573   4.255 -1.7970  1.3221  2.3232
 5550TIP3    H238066   4.529   6.510   4.382  1.0393 -2.0420  2.0075
 5551TIP3   OH238067   1.537   1.347  16.329  0.2901 -0.1637  0.7889
 5551TIP3    H138068   1.547   1.434  16.290 -2.0679  0.1554  0.7695
 5551TIP3    H238069   1.606   1.295  16.287  0.2247  1.0995 -1.0013
 5552TIP3   OH238070   0.444   3.357  12.662 -0.0858  0.2961 -0.0015
 5552TIP3    H138071   0.377   3.321  12.603  1.1786 -0.4094 -1.0723
 5552TIP3    H238072   0.512   3.290  12.664  0.4264  0.8320  1.3669
 5553TIP3   OH238073   0.262   5.799   4.162 -0.5676  0.0581  0.8284
 5553TIP3    H138074   0.307   5.787   4.078 -2.2669  2.1618 -0.4726
 5553TIP3    H238075   0.258   5.894   4.174  0.6726 -0.1614  3.9509
 5554TIP3   OH238076   5.303   6.581  16.703 -0.3448 -0.4159  0.0514
 5554TIP3    H138077   5.312   6.555  16.795 -1.7141  1.7168  0.8483
 5554TIP3    H238078   5.384   6.627  16.683 -0.3901 -0.1623  0.4466
 5555TIP3   OH238079   3.098   1.423   3.791  0.0674  0.3202  0.4780
 5555TIP3    H138080   3.024   1.364   3.804 -2.0551  2.3115 -1.5951
 5555TIP3    H238081   3.108   1.468   3.875 -1.1222  0.0635  0.7723
 5556TIP3   OH238082   5.962   3.264  13.681  0.3879  0.0199 -0.4954
 5556TIP3    H138083   5.942   3.180  13.640  0.5980 -0.9330  1.2860
 5556TIP3    H238084   5.903   3.326  13.637 -0.5638 -1.2458 -1.0741
 5557TIP3   OH238085   2.191   1.965  16.005  0.1011  0.3457  0.8584
 5557TIP3    H138086   2.276   1.926  16.025  0.4231  0.4312 -0.2265
 5557TIP3    H238087   2.130   1.892  16.004  0.4653  0.0416  0.0880
 5558TIP3   OH238088   4.314   2.205  16.236 -0.1245 -0.6275  0.9947
 5558TIP3    H138089   4.251   2.151  16.284  0.5088 -2.3920 -0.0338
 5558TIP3    H238090   4.267   2.231  16.157  0.3814 -1.9754  0.2082
 5559TIP3   OH238091   5.742   4.027   4.391  0.5025 -0.2782  0.3237
 5559TIP3    H138092   5.658   3.982   4.382  0.2804  0.1111  0.4067
 5559TIP3    H238093   5.760   4.060   4.303  0.6973 -0.5872  0.2483
 5560TIP3   OH238094   0.384   0.346   2.868 -0.1442 -0.2991 -0.5246
 5560TIP3    H138095   0.337   0.365   2.949  1.3155  2.0977 -0.1723
 5560TIP3    H238096   0.315   0.344   2.801 -0.9762  1.6561  0.1952
 5561TIP3   OH238097   1.401   0.667  17.503  0.1232  0.0907  0.2543
 5561TIP3    H138098   1.325   0.709  17.463  1.8641  1.0708 -2.3064
 5561TIP3    H238099   1.461   0.739  17.521  1.5625 -0.8942 -0.4329
 5562TIP3   OH238100   0.550   6.171   1.189  0.6735 -0.5730 -0.1033
 5562TIP3    H138101   0.582   6.238   1.250 -0.3717 -1.4977  1.5501
 5562TIP3    H238102   0.531   6.219   1.109 -0.4084  1.2287  1.1368
 5563TIP3   OH238103   4.518   1.631   5.618 -0.5034  0.0921 -0.0309
 5563TIP3    H138104   4.602   1.677   5.625 -0.3667 -0.0338 -0.7546
 5563TIP3    H238105   4.491   1.616   5.709  1.8553 -2.7275  0.3670
 5564TIP3   OH238106   2.444   5.337  14.622  0.0933 -0.7450 -0.3095
 5564TIP3    H138107   2.367   5.355  14.675  0.4027 -0.5981  0.0921
 5564TIP3    H238108   2.517   5.336  14.684  0.7879  1.6843 -0.9995
 5565TIP3   OH238109   5.488   2.478   1.244 -0.0062 -0.4476  0.5900
 5565TIP3    H138110   5.572   2.433   1.255  0.6872 -0.2598 -2.8382
 5565TIP3    H238111   5.457   2.451   1.157 -2.0870  1.7526  0.5215
 5566TIP3   OH238112   6.626   2.052   2.287  0.3788 -0.0433  0.1991
 5566TIP3    H138113   6.652   2.115   2.220 -0.1156  0.9016  0.8675
 5566TIP3    H238114   6.534   2.034   2.269  0.2947  0.0709  0.5035
 5567TIP3   OH238115   3.579   1.525   5.900  1.1473 -0.2912  0.0427
 5567TIP3    H138116   3.633   1.602   5.881 -1.3376  1.3436 -0.8399
 5567TIP3    H238117   3.517   1.555   5.966  0.5877 -1.7839  0.2271
 5568TIP3   OH238118   2.406   5.870  13.836  0.3166  0.7499 -0.4802
 5568TIP3    H138119   2.361   5.923  13.902 -0.5441 -0.0212 -0.4349
 5568TIP3    H238120   2.435   5.792  13.882 -1.6343 -0.5308 -1.2786
 5569TIP3   OH238121   0.380   5.159   3.266 -0.2547  0.2099 -0.4235
 5569TIP3    H138122   0.449   5.181   3.204  1.1010  0.8725  1.2439
 5569TIP3    H238123   0.423   5.105   3.332 -1.5144 -0.0066  0.2563
 5570TIP3   OH238124   6.409   5.452  15.757  0.3390 -0.4582 -0.0695
 5570TIP3    H138125   6.445   5.366  15.780 -0.2394 -1.0082 -1.1868
 5570TIP3    H238126   6.429   5.462  15.664 -0.2829  0.2838 -0.1264
 5571TIP3   OH238127   5.116   3.975   4.437 -0.0952 -0.3922 -0.3256
 5571TIP3    H138128   5.023   3.995   4.426  0.0087  0.2037 -0.1566
 5571TIP3    H238129   5.121   3.930   4.521 -0.2097 -0.2661 -0.2500
 5572TIP3   OH238130   2.434   3.509   6.294  0.4333 -0.3331  0.2052
 5572TIP3    H138131   2.444   3.441   6.360 -0.2713  0.6561  1.3789
 5572TIP3    H238132   2.428   3.590   6.345 -1.8285  0.3060 -0.9683
 5573TIP3   OH238133   4.881   2.293   7.255 -0.3923  0.1486  0.1291
 5573TIP3    H138134   4.884   2.236   7.177  0.8946 -0.2454  0.4404
 5573TIP3    H238135   4.798   2.339   7.247 -1.5870 -1.8877 -0.0603
 5574TIP3   OH238136   0.668   6.449  15.202 -0.2330 -0.0031  0.1212
 5574TIP3    H138137   0.727   6.490  15.138  0.0971 -0.1336  0.3435
 5574TIP3    H238138   0.589   6.429  15.152  0.3109 -0.8081 -0.4351
 5575TIP3   OH238139   4.847   5.593  17.009 -0.3746  0.3933  0.5564
 5575TIP3    H138140   4.898   5.673  17.017  0.1561 -0.0731  2.6067
 5575TIP3    H238141   4.756   5.622  17.001 -0.2510  1.2069  1.8900
 5576TIP3   OH238142   6.569   0.468  16.053 -0.4875 -0.3414 -0.2289
 5576TIP3    H138143   6.499   0.429  16.105 -0.7211 -0.4087 -0.5955
 5576TIP3    H238144   6.526   0.497  15.972  0.0325 -0.9827 -0.7421
 5577TIP3   OH238145   0.979   0.854   1.574  0.0802 -0.4279 -0.8236
 5577TIP3    H138146   1.025   0.909   1.637 -0.1532 -1.3508  0.1708
 5577TIP3    H238147   1.048   0.816   1.519  0.5123 -1.5100  0.4219
 5578TIP3   OH238148   3.011   6.302   0.417 -0.5913 -0.1228  0.6678
 5578TIP3    H138149   3.042   6.292   0.327 -2.4783  1.2622 -0.2123
 5578TIP3    H238150   3.078   6.356   0.460 -0.4991  0.6330 -0.4092
 5579TIP3   OH238151   0.788   0.803  15.925  0.1459  0.2247  0.1407
 5579TIP3    H138152   0.878   0.799  15.957  0.1767  1.5313  0.2965
 5579TIP3    H238153   0.737   0.758  15.992  0.6995 -0.6618 -0.0296
 5580TIP3   OH238154   0.815   3.944   5.529  0.5424 -0.3372 -0.1544
 5580TIP3    H138155   0.856   3.911   5.449  2.5216 -2.4876  1.5930
 5580TIP3    H238156   0.870   4.018   5.555  0.6421 -0.4007 -0.1820
 5581TIP3   OH238157   2.771   1.086  13.193  0.4904  0.2326  0.7587
 5581TIP3    H138158   2.777   0.991  13.181 -0.8457  0.1410  0.5962
 5581TIP3    H238159   2.834   1.122  13.132 -0.8446 -0.4930 -1.1396
 5582TIP3   OH238160   4.608   3.070   2.548  0.3543 -0.5425 -0.0589
 5582TIP3    H138161   4.656   3.061   2.466 -1.4923  1.2525 -1.4389
 5582TIP3    H238162   4.531   3.014   2.538 -0.0434 -0.0767  0.2983
 5583TIP3   OH238163   3.038   5.163   5.138  0.0731 -0.2827 -0.0003
 5583TIP3    H138164   3.099   5.090   5.137  0.2317 -0.1745  0.9445
 5583TIP3    H238165   3.091   5.240   5.158  0.0316  0.2386 -1.7264
 5584TIP3   OH238166   6.664   0.390   5.956  0.3070  0.5721  0.1404
 5584TIP3    H138167   6.730   0.377   6.024 -0.6177 -1.7266  0.7163
 5584TIP3    H238168   6.591   0.433   6.001 -0.1329 -0.5550  0.5474
 5585TIP3   OH238169   6.367   4.926   1.591 -0.5333  0.0676  0.0016
 5585TIP3    H138170   6.428   4.914   1.518 -1.4948 -0.3893 -0.7623
 5585TIP3    H238171   6.421   4.953   1.665  0.5789 -0.3247 -0.6580
 5586TIP3   OH238172   2.072   4.087   4.417  0.6541 -0.6224 -0.1431
 5586TIP3    H138173   2.065   4.179   4.392  0.2406 -0.7726 -0.5895
 5586TIP3    H238174   2.086   4.089   4.511 -2.8246 -0.1748  0.5007
 5587TIP3   OH238175   3.208   1.524  10.776  0.0584  0.0942 -1.2099
 5587TIP3    H138176   3.208   1.433  10.748 -3.1400 -0.1899 -0.6262
 5587TIP3    H238177   3.148   1.568  10.716 -1.9367  0.7926  1.1343
 5588TIP3   OH238178   2.044   1.344  11.582  0.0186 -0.1278 -0.3888
 5588TIP3    H138179   1.989   1.422  11.577 -0.0743 -0.1459  0.2373
 5588TIP3    H238180   1.998   1.278  11.530 -0.8861 -0.3377  0.6428
 5589TIP3   OH238181   0.085   4.957   4.354 -0.2687 -0.3121  0.2232
 5589TIP3    H138182   0.032   5.002   4.289  0.9481 -0.0716 -0.6403
 5589TIP3    H238183   0.106   5.024   4.419 -2.3807 -0.8015  1.5047
 5590TIP3   OH238184   6.625   1.766   6.117  0.0830  0.6470 -0.3804
 5590TIP3    H138185   6.598   1.719   6.196  0.6881  0.1676 -0.4570
 5590TIP3    H238186   6.699   1.716   6.083  1.3507  2.1751  0.0530
 5591TIP3   OH238187   3.075   0.925  12.760 -0.1522  0.5285  0.4128
 5591TIP3    H138188   3.143   0.982  12.795  1.4952 -1.4604  0.6409
 5591TIP3    H238189   3.000   0.939  12.818  1.2036  0.2895  2.3477
 5592TIP3   OH238190   3.902   5.766   5.020 -0.3897  0.0543 -0.0040
 5592TIP3    H138191   3.842   5.783   4.947 -1.2701 -0.9519  0.4461
 5592TIP3    H238192   3.844   5.739   5.092  0.6475 -1.8790  0.1730
 5593TIP3   OH238193   2.070   6.085  16.318 -0.0984 -0.4714 -0.1820
 5593TIP3    H138194   2.091   6.078  16.412  2.8781 -1.0501 -0.7992
 5593TIP3    H238195   2.009   6.013  16.302  1.5243 -2.1315  0.8054
 5594TIP3   OH238196   3.947   3.121   5.166  0.0955  0.5603 -0.3263
 5594TIP3    H138197   4.022   3.104   5.223 -2.1915 -1.1186  2.4315
 5594TIP3    H238198   3.927   3.036   5.126 -1.3263  0.5813  0.2994
 5595TIP3   OH238199   0.361   1.135  12.538  0.1886 -1.0068 -0.4540
 5595TIP3    H138200   0.386   1.103  12.451  0.1517 -1.5466 -0.2682
 5595TIP3    H238201   0.358   1.231  12.528  4.4493 -0.6315  0.0369
 5596TIP3   OH238202   4.595   1.967  13.878 -0.7042  0.0144  0.1941
 5596TIP3    H138203   4.551   1.953  13.962  1.7917  0.0915  1.5993
 5596TIP3    H238204   4.681   2.002  13.901 -0.3747  1.2129 -2.4808
 5597TIP3   OH238205   0.060   5.269   0.824 -0.2202  0.0337 -0.2269
 5597TIP3    H138206   0.018   5.325   0.889  4.0032 -0.5552  3.5126
 5597TIP3    H238207   0.057   5.181   0.862  1.3045 -0.5763 -1.3908
 5598TIP3   OH238208   2.444   3.167  17.407 -0.0910 -0.2361 -0.4844
 5598TIP3    H138209   2.495   3.102  17.455  0.9902 -0.5675 -2.0131
 5598TIP3    H238210   2.408   3.120  17.332  1.9003  1.1471 -2.4393
 5599TIP3   OH238211   1.115   1.220   3.430  0.8136  0.0235 -0.1361
 5599TIP3    H138212   1.146   1.298   3.477 -0.9208  1.6155 -1.4933
 5599TIP3    H238213   1.020   1.221   3.442  0.6194 -1.1137 -1.3370
 5600TIP3   OH238214   3.923   2.450  15.375 -0.3429  0.1703  0.0164
 5600TIP3    H138215   3.934   2.519  15.309 -1.3684 -0.3475 -0.7289
 5600TIP3    H238216   3.949   2.370  15.331 -1.6334 -0.2709  0.0040
 5601TIP3   OH238217   5.004   4.543   4.484 -0.7101 -0.2850 -0.4986
 5601TIP3    H138218   4.971   4.503   4.564 -0.9517 -0.3428 -0.6263
 5601TIP3    H238219   5.098   4.553   4.499 -0.7178 -0.5134 -0.3007
 5602TIP3   OH238220   1.291   4.240   5.732  0.3220  0.1797  0.2428
 5602TIP3    H138221   1.219   4.232   5.795 -0.0909  2.5936  0.1919
 5602TIP3    H238222   1.282   4.329   5.697  2.0053 -0.2409 -1.4436
 5603TIP3   OH238223   1.433   4.979   3.907 -0.0002 -0.1748 -0.0265
 5603TIP3    H138224   1.498   4.909   3.898  0.3383  0.0098  0.8384
 5603TIP3    H238225   1.408   5.001   3.818 -0.5252 -1.7829 -0.3116
 5604TIP3   OH238226   4.840   5.667  13.771  0.5928 -0.2844  0.3084
 5604TIP3    H138227   4.833   5.763  13.772 -0.8173 -0.3716  0.9646
 5604TIP3    H238228   4.902   5.648  13.701  1.5968  1.1521  0.7653
 5605TIP3   OH238229   5.172   1.447   4.629  0.1020  0.2106 -0.3149
 5605TIP3    H138230   5.203   1.470   4.716 -1.9120  0.8542  0.2808
 5605TIP3    H238231   5.191   1.524   4.575 -0.8853  0.8139  0.1718
 5606TIP3   OH238232   0.140   2.314   4.127 -0.0315  0.2555  0.6665
 5606TIP3    H138233   0.143   2.336   4.034 -2.5443  1.9811  0.9113
 5606TIP3    H238234   0.209   2.367   4.167 -0.4598  1.2941  0.0607
 5607TIP3   OH238235   5.849   3.664  11.828  0.1279 -0.2254  0.3025
 5607TIP3    H138236   5.777   3.640  11.886 -0.8322 -0.9842 -1.1439
 5607TIP3    H238237   5.817   3.740  11.779  0.6565 -0.0091  0.2838
 5608TIP3   OH238238   3.331   2.303   5.102  0.5584 -0.0185  0.5527
 5608TIP3    H138239   3.398   2.305   5.170 -0.2599  1.9460  1.3771
 5608TIP3    H238240   3.346   2.383   5.052 -0.2882 -0.2959 -0.1640
 5609TIP3   OH238241   4.511   2.160  16.510  0.1364 -0.1800  0.1448
 5609TIP3    H138242   4.419   2.141  16.488  0.4045 -0.4625 -0.7958
 5609TIP3    H238243   4.555   2.075  16.502  0.4934 -0.0319  0.5249
 5610TIP3   OH238244   4.173   1.291   0.575  0.1357 -0.1369  0.2250
 5610TIP3    H138245   4.250   1.349   0.570  0.9449 -1.2712 -1.7614
 5610TIP3    H238246   4.098   1.350   0.564  0.6767  0.9746  2.0290
 5611TIP3   OH238247   0.102   6.432   2.680 -0.3402  0.4675 -0.0252
 5611TIP3    H138248   0.042   6.418   2.606  2.1677  0.3631 -2.1706
 5611TIP3    H238249   0.102   6.527   2.692 -0.4531  0.5218 -0.4249
 5612TIP3   OH238250   4.368   0.566   1.285  0.1039  0.0988  0.0282
 5612TIP3    H138251   4.324   0.634   1.233  1.3423 -0.1457 -1.3993
 5612TIP3    H238252   4.439   0.535   1.229  0.8372 -0.9425  1.4704
 5613TIP3   OH238253   0.787   0.521   4.034  0.1027 -0.3416  0.3252
 5613TIP3    H138254   0.857   0.470   3.993  0.5465 -1.1400  1.9846
 5613TIP3    H238255   0.715   0.459   4.045  1.1884 -1.2125  3.7864
 5614TIP3   OH238256   2.814   1.708  17.370  0.3055 -0.5977 -0.9672
 5614TIP3    H138257   2.884   1.773  17.378  0.3597 -0.4995 -2.1444
 5614TIP3    H238258   2.803   1.695  17.276 -1.7009 -0.1506 -0.8245
 5615TIP3   OH238259   0.800   4.544   2.791 -0.1093  0.6024 -0.0780
 5615TIP3    H138260   0.798   4.451   2.770  2.7501  0.7309 -1.6023
 5615TIP3    H238261   0.763   4.587   2.713 -0.7004  0.7803  0.2943
 5616TIP3   OH238262   0.426   1.503  15.828  0.4772  0.2030 -0.4791
 5616TIP3    H138263   0.444   1.574  15.889  0.6787  1.9526 -2.4711
 5616TIP3    H238264   0.480   1.522  15.752 -0.2010 -1.5753 -1.4666
 5617TIP3   OH238265   6.317   5.712   0.370 -0.0265  0.0161 -0.0860
 5617TIP3    H138266   6.405   5.691   0.339 -0.5749 -2.1214 -0.3211
 5617TIP3    H238267   6.314   5.677   0.459 -0.6965 -0.0703 -0.1393
 5618TIP3   OH238268   4.032   0.870   5.737 -0.0021  0.1695 -0.5192
 5618TIP3    H138269   4.071   0.958   5.733  1.2116 -0.3820 -2.8962
 5618TIP3    H238270   3.941   0.882   5.709  0.2107  0.6565 -1.0138
 5619TIP3   OH238271   0.365   0.668   4.480  0.1906 -0.1179  0.1951
 5619TIP3    H138272   0.368   0.762   4.464  1.0902 -0.2260 -0.3093
 5619TIP3    H238273   0.273   0.650   4.501 -0.0723  0.7943 -0.1461
 5620TIP3   OH238274   5.670   6.336  16.978  0.1317  0.2919  0.3213
 5620TIP3    H138275   5.689   6.385  16.899 -0.7242 -1.0458 -0.7660
 5620TIP3    H238276   5.747   6.349  17.034  1.7894 -0.4990 -1.6370
 5621TIP3   OH238277   5.907   4.897   6.672  0.2773  0.1900  0.1739
 5621TIP3    H138278   5.834   4.889   6.610 -0.3172 -0.6212  0.9483
 5621TIP3    H238279   5.941   4.985   6.657 -1.3621  0.8911  0.3257
 5622TIP3   OH238280   3.843   0.860   1.995  0.2203 -0.1165  0.0842
 5622TIP3    H138281   3.852   0.951   1.967  1.7982 -0.3096 -0.1255
 5622TIP3    H238282   3.931   0.834   2.024  0.1408 -1.9763 -1.1279
 5623TIP3   OH238283   0.737   0.150  16.039  0.3293 -0.6020  0.3262
 5623TIP3    H138284   0.680   0.224  16.016  2.4979  1.2202  0.5160
 5623TIP3    H238285   0.680   0.073  16.033 -1.9205  1.0198 -0.2741
 5624TIP3   OH238286   5.346   2.516  13.710  0.2183 -0.5875  0.3785
 5624TIP3    H138287   5.266   2.482  13.670  0.1117 -0.2318  0.2825
 5624TIP3    H238288   5.315   2.567  13.785  0.2607  0.6298 -0.4115
 5625TIP3   OH238289   2.852   6.327   1.265 -0.7041  0.2397  0.7830
 5625TIP3    H138290   2.922   6.303   1.325  0.3501 -1.3877 -0.9836
 5625TIP3    H238291   2.773   6.329   1.320  0.4183  0.2226  2.4576
 5626TIP3   OH238292   4.599   6.135  14.730  0.3046 -0.6236 -0.1217
 5626TIP3    H138293   4.616   6.224  14.762 -3.1334 -0.9907  3.4508
 5626TIP3    H238294   4.657   6.079  14.782  1.0132 -0.6926 -0.9506
 5627TIP3   OH238295   4.069   3.889   3.465  0.2677 -0.3313  0.3335
 5627TIP3    H138296   4.124   3.951   3.513  0.0714 -0.2612  0.4709
 5627TIP3    H238297   4.126   3.853   3.398  0.6334 -0.6691  0.8211
 5628TIP3   OH238298   3.629   6.182  16.385  0.3127  0.6034 -0.0307
 5628TIP3    H138299   3.555   6.177  16.324  0.5986 -1.8323 -0.3093
 5628TIP3    H238300   3.599   6.133  16.462  0.9698  1.2268  0.6247
 5629TIP3   OH238301   5.307   5.869   4.410 -0.2053 -0.0749 -0.3336
 5629TIP3    H138302   5.286   5.845   4.500  2.2554 -0.7312  0.1212
 5629TIP3    H238303   5.367   5.943   4.418  0.2108 -0.2753 -1.4202
 5630TIP3   OH238304   2.997   4.594   4.748  0.2042 -0.3910  0.0448
 5630TIP3    H138305   3.028   4.553   4.667 -1.3358 -0.8740 -0.3395
 5630TIP3    H238306   3.048   4.551   4.817 -0.2196 -1.8098 -0.4813
 5631TIP3   OH238307   2.194   0.697   0.979  0.4511  0.3946  0.4239
 5631TIP3    H138308   2.228   0.785   0.992 -1.1299  0.9449  1.0871
 5631TIP3    H238309   2.259   0.639   1.021  1.1466  1.2806  0.5946
 5632TIP3   OH238310   5.215   3.968  12.493 -0.0158 -0.6464 -0.2760
 5632TIP3    H138311   5.194   3.878  12.516 -0.2186 -0.8151 -1.0703
 5632TIP3    H238312   5.241   4.009  12.575 -4.2973 -0.1361  1.0570
 5633TIP3   OH238313   0.816   2.489  12.441 -0.2695 -0.3433 -0.3397
 5633TIP3    H138314   0.896   2.438  12.450 -0.3748 -0.3677  0.5059
 5633TIP3    H238315   0.755   2.450  12.503 -0.5676  0.3869 -0.1580
 5634TIP3   OH238316   1.726   1.674  13.209 -1.0740 -0.0431  0.3906
 5634TIP3    H138317   1.809   1.722  13.217 -2.1589  2.2418 -1.1555
 5634TIP3    H238318   1.679   1.694  13.290 -0.5854 -0.5021  0.8050
 5635TIP3   OH238319   1.202   0.023   4.266  0.1651 -0.2207  0.6473
 5635TIP3    H138320   1.238  -0.037   4.201 -2.7863 -0.7504 -0.6836
 5635TIP3    H238321   1.143   0.079   4.216 -0.4951  0.8624  2.5576
 5636TIP3   OH238322   3.871   2.557   1.302  0.1202  0.1310 -0.1886
 5636TIP3    H138323   3.927   2.624   1.342  1.7548 -1.7573  0.9172
 5636TIP3    H238324   3.788   2.564   1.348  0.5121  0.9198  0.4228
 5637TIP3   OH238325   3.971   5.039  16.846 -0.4712  0.4557  0.4025
 5637TIP3    H138326   3.888   4.998  16.870 -1.1944  0.9338 -1.1508
 5637TIP3    H238327   3.956   5.132  16.856  0.4390  0.4925  1.7044
 5638TIP3   OH238328   1.820   5.897   3.386  0.1991 -0.1717 -0.1823
 5638TIP3    H138329   1.822   5.985   3.347  0.7584 -0.0323  0.1540
 5638TIP3    H238330   1.910   5.880   3.411 -0.0858 -0.4241  0.7040
 5639TIP3   OH238331   2.044   5.041  14.232  0.0759  0.0322  0.2206
 5639TIP3    H138332   2.015   4.965  14.181 -0.2437  0.6011 -0.4623
 5639TIP3    H238333   2.104   5.004  14.297  0.7794 -0.6877 -0.7814
 5640TIP3   OH238334   2.061   0.124  13.587  0.8537  0.3644  0.4057
 5640TIP3    H138335   2.099   0.197  13.636  1.1125  0.0825  0.6371
 5640TIP3    H238336   2.051   0.156  13.498 -0.7901  1.3153  0.8984
 5641TIP3   OH238337   3.424   1.973   5.202 -0.0833 -0.4393  0.0283
 5641TIP3    H138338   3.440   2.031   5.276  0.5900  0.7657 -1.0302
 5641TIP3    H238339   3.365   2.022   5.145  0.8217 -0.5939 -1.0803
 5642TIP3   OH238340   1.362   6.053   4.635  0.6002  0.1611 -0.2074
 5642TIP3    H138341   1.390   6.068   4.545 -0.2532  1.8390 -0.2244
 5642TIP3    H238342   1.349   6.140   4.671  1.8902 -0.4289  1.8749
 5643TIP3   OH238343   4.891   4.380   0.391  0.7957 -0.3208 -0.0653
 5643TIP3    H138344   4.976   4.407   0.356  1.3474  1.5876  2.4709
 5643TIP3    H238345   4.829   4.443   0.356  0.9738  0.2377  0.6176
 5644TIP3   OH238346   2.169   2.854  12.831 -0.0443  0.1579  0.2052
 5644TIP3    H138347   2.098   2.845  12.768  0.7317  1.9229 -0.9777
 5644TIP3    H238348   2.179   2.948  12.844 -0.7771 -0.0824  3.7318
 5645TIP3   OH238349   0.021   6.370   3.237  0.2528 -0.7858 -0.4721
 5645TIP3    H138350   0.097   6.335   3.283  0.1089 -1.8752 -1.0126
 5645TIP3    H238351   0.057   6.429   3.171  0.4920  0.3136  0.6253
 5646TIP3   OH238352   5.965   6.530   1.834  0.1200 -0.2707  0.1697
 5646TIP3    H138353   5.960   6.502   1.742  0.6748 -0.8315  0.3081
 5646TIP3    H238354   5.932   6.620   1.833  2.1560  0.5255 -0.9427
 5647TIP3   OH238355   2.516   0.754   1.866 -0.2607 -0.3833 -0.1718
 5647TIP3    H138356   2.590   0.725   1.919  0.4709  0.0054 -0.9597
 5647TIP3    H238357   2.550   0.759   1.777 -0.3211  2.7594 -0.1372
 5648TIP3   OH238358   1.787   4.945  15.565 -0.0247  0.6959  0.2714
 5648TIP3    H138359   1.761   4.887  15.493  1.0465  0.3420  0.1505
 5648TIP3    H238360   1.833   5.017  15.521  0.1770  0.7426  0.5595
 5649TIP3   OH238361   3.068   3.366  15.830 -0.0180 -0.1261 -0.3326
 5649TIP3    H138362   3.031   3.288  15.871  0.1670 -0.0403  0.0021
 5649TIP3    H238363   3.093   3.422  15.903 -0.3487  0.3410 -0.5734
 5650TIP3   OH238364   3.507   2.504   2.843 -0.2493  0.0441 -0.0057
 5650TIP3    H138365   3.602   2.505   2.852 -0.2548 -0.6503  0.2254
 5650TIP3    H238366   3.483   2.595   2.826  0.4008  0.3276  0.5420
 5651TIP3   OH238367   1.225   5.854  14.202 -0.5441  0.1333  0.1090
 5651TIP3    H138368   1.280   5.859  14.280  2.0231 -1.5983 -1.4387
 5651TIP3    H238369   1.236   5.938  14.159  0.0866  0.1650  0.3262
 5652TIP3   OH238370   0.528   1.248  10.599 -0.3352  0.3210  0.2178
 5652TIP3    H138371   0.464   1.244  10.670  0.2951  2.7724  1.0363
 5652TIP3    H238372   0.600   1.299  10.635  1.6297 -1.3851 -1.0552
 5653TIP3   OH238373   3.366   3.256   3.517 -0.1072  0.2060  0.0505
 5653TIP3    H138374   3.300   3.187   3.525 -0.6607  0.5758 -1.1462
 5653TIP3    H238375   3.340   3.306   3.440  0.6764  1.3409  0.4858
 5654TIP3   OH238376   6.273   3.683  12.889  0.0006 -0.1081  0.4957
 5654TIP3    H138377   6.366   3.664  12.879  0.2833  1.3851  0.0517
 5654TIP3    H238378   6.230   3.619  12.832  0.7131 -1.0400  0.9702
 5655TIP3   OH238379   3.597   6.463   3.217 -0.4920  0.3743 -0.2292
 5655TIP3    H138380   3.561   6.514   3.289 -1.5916  0.2255 -0.6579
 5655TIP3    H238381   3.668   6.517   3.183 -0.3772  0.7298  0.5495
 5656TIP3   OH238382   6.059   4.157  15.183  0.6059 -0.0567  0.1594
 5656TIP3    H138383   6.024   4.244  15.162 -0.2907 -0.6756 -0.9992
 5656TIP3    H238384   6.048   4.149  15.278 -2.3131 -0.1339 -0.1005
 5657TIP3   OH238385   6.090   2.854   1.302 -0.6505 -0.7271 -0.1554
 5657TIP3    H138386   6.069   2.835   1.394  0.0460  0.5370  0.2994
 5657TIP3    H238387   6.162   2.917   1.307 -2.2864  1.4132 -1.4719
 5658TIP3   OH238388   4.547   6.103   0.126  0.0858  0.1127  0.0076
 5658TIP3    H138389   4.600   6.146   0.194 -1.4572  0.3295  1.1354
 5658TIP3    H238390   4.459   6.138   0.139 -0.7054 -1.5232 -0.6736
 5659TIP3   OH238391   0.283   0.231  11.379  0.0011  0.3051 -0.3372
 5659TIP3    H138392   0.356   0.197  11.327  0.7659 -0.5172  1.1756
 5659TIP3    H238393   0.255   0.310  11.334  0.0774 -0.7668 -2.4184
 5660TIP3   OH238394   4.247   4.855   1.518 -0.2628 -0.1060  0.6166
 5660TIP3    H138395   4.186   4.915   1.562  0.0466  0.8238 -0.1922
 5660TIP3    H238396   4.311   4.833   1.585 -0.8071 -0.1429  1.1393
 5661TIP3   OH238397   5.455   0.003   4.312 -0.2192  0.2165 -0.2615
 5661TIP3    H138398   5.531  -0.022   4.260  0.6226  0.5810  0.7654
 5661TIP3    H238399   5.381  -0.041   4.268  0.7374 -1.1961 -0.5321
 5662TIP3   OH238400   3.677   6.464   6.246  0.7295 -0.0799 -0.0997
 5662TIP3    H138401   3.746   6.399   6.257  2.5516  1.8994  0.8226
 5662TIP3    H238402   3.639   6.473   6.334  1.3041  0.9485  0.0500
 5663TIP3   OH238403   5.347   0.915  13.750 -0.1971  0.7839 -0.0525
 5663TIP3    H138404   5.362   0.855  13.677 -0.8019 -0.5853  0.9003
 5663TIP3    H238405   5.287   0.981  13.714 -1.4219 -0.5137 -0.5237
 5664TIP3   OH238406   5.715   6.002   6.243 -0.3017 -0.4658  0.1881
 5664TIP3    H138407   5.766   5.977   6.166  0.8128  1.6290  0.1533
 5664TIP3    H238408   5.647   6.060   6.209  0.2714  0.5740  0.7418
 5665TIP3   OH238409   1.120   4.604   5.913 -0.0177 -0.5118  0.5471
 5665TIP3    H138410   1.181   4.596   5.986  0.9580  4.4369  0.6158
 5665TIP3    H238411   1.038   4.635   5.952 -0.0855  0.3529 -0.2268
 5666TIP3   OH238412   1.116   3.398   3.376  0.0570  0.4400  0.0792
 5666TIP3    H138413   1.133   3.306   3.357  1.3168  0.7376 -0.3145
 5666TIP3    H238414   1.122   3.405   3.471  2.9758  0.6376 -0.0449
 5667TIP3   OH238415   1.618   0.453  11.470 -0.0730 -0.0676  0.3251
 5667TIP3    H138416   1.538   0.443  11.521  0.3456 -0.7376  0.8773
 5667TIP3    H238417   1.605   0.532  11.419  0.0327  1.4756  2.5448
 5668TIP3   OH238418   2.090   5.884   3.275 -0.3446  0.2948 -0.1181
 5668TIP3    H138419   2.170   5.851   3.234  1.5304  1.0818  2.5820
 5668TIP3    H238420   2.121   5.924   3.357 -3.3172  2.3518  0.1311
 5669TIP3   OH238421   5.308   2.116   0.812 -0.0384  0.0329 -0.4969
 5669TIP3    H138422   5.293   2.086   0.902  1.2449 -2.2498 -0.9772
 5669TIP3    H238423   5.373   2.186   0.821 -0.7721  0.6373  0.4054
 5670TIP3   OH238424   3.626   6.043  15.454 -0.3238  0.2492  0.3421
 5670TIP3    H138425   3.586   5.991  15.524  0.6943  0.1237  0.8509
 5670TIP3    H238426   3.653   6.124  15.497 -0.9772  0.7707 -0.2268
 5671TIP3   OH238427   1.553   5.239   5.202  0.2217 -0.3786  0.4348
 5671TIP3    H138428   1.493   5.174   5.240  0.2805  0.2029  1.5626
 5671TIP3    H238429   1.598   5.276   5.277 -0.7368  1.9005 -0.0462
 5672TIP3   OH238430   1.755   0.304  10.785  0.3281  0.1081 -0.2363
 5672TIP3    H138431   1.750   0.396  10.809  2.4620  0.2879 -0.2943
 5672TIP3    H238432   1.760   0.305  10.689  2.7383  0.1428 -0.1611
 5673TIP3   OH238433   1.338   6.345  12.314 -0.0949  0.4696  0.0923
 5673TIP3    H138434   1.397   6.385  12.251  0.0351  0.1548  0.0120
 5673TIP3    H238435   1.394   6.322  12.388  0.5926 -2.8399 -1.2696
 5674TIP3   OH238436   0.726   1.379   3.766  0.4421 -0.2918  0.4410
 5674TIP3    H138437   0.644   1.351   3.727 -1.1471  2.2005  1.7489
 5674TIP3    H238438   0.719   1.351   3.858  1.0716 -0.0432  0.5684
 5675TIP3   OH238439   4.017   1.523   4.771  0.2542 -0.3511 -0.5458
 5675TIP3    H138440   4.042   1.431   4.758 -0.2962 -0.6387  0.3366
 5675TIP3    H238441   3.960   1.543   4.697 -0.5519 -1.0798 -0.1347
 5676TIP3   OH238442   6.258   1.347   5.188  0.7230  0.0249 -0.8149
 5676TIP3    H138443   6.339   1.360   5.238  0.5207 -2.8120  0.4776
 5676TIP3    H238444   6.288   1.325   5.100  1.3981 -0.9164 -0.3705
 5677TIP3   OH238445   0.013   3.617   1.018 -0.7574  0.6767 -0.0767
 5677TIP3    H138446  -0.054   3.612   1.086 -1.2757  0.9062 -0.5660
 5677TIP3    H238447   0.065   3.694   1.041  0.4663 -0.4714  1.3010
 5678TIP3   OH238448   5.832   4.189   6.057 -0.1562  0.2513  0.4016
 5678TIP3    H138449   5.854   4.101   6.028 -1.8516 -0.4131  1.0555
 5678TIP3    H238450   5.862   4.246   5.986  0.1488 -0.9059 -0.4186
 5679TIP3   OH238451   1.579   4.505  17.526 -0.0880 -0.1474  0.2195
 5679TIP3    H138452   1.630   4.586  17.522 -0.8634  0.5119  2.4281
 5679TIP3    H238453   1.639   4.441  17.564  0.2553 -0.4256 -0.7490
 5680TIP3   OH238454   0.734   1.178   5.174 -0.3776  0.3637 -0.2096
 5680TIP3    H138455   0.804   1.201   5.113 -1.8767 -0.4053 -2.2949
 5680TIP3    H238456   0.672   1.251   5.168 -1.2043 -0.3638 -0.6895
 5681TIP3   OH238457   2.473   4.243  12.432  0.0556 -0.0464  0.3300
 5681TIP3    H138458   2.499   4.318  12.486 -3.0420  0.7002  1.0207
 5681TIP3    H238459   2.547   4.183  12.437  2.2060  2.4332  0.7079
 5682TIP3   OH238460   0.682   0.642   2.310 -0.0737 -0.2435  0.3853
 5682TIP3    H138461   0.684   0.546   2.317 -3.3022 -0.4536  0.0046
 5682TIP3    H238462   0.748   0.663   2.244 -1.1559 -2.4982 -1.5216
 5683TIP3   OH238463   5.725   2.652  13.213  0.0687  0.1746  0.1238
 5683TIP3    H138464   5.649   2.708  13.198  0.5859  0.8074 -0.2033
 5683TIP3    H238465   5.730   2.598  13.134 -0.7055 -0.6858  0.6392
 5684TIP3   OH238466   3.416   2.318  12.268 -0.2912 -0.4557 -0.2328
 5684TIP3    H138467   3.324   2.306  12.244 -0.1134 -1.0303 -0.6642
 5684TIP3    H238468   3.423   2.411  12.290 -1.2174 -0.6346  0.9296
 5685TIP3   OH238469   5.427   0.720   0.359 -0.7098 -0.2474 -0.2712
 5685TIP3    H138470   5.429   0.646   0.297 -1.8044  0.3640 -1.0593
 5685TIP3    H238471   5.351   0.703   0.414 -0.5935 -0.0215 -0.0385
 5686TIP3   OH238472   0.764   6.435   6.733 -0.1308  0.3899 -1.0560
 5686TIP3    H138473   0.679   6.393   6.724 -0.1312  0.1263  0.0247
 5686TIP3    H238474   0.748   6.527   6.710 -0.9657  0.5830  0.2255
 5687TIP3   OH238475   3.545   2.429  12.725 -0.2022  0.4495 -0.0058
 5687TIP3    H138476   3.450   2.433  12.722 -0.3307 -1.8614 -1.7175
 5687TIP3    H238477   3.569   2.486  12.799 -2.8441  1.3234  0.2883
 5688TIP3   OH238478   1.756   1.209   0.797  0.5145 -0.7446 -0.7124
 5688TIP3    H138479   1.828   1.246   0.747 -0.6691 -1.1987 -2.8729
 5688TIP3    H238480   1.795   1.138   0.847  1.8783  0.1951 -0.3825
 5689TIP3   OH238481   4.365   5.975  15.032 -0.1062  0.2061  0.1011
 5689TIP3    H138482   4.356   5.906  15.098  2.2721 -0.3949 -0.1299
 5689TIP3    H238483   4.418   5.935  14.963  0.2742  1.8889 -0.6186
 5690TIP3   OH238484   3.365   5.623  12.558  0.5706 -0.2250 -0.2743
 5690TIP3    H138485   3.366   5.707  12.603 -0.6379  0.5672 -1.6379
 5690TIP3    H238486   3.444   5.624  12.504 -0.8224  1.3930 -2.4950
 5691TIP3   OH238487   2.917   3.039   2.877  0.1862  0.1396 -0.4449
 5691TIP3    H138488   2.899   2.947   2.859  0.6699 -0.3971  1.6237
 5691TIP3    H238489   2.833   3.077   2.900  0.3659 -0.4714  1.3683
 5692TIP3   OH238490   5.894   5.693  16.703 -0.0122 -0.4153  0.7161
 5692TIP3    H138491   5.865   5.606  16.730  1.0996 -1.3796 -1.0063
 5692TIP3    H238492   5.910   5.740  16.785 -0.0544 -2.0272  1.6856
 5693TIP3   OH238493   4.190   3.178   3.531  0.2241  0.3886  0.0910
 5693TIP3    H138494   4.115   3.149   3.480  1.1884 -0.3053 -0.9963
 5693TIP3    H238495   4.167   3.266   3.560 -0.6134  0.5738 -1.0533
 5694TIP3   OH238496   6.115   2.858  12.000  0.0935  0.2261  0.0670
 5694TIP3    H138497   6.067   2.931  12.038  1.3549  1.6626 -0.9502
 5694TIP3    H238498   6.199   2.857  12.046  0.9277  0.8300 -1.3524
 5695TIP3   OH238499   2.229   1.565   2.834 -0.1097  0.1446 -0.2460
 5695TIP3    H138500   2.305   1.510   2.853 -1.0345 -1.7579 -1.6557
 5695TIP3    H238501   2.265   1.650   2.812  1.4472 -0.0848  1.2109
 5696TIP3   OH238502   5.055   5.766   4.341 -0.0524  0.1147 -0.5879
 5696TIP3    H138503   5.151   5.770   4.344  0.0072  0.8654 -2.3466
 5696TIP3    H238504   5.034   5.677   4.370  1.1683 -0.0745 -0.2236
 5697TIP3   OH238505   3.372   3.905  16.679 -0.3077 -0.2939  0.3313
 5697TIP3    H138506   3.395   3.812  16.679  1.3335  0.0670 -0.6491
 5697TIP3    H238507   3.359   3.925  16.586 -0.9485  0.3991  0.5666
 5698TIP3   OH238508   3.347   2.927  13.841 -0.7253 -0.5909 -0.4092
 5698TIP3    H138509   3.424   2.874  13.858  0.1605  0.2751 -1.5381
 5698TIP3    H238510   3.288   2.909  13.914  1.1275 -0.2044  1.2478
 5699TIP3   OH238511   1.333   2.245  14.842 -0.0030  0.0962 -0.7465
 5699TIP3    H138512   1.281   2.310  14.889  0.8639 -1.6522  3.0250
 5699TIP3    H238513   1.423   2.263  14.869  0.6800 -0.4730 -2.5348
 5700TIP3   OH238514   2.617   1.292   0.887  0.0542 -0.4191 -0.2552
 5700TIP3    H138515   2.674   1.348   0.940 -0.2940  2.2065 -2.3994
 5700TIP3    H238516   2.677   1.247   0.828  0.2198 -1.1286  0.4453
 5701TIP3   OH238517   2.176   5.674   4.610 -0.1065 -0.0955 -0.7199
 5701TIP3    H138518   2.258   5.642   4.571 -0.3971 -2.4394  0.4238
 5701TIP3    H238519   2.122   5.700   4.535  1.1090  0.0381 -1.5739
 5702TIP3   OH238520   6.218   0.498  11.431  0.5543  0.3471 -0.0922
 5702TIP3    H138521   6.160   0.504  11.507  2.2223  0.6637  1.2129
 5702TIP3    H238522   6.248   0.588  11.417  0.9130  0.1502 -0.5967
 5703TIP3   OH238523   0.670   1.671   5.536  0.3138  0.0350 -0.6190
 5703TIP3    H138524   0.587   1.710   5.561  0.6067 -0.1078  0.6401
 5703TIP3    H238525   0.649   1.616   5.460 -0.6829  0.2279 -0.4935
 5704TIP3   OH238526   4.843   2.657   3.008 -0.7000 -0.7384  0.3849
 5704TIP3    H138527   4.792   2.673   2.928 -0.7981  1.2019  0.7783
 5704TIP3    H238528   4.785   2.604   3.063 -1.4101 -0.4628 -0.0847
 5705TIP3   OH238529   3.243   6.652  15.051 -0.2196  0.1918 -0.3848
 5705TIP3    H138530   3.154   6.687  15.061 -1.0799 -2.1907  1.5791
 5705TIP3    H238531   3.289   6.682  15.130  0.4618  0.6645 -0.9527
 5706TIP3   OH238532   1.566   4.712   5.403  0.5356 -0.1517 -0.3620
 5706TIP3    H138533   1.625   4.717   5.329 -0.0546  1.7275 -0.7537
 5706TIP3    H238534   1.618   4.675   5.474  1.3218 -1.2419 -1.4800
 5707TIP3   OH238535   1.479   3.328  12.707  0.0444  0.0841 -0.7107
 5707TIP3    H138536   1.409   3.321  12.772  0.4341  1.2254 -0.1466
 5707TIP3    H238537   1.468   3.249  12.653 -1.9528  0.4413 -0.9273
 5708TIP3   OH238538   4.918   6.705   5.584 -0.6127  0.1799  0.2230
 5708TIP3    H138539   4.846   6.768   5.589 -0.7520 -0.0414  1.2507
 5708TIP3    H238540   4.995   6.758   5.567 -0.9129  0.4986 -0.1429
 5709TIP3   OH238541   3.785   4.811  16.651 -0.1367 -0.4180 -0.1725
 5709TIP3    H138542   3.791   4.769  16.737  0.7216 -1.2270 -0.6022
 5709TIP3    H238543   3.725   4.756  16.601 -2.0087  1.0000  0.3942
 5710TIP3   OH238544   4.471   6.390   5.491 -0.2266 -0.2873  0.4314
 5710TIP3    H138545   4.455   6.358   5.579  0.2402 -1.9008 -0.0403
 5710TIP3    H238546   4.539   6.333   5.456  1.9646  2.3071  0.1185
 5711TIP3   OH238547   1.556   0.630   3.020  0.0799 -0.3047  0.2784
 5711TIP3    H138548   1.513   0.716   3.015  1.3294  0.3515  0.5256
 5711TIP3    H238549   1.600   0.620   2.936 -0.4682 -0.9465  0.0545
 5712TIP3   OH238550   5.188   2.036  16.665 -0.2821  0.2639  0.3339
 5712TIP3    H138551   5.093   2.044  16.665 -0.4922 -1.7563  0.0955
 5712TIP3    H238552   5.209   1.991  16.747  0.7797  2.9167  1.6765
 5713TIP3   OH238553   0.850   0.576  15.449 -0.2971 -0.6202  0.3788
 5713TIP3    H138554   0.904   0.504  15.482  1.2295 -1.0754 -2.7717
 5713TIP3    H238555   0.795   0.600  15.523  0.9991 -3.2446  2.3613
 5714TIP3   OH238556   3.342   4.442   3.153 -0.0316  0.3218 -0.3325
 5714TIP3    H138557   3.378   4.479   3.073  0.5607  0.9332  0.1969
 5714TIP3    H238558   3.399   4.367   3.173 -0.2358  0.1131 -0.5303
 5715TIP3   OH238559   6.292   2.979   3.741 -0.0022 -0.4147  0.4510
 5715TIP3    H138560   6.208   3.013   3.709  0.8467  0.8990 -0.5231
 5715TIP3    H238561   6.275   2.887   3.761 -1.6267 -0.2188  0.1375
 5716TIP3   OH238562   3.822   3.900   6.169 -0.5964  0.2798 -0.0663
 5716TIP3    H138563   3.916   3.882   6.166 -0.7710 -0.9592  0.9273
 5716TIP3    H238564   3.807   3.934   6.257 -1.5738 -3.1040  1.2667
 5717TIP3   OH238565   1.042   1.722  17.000  0.5310 -0.4451 -0.0479
 5717TIP3    H138566   0.950   1.723  16.977  0.5231  2.0134 -0.1911
 5717TIP3    H238567   1.082   1.790  16.946  2.2864 -0.9229  0.5526
 5718TIP3   OH238568   2.055   1.397  16.054  0.7841  0.4132  1.0628
 5718TIP3    H138569   2.139   1.443  16.047  0.9893 -0.1776 -2.1960
 5718TIP3    H238570   2.076   1.306  16.033 -0.9887  0.8673 -4.0621
 5719TIP3   OH238571   2.986   6.249  17.542 -0.6271 -0.0503  0.3296
 5719TIP3    H138572   3.067   6.249  17.491 -1.2120  0.6978 -0.6446
 5719TIP3    H238573   2.917   6.250  17.476 -1.4449 -0.9572  1.1442
 5720TIP3   OH238574   1.239   4.681   0.347 -0.4522 -0.2507 -0.0015
 5720TIP3    H138575   1.309   4.650   0.290 -1.0742 -1.2889 -0.2259
 5720TIP3    H238576   1.177   4.723   0.287  0.2070  1.1619  0.2580
 5721TIP3   OH238577   0.351   3.019   5.773 -0.0666  0.2039 -0.1603
 5721TIP3    H138578   0.438   2.979   5.778 -0.0840  0.2327  0.5793
 5721TIP3    H238579   0.369   3.113   5.765 -0.0002  0.0198 -3.4855
 5722TIP3   OH238580   2.296   5.875   2.724 -0.0368 -0.1854  0.3243
 5722TIP3    H138581   2.217   5.928   2.728  0.9028  1.2808  0.3213
 5722TIP3    H238582   2.362   5.933   2.685  0.8386 -1.6244 -0.4332
 5723TIP3   OH238583   5.581   0.095   0.552 -0.5228  0.0383  0.0840
 5723TIP3    H138584   5.612   0.030   0.617  0.1849 -0.6893 -0.9460
 5723TIP3    H238585   5.487   0.080   0.547 -0.2403 -1.7863 -0.9931
 5724TIP3   OH238586   0.732   5.273  12.459  0.2110  0.1113  0.4784
 5724TIP3    H138587   0.737   5.369  12.465  0.2628  0.1431 -0.0918
 5724TIP3    H238588   0.789   5.250  12.387  0.0673 -0.3404  0.5082
 5725TIP3   OH238589   6.353   0.839   0.783  0.6045 -0.0001 -0.0492
 5725TIP3    H138590   6.376   0.812   0.694  2.3203 -0.3505  0.4667
 5725TIP3    H238591   6.436   0.838   0.831 -0.1553  0.9394  1.3704
 5726TIP3   OH238592   5.500   3.356  15.194 -0.4928  0.5590 -0.3501
 5726TIP3    H138593   5.423   3.397  15.154 -0.6118 -1.1956 -2.0384
 5726TIP3    H238594   5.568   3.423  15.188 -0.6952  0.6269 -2.9733
 5727TIP3   OH238595   0.473   5.803   3.962  0.1098 -0.5115  0.4978
 5727TIP3    H138596   0.537   5.770   3.899 -0.4172  0.0181 -0.3344
 5727TIP3    H238597   0.476   5.898   3.950 -0.2878 -0.4349  0.9932
 5728TIP3   OH238598   6.419   1.487  12.102  0.1606 -0.1183  0.2544
 5728TIP3    H138599   6.469   1.460  12.025  0.2937  1.1301 -0.1232
 5728TIP3    H238600   6.470   1.559  12.140  0.1185 -0.7292  1.5410
 5729TIP3   OH238601   1.562   0.333  14.798 -0.7790 -0.2337 -0.2689
 5729TIP3    H138602   1.512   0.354  14.719 -1.2513 -0.2592  0.0220
 5729TIP3    H238603   1.648   0.308  14.765 -0.5202  1.1555 -0.6904
 5730TIP3   OH238604   4.095   2.979   1.251  0.1879 -0.2277 -0.8161
 5730TIP3    H138605   4.075   3.063   1.209  0.4157 -0.3634 -1.1983
 5730TIP3    H238606   4.157   2.936   1.191  1.4682  0.0884  0.2335
 5731TIP3   OH238607   0.736   0.788   0.625 -0.0260 -0.6981 -0.1770
 5731TIP3    H138608   0.795   0.715   0.644 -0.3300 -0.8235  0.3249
 5731TIP3    H238609   0.786   0.866   0.648 -0.2527 -0.8301  0.8458
 5732TIP3   OH238610   2.284   5.137  16.185 -0.2004 -0.0890  0.9391
 5732TIP3    H138611   2.223   5.064  16.185  0.5355 -0.7397  0.0331
 5732TIP3    H238612   2.366   5.100  16.217 -0.1032  0.6251  1.5591
 5733TIP3   OH238613   5.089   1.353  16.888  0.0346  0.2027  0.6770
 5733TIP3    H138614   5.132   1.288  16.833 -3.0739 -1.7051  0.2618
 5733TIP3    H238615   5.112   1.437  16.849  2.2018 -0.7652 -0.2660
 5734TIP3   OH238616   5.066   2.411   3.446 -0.2152  0.6029 -0.0891
 5734TIP3    H138617   5.143   2.370   3.483 -0.1868  0.1273 -0.6626
 5734TIP3    H238618   5.082   2.505   3.454 -0.4502  0.5312  1.5910
 5735TIP3   OH238619   6.127   1.486   2.649 -0.0375 -0.1344 -0.1005
 5735TIP3    H138620   6.181   1.415   2.614 -0.4710 -1.0526  1.0042
 5735TIP3    H238621   6.135   1.556   2.585 -0.6916 -1.6512 -1.9496
 5736TIP3   OH238622   1.667   1.713  13.913 -0.0201 -0.4349  0.0501
 5736TIP3    H138623   1.626   1.628  13.893 -0.3285 -0.1594 -0.5053
 5736TIP3    H238624   1.668   1.759  13.830  0.6281 -0.0871  0.2441
 5737TIP3   OH238625   2.861   3.745   5.276 -0.3612  0.1859  0.5436
 5737TIP3    H138626   2.865   3.691   5.197  4.0977  0.7730  0.0963
 5737TIP3    H238627   2.841   3.683   5.346  0.1924 -1.2268 -0.4882
 5738TIP3   OH238628   2.639   1.468  16.228  0.0976  0.4783 -0.3564
 5738TIP3    H138629   2.567   1.411  16.257 -1.6568  2.8797  0.3137
 5738TIP3    H238630   2.686   1.416  16.162 -1.6462 -1.5451 -0.1047
 5739TIP3   OH238631   3.368   2.653   3.510  0.1057 -0.1271 -0.4999
 5739TIP3    H138632   3.308   2.646   3.585 -0.3286  0.3279 -0.7995
 5739TIP3    H238633   3.342   2.582   3.452  1.1158 -1.1374  0.2336
 5740TIP3   OH238634   5.339   5.386   3.465 -0.0251  0.5080 -0.0525
 5740TIP3    H138635   5.308   5.437   3.390 -1.9973 -2.6153 -1.5490
 5740TIP3    H238636   5.264   5.385   3.525  0.3083  0.0899  0.3586
 5741TIP3   OH238637   4.558   3.905  14.315 -0.4765 -0.1061 -0.6760
 5741TIP3    H138638   4.561   3.904  14.219  2.4041 -1.2684 -0.6885
 5741TIP3    H238639   4.504   3.830  14.338  1.4122 -1.8160 -1.4823
 5742TIP3   OH238640   0.121   5.231   4.163  0.3239 -0.1330  0.0873
 5742TIP3    H138641   0.143   5.324   4.151 -2.7992  0.5636 -1.3693
 5742TIP3    H238642   0.046   5.231   4.221  1.1749 -1.9457  1.2853
 5743TIP3   OH238643   3.378   1.117   4.376  0.3280  0.0240  0.7873
 5743TIP3    H138644   3.397   1.024   4.390  2.1628  0.2666  0.2460
 5743TIP3    H238645   3.283   1.123   4.382  0.2260 -1.7030  1.8975
 5744TIP3   OH238646   6.299   6.063  10.849 -0.2904 -0.0661 -0.2833
 5744TIP3    H138647   6.331   5.975  10.868  0.2176  0.1121 -0.3008
 5744TIP3    H238648   6.260   6.093  10.931 -0.0627 -0.1366 -0.1487
 5745TIP3   OH238649   5.472   4.377   4.011  0.2466 -0.0445  0.2048
 5745TIP3    H138650   5.382   4.353   4.033 -0.7623  1.6306 -1.7675
 5745TIP3    H238651   5.515   4.294   3.993 -0.9674 -0.8561  0.8858
 5746TIP3   OH238652   4.391   5.345   2.471  0.3470  0.1913 -0.2735
 5746TIP3    H138653   4.432   5.258   2.471 -0.6307 -0.2820 -0.6572
 5746TIP3    H238654   4.369   5.362   2.380 -0.0584  0.5634 -0.1105
 5747TIP3   OH238655   2.298   4.302  14.581  0.1097  0.3018 -0.9652
 5747TIP3    H138656   2.382   4.331  14.616 -1.2386  0.9489  2.0792
 5747TIP3    H238657   2.254   4.383  14.555  0.3036 -0.0189 -2.3617
 5748TIP3   OH238658   1.843   1.227  11.749 -0.3163  0.2830  0.1714
 5748TIP3    H138659   1.854   1.198  11.839 -0.7178 -0.2400  0.0564
 5748TIP3    H238660   1.926   1.269  11.727  0.0673 -0.2664  0.5366
 5749TIP3   OH238661   1.983   1.190  12.855 -0.0204 -0.0037  0.6195
 5749TIP3    H138662   1.897   1.217  12.824  0.2642  1.1699  0.7834
 5749TIP3    H238663   2.043   1.213  12.784  0.5247  1.9463  1.6269
 5750TIP3   OH238664   4.874   0.242  17.189  0.0226 -0.1224  0.1025
 5750TIP3    H138665   4.951   0.257  17.243 -0.2604  2.6564 -0.0810
 5750TIP3    H238666   4.909   0.217  17.103  0.6913  0.2687  0.2568
 5751TIP3   OH238667   3.941   0.371   3.727  0.5864  0.6112  0.5300
 5751TIP3    H138668   3.863   0.378   3.672  1.7878 -1.9038 -1.7027
 5751TIP3    H238669   3.913   0.320   3.803  0.0062 -0.1929 -0.2067
 5752TIP3   OH238670   6.204   5.161  12.397 -0.4596  0.1945 -0.1567
 5752TIP3    H138671   6.124   5.214  12.390 -0.8702 -0.0865  1.8345
 5752TIP3    H238672   6.184   5.098  12.466  0.3014 -2.0849 -1.8814
 5753TIP3   OH238673   5.003   4.141  14.212 -0.6839  0.1949  0.3164
 5753TIP3    H138674   4.909   4.138  14.197 -0.6387 -0.1147  0.0965
 5753TIP3    H238675   5.014   4.208  14.280 -0.9185  1.3563 -0.7429
 5754TIP3   OH238676   1.814   6.154   1.204  0.3386 -0.9086  0.2632
 5754TIP3    H138677   1.896   6.157   1.253  0.2966  0.8146  0.3008
 5754TIP3    H238678   1.841   6.162   1.112  0.1925  4.2740  0.3943
 5755TIP3   OH238679   5.261   0.028   2.669 -0.3829 -0.3702  0.0700
 5755TIP3    H138680   5.206   0.095   2.709 -1.6806  0.4604 -2.8588
 5755TIP3    H238681   5.226  -0.055   2.702 -1.4381  0.2430  0.5331
 5756TIP3   OH238682   1.445   1.555   4.087  0.1335  0.1798  0.6409
 5756TIP3    H138683   1.539   1.569   4.099  0.2022  0.5260 -0.2880
 5756TIP3    H238684   1.408   1.643   4.082 -0.1198  0.0478  0.1393
 5757TIP3   OH238685   4.027   1.060  12.205  0.5269  0.1765  0.4856
 5757TIP3    H138686   3.982   1.110  12.138  0.8548 -1.5325 -1.0924
 5757TIP3    H238687   4.037   1.121  12.278 -0.5721  1.8491 -0.6919
 5758TIP3   OH238688   5.607   0.953  14.678 -0.2150  0.6980  0.5769
 5758TIP3    H138689   5.523   0.938  14.633 -0.5439 -0.9316  1.6833
 5758TIP3    H238690   5.634   0.867  14.709  0.4562  1.6293  2.7307
 5759TIP3   OH238691   1.557   4.216  14.502  0.4516  0.3770 -0.1347
 5759TIP3    H138692   1.581   4.167  14.581  0.5866 -0.2453 -0.5469
 5759TIP3    H238693   1.568   4.308  14.526 -0.2870  0.2406  0.8225
 5760TIP3   OH238694   5.375   2.054   6.271  0.3377  0.6828  0.1373
 5760TIP3    H138695   5.407   2.123   6.213  2.3907 -0.9743 -0.8557
 5760TIP3    H238696   5.400   1.973   6.227 -0.5019 -0.6709  2.0461
 5761TIP3   OH238697   3.861   4.925   4.639 -0.6230 -0.0612 -0.2946
 5761TIP3    H138698   3.845   4.842   4.594 -0.5141 -1.1874  1.6214
 5761TIP3    H238699   3.831   4.909   4.729  0.1058  1.7452  0.3095
 5762TIP3   OH238700   1.804   5.177  16.608 -0.0020  0.0883  0.0658
 5762TIP3    H138701   1.816   5.167  16.702  1.0318 -0.8734 -0.1523
 5762TIP3    H238702   1.861   5.111  16.569  0.3562  1.1364 -1.2689
 5763TIP3   OH238703   2.886   4.455  17.050  0.1574 -0.4207  0.2280
 5763TIP3    H138704   2.793   4.433  17.059  0.5571 -1.2618  3.0849
 5763TIP3    H238705   2.926   4.376  17.015  0.1219 -0.9131  1.2608
 5764TIP3   OH238706   0.611   5.717   5.553 -0.0898  0.5292 -0.0354
 5764TIP3    H138707   0.523   5.754   5.561 -0.4931  0.5452 -3.3514
 5764TIP3    H238708   0.618   5.692   5.461  3.4092  0.5585  0.1142
 5765TIP3   OH238709   3.175   3.072  13.675 -0.6752 -0.0520 -0.3517
 5765TIP3    H138710   3.209   3.136  13.612 -1.4953  0.0777 -0.6710
 5765TIP3    H238711   3.254   3.029  13.709 -0.1323  0.8704 -0.3984
 5766TIP3   OH238712   4.030   3.123  11.311  0.0599 -0.9482 -0.3510
 5766TIP3    H138713   3.945   3.104  11.271 -0.2230  0.5297 -0.4971
 5766TIP3    H238714   4.070   3.187  11.252  1.0362 -1.1913  0.0313
 5767TIP3   OH238715   5.207   2.470   2.170 -0.2006  0.0407 -0.2170
 5767TIP3    H138716   5.209   2.519   2.088 -1.4158  1.0502  0.3161
 5767TIP3    H238717   5.116   2.439   2.177  0.2906 -1.4706 -0.0416
 5768TIP3   OH238718   2.210   6.157  12.346  0.2027  0.1686  0.6534
 5768TIP3    H138719   2.167   6.175  12.262  0.4267 -1.1538  0.2324
 5768TIP3    H238720   2.303   6.172  12.329  0.4488 -1.6300  0.1714
 5769TIP3   OH238721   0.125   4.181   1.568  0.1480 -0.1038 -0.0377
 5769TIP3    H138722   0.220   4.171   1.563  0.2485  1.0632 -0.6960
 5769TIP3    H238723   0.104   4.170   1.661  1.0362  0.5049  0.2471
 5770TIP3   OH238724   1.070   5.566   4.199 -0.2565  0.2046  0.2354
 5770TIP3    H138725   1.058   5.657   4.174  1.2522 -0.0240 -1.5616
 5770TIP3    H238726   1.125   5.569   4.276  0.7569  0.8113 -0.4929
 5771TIP3   OH238727   4.741   1.161  12.634  0.1055  0.6520 -0.0460
 5771TIP3    H138728   4.824   1.123  12.664  0.0462  1.6962  1.5562
 5771TIP3    H238729   4.767   1.230  12.573  0.3819  0.5828 -0.0078
 5772TIP3   OH238730   3.686   5.332   5.635  0.3964  1.1010  0.5204
 5772TIP3    H138731   3.734   5.410   5.662 -1.4106  2.2332  0.6716
 5772TIP3    H238732   3.645   5.357   5.551 -0.9234  0.6745  1.0110
 5773TIP3   OH238733   3.734   3.974  14.865 -0.0278  0.1931  0.0108
 5773TIP3    H138734   3.704   3.886  14.843  0.7624  0.1596 -1.0217
 5773TIP3    H238735   3.758   3.969  14.957 -0.9110 -0.3987  0.2245
 5774TIP3   OH238736   0.318   6.664  13.906  0.6916  0.0626  0.4779
 5774TIP3    H138737   0.284   6.671  13.995  0.9281  1.0610  0.4953
 5774TIP3    H238738   0.301   6.572  13.882 -0.3515  0.0586  1.1397
 5775TIP3   OH238739   3.120   4.865   3.100  0.5353  0.0932 -0.0037
 5775TIP3    H138740   3.093   4.950   3.133  1.5273  0.5195 -0.2591
 5775TIP3    H238741   3.179   4.831   3.167  0.4734 -0.2168 -0.1024
 5776TIP3   OH238742   2.117   1.820  17.423  0.1774  1.0508 -0.0394
 5776TIP3    H138743   2.045   1.801  17.482  0.7792 -0.5696  0.2274
 5776TIP3    H238744   2.195   1.813  17.478  0.6167  1.7414 -0.5551
 5777TIP3   OH238745   0.250   5.658  17.472  0.5267  0.3140  0.3512
 5777TIP3    H138746   0.284   5.598  17.538 -0.4622 -1.2764 -0.5221
 5777TIP3    H238747   0.265   5.613  17.389  3.0976  2.8859 -0.7754
 5778TIP3   OH238748   1.162   3.966  14.038 -0.3053  0.4054 -0.2155
 5778TIP3    H138749   1.133   3.895  14.096 -0.0701  0.2984 -0.2280
 5778TIP3    H238750   1.161   4.044  14.094 -2.0631  0.6937 -0.5986
 5779TIP3   OH238751   6.275   5.333   4.620  0.2126  0.4959  0.4024
 5779TIP3    H138752   6.312   5.418   4.596 -1.7434  1.2405 -0.1187
 5779TIP3    H238753   6.241   5.346   4.709  1.1870 -0.2059  0.9054
 5780TIP3   OH238754   0.156   0.273   1.690 -0.1776 -0.1858  0.0509
 5780TIP3    H138755   0.062   0.260   1.693 -0.0931 -0.7481  0.2706
 5780TIP3    H238756   0.186   0.258   1.780  0.3659 -1.9433 -0.3826
 5781TIP3   OH238757   0.537   3.504   4.517 -0.2759 -0.5511  0.0531
 5781TIP3    H138758   0.510   3.414   4.498  0.6479 -0.5200 -1.6059
 5781TIP3    H238759   0.491   3.557   4.452  1.2675 -0.1708 -0.8035
 5782TIP3   OH238760   5.035   3.530  16.812  0.0044 -0.8015 -0.6381
 5782TIP3    H138761   5.034   3.624  16.793 -0.0376 -0.2037  1.9111
 5782TIP3    H238762   5.124   3.513  16.843 -0.3431 -1.2840  0.1397
 5783TIP3   OH238763   0.500   2.126   5.316  0.2639  0.3387 -0.2139
 5783TIP3    H138764   0.463   2.208   5.349 -0.8380 -0.4095  0.4646
 5783TIP3    H238765   0.434   2.093   5.255 -0.6962 -1.4452  1.6499
 5784TIP3   OH238766   2.847   2.219   1.735 -0.4375 -0.2827 -0.0196
 5784TIP3    H138767   2.890   2.160   1.673  0.7020 -0.0648  0.5231
 5784TIP3    H238768   2.831   2.299   1.685 -0.7362 -0.5702 -0.3853
 5785TIP3   OH238769   4.461   1.441  11.795  0.2492  0.5451  0.0427
 5785TIP3    H138770   4.376   1.474  11.826  0.9185  1.7203  0.7216
 5785TIP3    H238771   4.468   1.473  11.705 -0.4678 -0.4495 -0.3830
 5786TIP3   OH238772   2.129   4.141   4.964  0.0309 -0.6273 -0.1159
 5786TIP3    H138773   2.190   4.212   4.944  0.1029 -0.8038 -0.5325
 5786TIP3    H238774   2.063   4.181   5.021 -0.4694  0.0215 -1.1323
 5787TIP3   OH238775   6.588   1.648  14.392  0.2377 -0.5714 -0.1066
 5787TIP3    H138776   6.593   1.742  14.409  0.9465 -0.8734  1.4958
 5787TIP3    H238777   6.641   1.608  14.460 -0.7998 -2.2119 -0.2017
 5788TIP3   OH238778   2.479   5.001  12.124 -0.3372  0.6542  0.2410
 5788TIP3    H138779   2.439   5.004  12.037 -0.3020 -0.6269  0.1553
 5788TIP3    H238780   2.481   5.092  12.153 -1.3989  0.9748 -0.6200
 5789TIP3   OH238781   5.166   6.269   1.671 -0.2095  0.2518  1.1993
 5789TIP3    H138782   5.106   6.295   1.601  0.6507 -0.9037 -0.0305
 5789TIP3    H238783   5.243   6.324   1.658  0.2674 -0.5170  0.7224
 5790TIP3   OH238784   1.026   6.067   2.891  1.1788 -0.4204  0.5561
 5790TIP3    H138785   0.949   6.024   2.929  1.4025  0.8002  2.5032
 5790TIP3    H238786   1.043   6.018   2.810 -0.3559 -2.0486  1.1560
 5791TIP3   OH238787   1.153   1.257  11.073 -0.3288 -0.0236 -0.7421
 5791TIP3    H138788   1.073   1.213  11.101 -0.4703  1.4232  1.3527
 5791TIP3    H238789   1.203   1.189  11.027 -1.1148 -2.0141  1.1667
 5792TIP3   OH238790   5.123   5.662  14.523 -0.6059  0.7828  0.3792
 5792TIP3    H138791   5.032   5.687  14.510 -1.1750 -1.0724  0.4540
 5792TIP3    H238792   5.131   5.579  14.476  1.3048  1.3578 -0.4042
 5793TIP3   OH238793   0.497   0.034  12.282  0.2764 -0.2052  0.4493
 5793TIP3    H138794   0.547  -0.038  12.321  3.4437  2.3538  1.5633
 5793TIP3    H238795   0.442   0.065  12.354 -0.5163 -0.9906  0.1941
 5794TIP3   OH238796   2.792   0.995   0.482 -0.1265  0.2559 -0.3396
 5794TIP3    H138797   2.729   0.928   0.508  0.7249 -1.0680 -1.5448
 5794TIP3    H238798   2.809   0.977   0.390  1.7666  0.7595 -0.1297
 5795TIP3   OH238799   4.269   1.543  14.379  0.8687 -0.3118 -0.0939
 5795TIP3    H138800   4.273   1.502  14.292  0.8891 -0.5744  0.0302
 5795TIP3    H238801   4.263   1.469  14.440 -0.6195 -0.1070  0.0527
 5796TIP3   OH238802   0.229   2.271  11.102  0.0263  0.3501 -0.7206
 5796TIP3    H138803   0.178   2.336  11.053  1.1148  0.9090 -1.1758
 5796TIP3    H238804   0.289   2.324  11.156  1.4928 -0.2267 -1.7019
 5797TIP3   OH238805   1.549   5.523  11.617 -0.1234  0.1063  0.3980
 5797TIP3    H138806   1.602   5.603  11.611  1.2624 -0.6028  2.2928
 5797TIP3    H238807   1.542   5.493  11.526 -0.5622  2.2764 -0.3412
 5798TIP3   OH238808   4.331   1.950  16.475 -0.1599  0.4067  0.4201
 5798TIP3    H138809   4.240   1.934  16.499 -0.7192  1.4783 -0.9047
 5798TIP3    H238810   4.339   1.920  16.385  0.9339 -0.0985  0.6639
 5799TIP3   OH238811   0.717   0.800   3.914 -0.2927  0.4105  0.2600
 5799TIP3    H138812   0.740   0.712   3.944  0.6663  0.9826  1.2686
 5799TIP3    H238813   0.700   0.790   3.820  0.0482 -0.8043  0.3181
 5800TIP3   OH238814   3.278   2.664   0.588  0.1307  0.2548 -0.1454
 5800TIP3    H138815   3.238   2.578   0.577 -0.8301  0.7952 -0.9853
 5800TIP3    H238816   3.210   2.717   0.631 -0.3095  1.3339 -2.0680
 5801TIP3   OH238817   4.056   5.690   3.795  0.4644  0.5124 -0.1689
 5801TIP3    H138818   4.145   5.659   3.776  1.1829  1.8946  0.7745
 5801TIP3    H238819   4.031   5.645   3.875  1.5078  2.2748  1.2017
 5802TIP3   OH238820   0.429   4.203  14.981 -0.0728  0.2879  0.2797
 5802TIP3    H138821   0.436   4.136  14.913 -0.5315 -1.1232  1.5518
 5802TIP3    H238822   0.337   4.201  15.007  0.1332  0.6658  1.0667
 5803TIP3   OH238823   4.810   1.775   1.532 -0.6897 -0.1147  0.4511
 5803TIP3    H138824   4.887   1.781   1.588 -0.1752  0.4768 -0.3013
 5803TIP3    H238825   4.755   1.709   1.574  1.5103 -2.7412 -0.5483
 5804TIP3   OH238826   5.817   4.203   3.857 -0.0682  0.0021 -0.4215
 5804TIP3    H138827   5.817   4.280   3.800 -0.4792  1.2865  1.2169
 5804TIP3    H238828   5.855   4.133   3.804  0.4839  1.3765 -1.9111
 5805TIP3   OH238829   1.075   3.780   0.389 -0.3301 -0.0732 -0.0825
 5805TIP3    H138830   1.071   3.837   0.312  0.3893 -0.4219 -0.3914
 5805TIP3    H238831   0.985   3.751   0.402 -1.2703  3.0778  1.6061
 5806TIP3   OH238832   1.142   6.403  13.802  0.2663  0.3267 -0.5568
 5806TIP3    H138833   1.222   6.455  13.807  0.6003 -0.1706 -0.5820
 5806TIP3    H238834   1.166   6.319  13.841  0.0445 -0.1695 -1.4641
 5807TIP3   OH238835   5.363   0.778  11.200  0.6367  0.7075  0.2900
 5807TIP3    H138836   5.294   0.721  11.234  0.2119  0.7954 -0.4122
 5807TIP3    H238837   5.384   0.741  11.114  0.4450  1.5380 -0.1201
 5808TIP3   OH238838   2.117   2.774  14.841  0.2884 -0.2126 -0.1631
 5808TIP3    H138839   2.066   2.807  14.767 -0.6497 -1.0353  0.0996
 5808TIP3    H238840   2.201   2.821  14.835 -1.2866  3.0054  0.7885
 5809TIP3   OH238841   4.658   0.709   3.827 -0.6354 -0.0793  0.0087
 5809TIP3    H138842   4.691   0.644   3.889  0.2582  0.7937  0.4804
 5809TIP3    H238843   4.668   0.668   3.741 -2.7368 -1.6772  0.4247
 5810TIP3   OH238844   5.895   1.482   5.828 -0.3923 -0.1918 -0.1322
 5810TIP3    H138845   5.915   1.544   5.898  0.1234  0.8421 -1.1627
 5810TIP3    H238846   5.844   1.413   5.871 -1.0893  1.0042  1.0198
 5811TIP3   OH238847   5.670   4.180  14.022 -0.3856  0.2300  0.2277
 5811TIP3    H138848   5.605   4.165  13.954 -0.6011 -1.0579  0.6830
 5811TIP3    H238849   5.726   4.102  14.020 -2.2344 -1.4445  3.4873
 5812TIP3   OH238850   4.139   2.033  12.243 -0.0305  0.6455  0.3167
 5812TIP3    H138851   4.098   2.106  12.290 -0.9630 -0.0863  0.6640
 5812TIP3    H238852   4.068   1.995  12.191  0.0432 -0.9867  1.3451
 5813TIP3   OH238853   4.852   3.002  12.848 -0.7393 -0.3663 -0.3040
 5813TIP3    H138854   4.859   3.055  12.768  1.5190 -0.3292 -0.1343
 5813TIP3    H238855   4.822   3.064  12.915 -0.8018  0.0508 -0.7089
 5814TIP3   OH238856   2.575   1.592  15.458  0.0171 -0.1001 -0.0436
 5814TIP3    H138857   2.551   1.654  15.526  2.0898  1.1572 -0.3589
 5814TIP3    H238858   2.504   1.528  15.456 -0.5270  0.3408  2.6446
 5815TIP3   OH238859   3.011   5.365  14.350 -0.3385 -0.1303 -0.9715
 5815TIP3    H138860   2.935   5.320  14.386 -0.4220 -0.2542 -1.2982
 5815TIP3    H238861   3.086   5.311  14.375  0.3214  2.4542  3.7634
 5816TIP3   OH238862   1.317   4.725  13.012 -0.0546  0.2354 -0.2967
 5816TIP3    H138863   1.313   4.674  13.094 -1.3217  0.8675  0.0531
 5816TIP3    H238864   1.266   4.674  12.950 -2.1046  1.4532  0.3005
 5817TIP3   OH238865   0.015   1.633   4.247  0.2086 -0.1583 -0.1989
 5817TIP3    H138866   0.082   1.579   4.205  0.9003 -0.0685  0.7768
 5817TIP3    H238867   0.063   1.692   4.304 -0.6651  0.2769  0.1066
 5818TIP3   OH238868   2.200   2.058   5.739  0.1804  0.0843 -0.1456
 5818TIP3    H138869   2.167   2.124   5.800  0.2361 -0.5899  0.6272
 5818TIP3    H238870   2.295   2.055   5.756  0.1560 -0.2952 -0.0711
 5819TIP3   OH238871   4.427   0.713   1.039  0.1356 -0.4078 -0.5340
 5819TIP3    H138872   4.496   0.760   1.085  0.3514 -1.8594  0.6908
 5819TIP3    H238873   4.396   0.775   0.972  1.4456  0.8740  0.0015
 5820TIP3   OH238874   3.685   6.045   5.009  0.7327 -0.1439  0.1509
 5820TIP3    H138875   3.723   6.083   5.088 -0.3543  1.7631 -0.1917
 5820TIP3    H238876   3.742   6.076   4.938  0.4770 -0.0817 -0.0281
 5821TIP3   OH238877   3.509   5.265  14.965 -0.6178  0.3547  0.0604
 5821TIP3    H138878   3.598   5.247  14.935  0.2168  1.7787  1.5615
 5821TIP3    H238879   3.513   5.353  15.002 -2.0760 -0.4540  2.3420
 5822TIP3   OH238880   5.174   6.414  14.387 -0.1339 -0.1757 -1.0376
 5822TIP3    H138881   5.230   6.374  14.453  1.4783 -0.5327 -2.5544
 5822TIP3    H238882   5.183   6.358  14.310 -2.6664 -0.2844 -1.3548
 5823TIP3   OH238883   1.366   5.948   4.019 -0.0514 -0.8087 -0.3114
 5823TIP3    H138884   1.447   5.996   3.999 -0.1049  0.5509  2.2968
 5823TIP3    H238885   1.296   6.012   4.006 -0.3805 -0.9666  0.6010
 5824TIP3   OH238886   4.398   2.373  14.985 -0.1539  0.1741 -0.6447
 5824TIP3    H138887   4.337   2.446  14.979  0.1687  0.5406  0.2841
 5824TIP3    H238888   4.396   2.347  15.077  1.5838  0.6597 -0.4303
 5825TIP3   OH238889   4.940   0.846   2.482  0.3280  0.2070 -0.3040
 5825TIP3    H138890   4.921   0.755   2.458  0.0476  0.5892 -1.5522
 5825TIP3    H238891   4.856   0.891   2.473  0.3327  0.4929  0.8800
 5826TIP3   OH238892   0.079   0.983  12.447 -0.4738 -0.1377  0.0117
 5826TIP3    H138893   0.096   0.984  12.541  1.9526  0.2293 -0.3711
 5826TIP3    H238894   0.021   0.908  12.434  1.2969 -1.8555  1.4873
 5827TIP3   OH238895   2.816   2.728  12.791  0.2015 -0.1175 -0.1747
 5827TIP3    H138896   2.755   2.779  12.845 -0.4280 -1.0820  0.0484
 5827TIP3    H238897   2.900   2.738  12.836 -0.1818 -0.3605  0.6315
 5828TIP3   OH238898   4.626   4.354  15.172  0.3500 -0.2025  0.0038
 5828TIP3    H138899   4.667   4.285  15.225 -1.2830 -0.1353  1.4501
 5828TIP3    H238900   4.535   4.324  15.161 -0.5742  1.9527  1.1742
 5829TIP3   OH238901   4.061   2.303   5.105  0.0727 -0.0675 -0.0886
 5829TIP3    H138902   4.048   2.375   5.044  2.1407  0.4033 -0.0195
 5829TIP3    H238903   4.151   2.311   5.134 -0.8302 -0.2525  3.1038
 5830TIP3   OH238904   3.835   4.291   0.821  0.1479 -0.4375 -0.6230
 5830TIP3    H138905   3.848   4.380   0.786 -0.0875 -0.5415 -0.9823
 5830TIP3    H238906   3.789   4.304   0.903  0.5662 -0.1970 -0.4212
 5831TIP3   OH238907   4.346   5.864   0.721 -0.0616 -0.0521  0.3257
 5831TIP3    H138908   4.345   5.958   0.703  0.4749 -0.3976 -1.7379
 5831TIP3    H238909   4.269   5.849   0.775  0.0235  1.6067  0.9763
 5832TIP3   OH238910   1.492   2.679  15.651 -0.0007  0.1778  0.0575
 5832TIP3    H138911   1.546   2.668  15.729  2.7855 -0.2887 -1.8078
 5832TIP3    H238912   1.547   2.650  15.579 -2.0954  1.4964 -2.2358
 5833TIP3   OH238913   4.748   6.349   4.644  0.3149 -0.1104  0.2343
 5833TIP3    H138914   4.812   6.388   4.584 -0.7930  0.7185 -0.4500
 5833TIP3    H238915   4.731   6.419   4.708 -0.6760  0.0577 -0.2049
 5834TIP3   OH238916   5.091   6.279  13.624 -0.2713 -0.1694  0.2288
 5834TIP3    H138917   5.098   6.360  13.573  0.0312 -0.2356  0.1664
 5834TIP3    H238918   5.146   6.216  13.577 -0.0214 -0.2423  0.6199
 5835TIP3   OH238919   3.662   2.776   2.548  0.0615 -0.4252  0.2536
 5835TIP3    H138920   3.677   2.831   2.625 -1.4884 -1.3774  1.2736
 5835TIP3    H238921   3.728   2.707   2.554 -0.0478 -0.4888  0.7244
 5836TIP3   OH238922   1.615   3.077   3.139  0.0867  0.7705  0.5081
 5836TIP3    H138923   1.650   3.011   3.199  4.8848  1.7587 -0.7881
 5836TIP3    H238924   1.603   3.031   3.056 -1.9738  0.4739  0.8986
 5837TIP3   OH238925   4.517   4.057  17.374  0.5425 -0.2347 -0.1421
 5837TIP3    H138926   4.579   3.985  17.386  0.2732 -0.4856 -0.2621
 5837TIP3    H238927   4.449   4.022  17.316  0.6100  0.2352 -0.5115
 5838TIP3   OH238928   2.343   0.261  16.797  0.3870  0.0839 -0.0486
 5838TIP3    H138929   2.360   0.167  16.804 -2.9152 -0.7016 -0.7569
 5838TIP3    H238930   2.358   0.295  16.885 -0.6156 -1.6025  0.8282
 5839TIP3   OH238931   0.510   6.409  12.978  0.1489  0.0164  0.5701
 5839TIP3    H138932   0.519   6.494  12.933 -0.2195 -1.2162 -2.0381
 5839TIP3    H238933   0.427   6.415  13.025  0.1009  1.0749  0.3847
 5840TIP3   OH238934   4.753   4.654   1.147 -0.5638 -0.1281  0.3767
 5840TIP3    H138935   4.813   4.581   1.163 -0.9648 -0.7723 -0.9501
 5840TIP3    H238936   4.753   4.703   1.229 -0.8743 -2.0434  1.5873
 5841TIP3   OH238937   5.367   0.093   3.672  0.1797  0.1465  0.4412
 5841TIP3    H138938   5.308   0.140   3.613 -0.7668 -1.9552 -0.4096
 5841TIP3    H238939   5.434   0.056   3.614  0.0201 -0.8078  0.8497
 5842TIP3   OH238940   0.245   1.247   5.136  0.8316  0.0056  0.0105
 5842TIP3    H138941   0.227   1.335   5.167  3.0462  0.5193 -0.0339
 5842TIP3    H238942   0.279   1.259   5.047  2.4123 -0.7307  0.4672
 5843TIP3   OH238943   0.900   0.293  13.506 -0.1702  0.4251 -0.5619
 5843TIP3    H138944   0.855   0.331  13.581 -0.2213  1.1124 -0.9347
 5843TIP3    H238945   0.993   0.295  13.530 -0.3248 -1.1223  0.2631
 5844TIP3   OH238946   4.171   3.934   3.944 -0.0516  0.2150 -0.0459
 5844TIP3    H138947   4.207   3.982   3.870 -0.7552  0.8789  0.0268
 5844TIP3    H238948   4.230   3.860   3.956  1.8029  1.7124  0.6058
 5845TIP3   OH238949   0.930   3.422  11.904  0.1701 -0.4616  0.1645
 5845TIP3    H138950   0.840   3.453  11.914 -0.8649 -2.5308 -1.8095
 5845TIP3    H238951   0.981   3.503  11.894 -1.6757  0.7449 -0.1110
 5846TIP3   OH238952   3.828   3.314   1.514  0.3878  0.0783  0.2127
 5846TIP3    H138953   3.910   3.332   1.469  0.3650  0.1982  0.2179
 5846TIP3    H238954   3.836   3.359   1.598  1.0664 -1.4214  0.9875
 5847TIP3   OH238955   3.221   2.793   0.239 -0.2665  0.1677 -0.1458
 5847TIP3    H138956   3.147   2.787   0.179 -0.3900  0.4136 -0.0225
 5847TIP3    H238957   3.208   2.877   0.284 -0.3265 -0.1425  0.4204
 5848TIP3   OH238958   1.103   5.975  14.521 -0.3156 -0.5869  0.0126
 5848TIP3    H138959   1.046   6.046  14.550  0.6100 -0.4218  1.4948
 5848TIP3    H238960   1.185   6.018  14.496 -0.2522 -0.9958 -0.5162
 5849TIP3   OH238961   0.106   3.778  17.067  0.3127  0.1310 -0.6414
 5849TIP3    H138962   0.048   3.813  16.998  1.0098 -1.2841 -2.0023
 5849TIP3    H238963   0.159   3.853  17.093 -0.5125  0.8857 -1.0512
 5850TIP3   OH238964   6.503   0.903  15.446  0.3087  0.2069  0.1025
 5850TIP3    H138965   6.519   0.832  15.384  1.1164 -1.2960  1.9533
 5850TIP3    H238966   6.590   0.924  15.481 -0.3740 -0.5913  2.3977
 5851TIP3   OH238967   5.955   6.635   5.037 -1.0469  0.2910 -0.5829
 5851TIP3    H138968   5.978   6.567   4.974 -1.1542 -0.9862  0.7066
 5851TIP3    H238969   6.008   6.710   5.011  1.6691 -1.3034 -0.0604
 5852TIP3   OH238970   5.370   6.520   3.814  0.4119  0.2186  0.1152
 5852TIP3    H138971   5.426   6.461   3.865 -0.5281  0.4625  1.4849
 5852TIP3    H238972   5.308   6.461   3.771 -0.4694  0.1433  1.4115
 5853TIP3   OH238973   0.609   3.051  15.758  0.4941 -0.4418 -0.2262
 5853TIP3    H138974   0.692   3.006  15.746  1.3631  1.0400 -0.0459
 5853TIP3    H238975   0.629   3.143  15.741 -0.5745  0.2815  2.0040
 5854TIP3   OH238976   6.507   1.085   3.174  0.7116 -0.7338  0.0725
 5854TIP3    H138977   6.599   1.106   3.193  0.3427  0.1233  0.9718
 5854TIP3    H238978   6.494   1.112   3.084  0.7988  1.1285  0.5800
 5855TIP3   OH238979   4.704   0.150  14.646 -0.3498 -0.1830 -0.4065
 5855TIP3    H138980   4.647   0.210  14.599 -0.2993  0.1458 -0.0539
 5855TIP3    H238981   4.793   0.174  14.618 -0.2639  0.5470  0.4484
 5856TIP3   OH238982   0.416   2.833   4.199  0.0856 -0.0006  0.2005
 5856TIP3    H138983   0.437   2.746   4.232  0.6061  0.0663  0.0490
 5856TIP3    H238984   0.393   2.819   4.107 -0.6841 -0.0901  0.3934
 5857TIP3   OH238985   2.984   5.747  16.388  0.6013 -0.2221  0.6935
 5857TIP3    H138986   2.899   5.790  16.398  1.2247  1.9472 -1.8626
 5857TIP3    H238987   3.047   5.807  16.428  1.1142 -0.8476  0.8535
 5858TIP3   OH238988   0.630   1.894   1.111  0.3528 -0.1056  0.3027
 5858TIP3    H138989   0.690   1.823   1.134  1.3327  0.8364  0.7785
 5858TIP3    H238990   0.566   1.854   1.053  1.8959 -1.0159 -0.8730
 5859TIP3   OH238991   0.926   5.130  12.219  0.0036  0.2330  0.0525
 5859TIP3    H138992   0.936   5.159  12.129  0.9540  0.7379  0.3051
 5859TIP3    H238993   0.984   5.188  12.269  0.2709 -0.7059  0.8493
 5860TIP3   OH238994   1.809   1.047  15.948 -0.0873  0.2403 -0.2993
 5860TIP3    H138995   1.804   1.036  15.853 -0.2480  0.7129 -0.3498
 5860TIP3    H238996   1.892   1.007  15.973  0.2005  0.5708 -0.7125
 5861TIP3   OH238997   0.196   1.646   1.341  0.6426  0.1782 -0.4027
 5861TIP3    H138998   0.130   1.580   1.365 -0.1864  0.9577 -0.4844
 5861TIP3    H238999   0.172   1.724   1.391  1.9040  0.2926  0.0683
 5862TIP3   OH239000   5.198   2.612   5.705  0.5410  0.4522 -0.4335
 5862TIP3    H139001   5.122   2.654   5.666  1.2380  0.9979 -1.2482
 5862TIP3    H239002   5.227   2.548   5.640  0.2370 -0.4057  0.2641
 5863TIP3   OH239003   3.230   0.860  15.773 -0.0964 -0.4536 -0.7388
 5863TIP3    H139004   3.214   0.791  15.837 -0.3729 -0.3669 -0.7134
 5863TIP3    H239005   3.301   0.912  15.811 -0.1515 -0.4965 -0.5774
 5864TIP3   OH239006   5.626   0.101   2.872  0.0030 -0.4804 -1.0391
 5864TIP3    H139007   5.642   0.061   2.958 -2.1314 -3.0174 -1.6882
 5864TIP3    H239008   5.700   0.073   2.819  0.1192 -0.9642 -0.6358
 5865TIP3   OH239009   2.059   3.912  11.507 -0.8917  0.4242  0.0902
 5865TIP3    H139010   2.118   3.858  11.559  1.2568 -0.5485 -3.0397
 5865TIP3    H239011   1.989   3.853  11.480  0.0990 -0.2012 -1.2349
 5866TIP3   OH239012   0.576   1.568  15.161 -0.7464 -0.4552 -0.2454
 5866TIP3    H139013   0.598   1.656  15.191 -0.4607 -0.3903 -0.6375
 5866TIP3    H239014   0.531   1.528  15.236 -1.8984  0.4024 -0.4584
 5867TIP3   OH239015   4.016   2.376  16.009  0.3096  0.2337 -0.2461
 5867TIP3    H139016   3.974   2.391  16.094 -0.5135  0.7425 -0.7287
 5867TIP3    H239017   3.943   2.360  15.949  0.9101 -0.5286 -0.7830
 5868TIP3   OH239018   1.282   5.331  11.150 -0.4950  0.3951  0.1305
 5868TIP3    H139019   1.249   5.243  11.130 -0.7006  0.5317 -0.1351
 5868TIP3    H239020   1.210   5.374  11.196 -0.3000  0.3389  0.4919
 5869TIP3   OH239021   3.997   2.871   3.138  0.3307 -0.1403  0.0028
 5869TIP3    H139022   3.992   2.869   3.042  0.5137  0.3420 -0.0199
 5869TIP3    H239023   3.915   2.832   3.167 -0.1273  0.5334 -0.3585
 5870TIP3   OH239024   5.544   3.107   2.133 -0.1442 -0.1824  0.2991
 5870TIP3    H139025   5.462   3.143   2.097  0.0677 -1.7034 -1.9483
 5870TIP3    H239026   5.586   3.181   2.177 -1.5446  1.2591 -0.6700
 5871TIP3   OH239027   2.462   0.572  13.993  0.5381  0.3801  0.1390
 5871TIP3    H139028   2.442   0.627  13.918 -0.9166 -0.1485  0.1117
 5871TIP3    H239029   2.502   0.493  13.956 -1.3913 -0.4687 -0.2536
 5872TIP3   OH239030   2.248   5.754   0.034 -0.1996 -0.1737 -0.7064
 5872TIP3    H139031   2.288   5.784   0.116 -0.9112 -0.8994 -0.0673
 5872TIP3    H239032   2.321   5.739  -0.025  0.3373  0.2512 -0.1568
 5873TIP3   OH239033   6.209   3.662   5.034 -0.5561  0.2600 -0.7175
 5873TIP3    H139034   6.221   3.571   5.061 -1.3907  0.1642 -0.6439
 5873TIP3    H239035   6.277   3.676   4.968 -0.8883 -0.6538 -1.2762
 5874TIP3   OH239036   1.767   0.541  13.173  0.0925  0.4352 -0.1174
 5874TIP3    H139037   1.809   0.517  13.091 -2.1003 -4.1376 -0.2151
 5874TIP3    H239038   1.837   0.537  13.238  0.8460 -1.8189 -0.9849
 5875TIP3   OH239039   2.132   6.434  11.821 -0.3012 -0.2445 -0.5725
 5875TIP3    H139040   2.053   6.448  11.768 -1.5591  0.3606  1.3431
 5875TIP3    H239041   2.126   6.499  11.891  2.0710 -0.0045 -0.5051
 5876TIP3   OH239042   3.940   2.943  17.075 -0.0845 -0.0534 -0.0128
 5876TIP3    H139043   3.886   2.899  17.010  0.4975 -1.6257  0.5230
 5876TIP3    H239044   4.022   2.963  17.028 -1.0174  2.2670 -0.8031
 5877TIP3   OH239045   0.874   2.977  15.821  0.3974 -0.3321 -0.3611
 5877TIP3    H139046   0.900   3.051  15.875  0.0040 -0.7922  0.4916
 5877TIP3    H239047   0.919   2.902  15.859 -1.8557 -1.1027  0.9928
 5878TIP3   OH239048   4.404   4.558  17.431 -0.9829  0.3066  0.2689
 5878TIP3    H139049   4.495   4.578  17.410 -0.9779  0.8388  0.7704
 5878TIP3    H239050   4.365   4.643  17.454 -0.7266 -0.2897  3.3965
 5879TIP3   OH239051   5.533   0.391  12.671  0.1129  0.3835  0.0905
 5879TIP3    H139052   5.499   0.426  12.753 -1.3919  1.5302 -0.9626
 5879TIP3    H239053   5.618   0.353  12.694 -1.0266 -0.9446  2.5062
 5880TIP3   OH239054   5.531   3.107  14.135  0.3281 -0.1220 -0.0844
 5880TIP3    H139055   5.454   3.126  14.082  0.2670 -1.8457 -0.6778
 5880TIP3    H239056   5.496   3.089  14.222  0.2205  0.5197  0.0137
 5881TIP3   OH239057   4.719   0.004  14.330  0.2135  0.0872  0.2242
 5881TIP3    H139058   4.652  -0.000  14.398  0.1074 -1.0153  0.0741
 5881TIP3    H239059   4.673   0.040  14.254 -0.4563 -1.4212 -0.1231
 5882TIP3   OH239060   2.954   2.180  14.480  1.0014 -0.3010 -0.4140
 5882TIP3    H139061   2.931   2.254  14.536 -1.3929 -1.4148  0.1923
 5882TIP3    H239062   2.962   2.217  14.392 -1.2795  0.5734 -0.3139
 5883TIP3   OH239063   5.756   2.562   0.817 -0.1527  0.1440 -0.3159
 5883TIP3    H139064   5.772   2.651   0.850  0.8199  0.1594 -0.7794
 5883TIP3    H239065   5.684   2.572   0.755  1.1893  0.9846 -1.8265
 5884TIP3   OH239066   0.890   5.216  17.184  0.7219  0.1365 -0.6492
 5884TIP3    H139067   0.853   5.291  17.229  0.1484 -0.4216 -0.1829
 5884TIP3    H239068   0.832   5.200  17.110  0.7204  0.0177 -0.6240
 5885TIP3   OH239069   1.900   1.737   0.044  0.2233 -0.5700  0.7059
 5885TIP3    H139070   1.872   1.712  -0.044 -1.2613  1.7272  0.4371
 5885TIP3    H239071   1.825   1.785   0.080  1.0853 -0.7955  2.9569
 5886TIP3   OH239072   5.261   0.108   1.673  1.0731  0.1379  0.3997
 5886TIP3    H139073   5.280   0.017   1.648  0.6704 -0.2258  1.3814
 5886TIP3    H239074   5.182   0.130   1.624  1.3703  0.0817 -0.1117
 5887TIP3   OH239075   6.616   2.273   3.227 -0.1191 -0.2466  0.3509
 5887TIP3    H139076   6.614   2.247   3.319  0.0107 -0.1221  0.3898
 5887TIP3    H239077   6.705   2.251   3.198 -0.6117 -1.6920 -0.1605
 5888TIP3   OH239078   1.574   2.675  17.540 -0.2158  0.8034 -0.4442
 5888TIP3    H139079   1.606   2.648  17.627  0.2301  1.8530 -0.2610
 5888TIP3    H239080   1.603   2.766  17.532 -0.1411  0.6746 -1.7594
 5889TIP3   OH239081   0.529   4.728  11.450  0.1978  0.5551  0.1438
 5889TIP3    H139082   0.479   4.800  11.489  1.0001 -0.0442  2.4620
 5889TIP3    H239083   0.620   4.750  11.469  0.4042 -1.5711  1.9092
 5890TIP3   OH239084   2.595   0.658   1.396 -0.2136 -0.0429  0.0191
 5890TIP3    H139085   2.541   0.581   1.414  0.6126 -1.0552 -1.6568
 5890TIP3    H239086   2.667   0.625   1.342 -0.0685  1.9728 -1.1029
 5891TIP3   OH239087   3.378   4.135   2.705  0.2891 -0.8575 -0.2227
 5891TIP3    H139088   3.454   4.102   2.657  1.1302 -0.4311  0.8017
 5891TIP3    H239089   3.316   4.159   2.636  1.1609 -0.9912 -1.0810
 5892TIP3   OH239090   1.768   6.623  17.123  0.0857  0.0422 -0.5106
 5892TIP3    H139091   1.745   6.688  17.057  0.0106  1.6267  1.0156
 5892TIP3    H239092   1.783   6.673  17.203 -0.4724 -1.8489  0.8682
 5893TIP3   OH239093   5.020   6.013   5.103 -0.3589  0.2166  0.4540
 5893TIP3    H139094   5.008   6.108   5.110 -0.1220  0.2334  0.6561
 5893TIP3    H239095   4.991   5.992   5.014 -0.3101  0.4937  0.3703
 5894TIP3   OH239096   0.837   5.246   5.927 -0.3616 -0.2127 -0.3352
 5894TIP3    H139097   0.856   5.280   6.015 -0.1279 -1.0099 -0.0680
 5894TIP3    H239098   0.797   5.160   5.943 -1.2614  0.0794 -0.9850
 5895TIP3   OH239099   1.621   0.356   0.223 -0.1892 -0.1740  0.0910
 5895TIP3    H139100   1.528   0.373   0.208 -0.2561 -1.0090 -0.4809
 5895TIP3    H239101   1.623   0.274   0.271  0.2446 -0.0068  0.3608
 5896TIP3   OH239102   6.151   3.884  12.684 -0.3317  0.1233 -0.3988
 5896TIP3    H139103   6.094   3.961  12.691 -0.3111  0.0577  0.6715
 5896TIP3    H239104   6.127   3.830  12.759  0.9981  0.0005 -0.0318
 5897TIP3   OH239105   4.878   3.144  16.115 -0.0302 -0.2660  0.3327
 5897TIP3    H139106   4.883   3.049  16.123 -2.5732 -0.3668  1.4583
 5897TIP3    H239107   4.801   3.161  16.061 -0.4026  1.1817  1.2589
 5898TIP3   OH239108   2.358   3.601  17.420 -0.0405 -0.9018  0.6375
 5898TIP3    H139109   2.291   3.607  17.352  0.6320  2.5230  0.1548
 5898TIP3    H239110   2.418   3.534  17.388 -1.1589 -1.2886 -0.7859
 5899TIP3   OH239111   2.975   1.118   1.599  0.1222  0.5028  0.1010
 5899TIP3    H139112   3.045   1.069   1.641 -1.0584 -0.9538  0.4569
 5899TIP3    H239113   2.936   1.057   1.537 -0.8637  1.2721 -0.0684
 5900TIP3   OH239114   0.433   5.106   6.501  0.3070 -0.2879  0.0134
 5900TIP3    H139115   0.511   5.052   6.485  1.0045  0.0149  2.0398
 5900TIP3    H239116   0.460   5.166   6.571  0.0947  3.7792 -2.9908
 5901TIP3   OH239117   4.605   6.634  16.127  0.6611 -0.0853  0.6754
 5901TIP3    H139118   4.582   6.585  16.049 -1.2210 -0.0074  1.1273
 5901TIP3    H239119   4.585   6.725  16.105 -0.8721 -0.1868  1.5650
 5902TIP3   OH239120   1.335   5.560   1.594  0.3362  0.6278 -0.3443
 5902TIP3    H139121   1.333   5.554   1.499 -0.9948  0.9851 -0.3658
 5902TIP3    H239122   1.411   5.509   1.621  1.1435  1.1185 -1.6387
 5903TIP3   OH239123   1.441   2.894  11.480 -0.1792 -0.2935 -0.0342
 5903TIP3    H139124   1.420   2.893  11.386  0.0608 -1.8554 -0.0883
 5903TIP3    H239125   1.369   2.943  11.520  1.0828  2.8667 -1.2989
 5904TIP3   OH239126   5.236   4.036  15.370  0.4624 -0.2075  0.5519
 5904TIP3    H139127   5.151   4.070  15.397  0.2831 -0.6424  0.5443
 5904TIP3    H239128   5.246   4.068  15.280 -1.3031 -2.9929 -0.7928
 5905TIP3   OH239129   4.323   1.721   2.789  0.3443  0.3305 -0.1467
 5905TIP3    H139130   4.324   1.627   2.767 -1.1891  0.0556  0.8564
 5905TIP3    H239131   4.375   1.761   2.719 -0.5033 -1.0515 -1.6723
 5906TIP3   OH239132   0.317   2.425   6.865  0.1902  0.0968  0.5008
 5906TIP3    H139133   0.260   2.349   6.862 -0.6282  0.7081  0.3563
 5906TIP3    H239134   0.358   2.421   6.951  0.5935 -0.8134  0.2792
 5907TIP3   OH239135   1.920   1.803   0.379  0.1432  0.3124  0.0361
 5907TIP3    H139136   1.872   1.773   0.301  1.0026 -3.0700  0.6395
 5907TIP3    H239137   2.008   1.823   0.346 -0.3379  1.9252 -0.3178
 5908TIP3   OH239138   4.083   0.904  14.136  0.3123 -0.1436 -0.1763
 5908TIP3    H139139   3.995   0.920  14.101  1.0825 -0.2011 -2.2787
 5908TIP3    H239140   4.081   0.812  14.164 -0.3106 -0.1221 -0.1288
 5909TIP3   OH239141   0.143   1.897   5.126 -0.4383  0.3422  0.4630
 5909TIP3    H139142   0.209   1.961   5.098  0.1854 -0.1529  0.7611
 5909TIP3    H239143   0.082   1.948   5.179 -0.0976  0.7496  0.4730
 5910TIP3   OH239144   2.171   3.829   0.662 -0.8512  0.7072 -0.1580
 5910TIP3    H139145   2.085   3.810   0.623 -0.2849  0.6110 -1.4107
 5910TIP3    H239146   2.175   3.771   0.738 -1.1111 -0.7917 -1.2188
 5911TIP3   OH239147   5.609   3.999   4.710  0.3252 -0.1775  0.3187
 5911TIP3    H139148   5.602   4.045   4.626  1.0323  0.3433  0.5330
 5911TIP3    H239149   5.638   4.067   4.771 -1.4836 -0.2155  1.2852
 5912TIP3   OH239150   1.837   2.827   5.513  0.4571 -0.4357  0.0140
 5912TIP3    H139151   1.864   2.893   5.577 -0.8319 -1.0283  1.2057
 5912TIP3    H239152   1.789   2.762   5.563 -0.0772 -1.2488 -1.4727
 5913TIP3   OH239153   1.369   6.376  14.638 -0.2593  0.3925  0.2962
 5913TIP3    H139154   1.326   6.291  14.647  0.6372 -0.3955 -2.1296
 5913TIP3    H239155   1.317   6.435  14.692 -2.3720 -1.1981  0.1180
 5914TIP3   OH239156   2.561   0.112  10.591  0.1258 -0.4190 -0.0428
 5914TIP3    H139157   2.525   0.025  10.612  0.8423 -0.9263 -0.8451
 5914TIP3    H239158   2.519   0.171  10.654 -0.1148 -1.3956  0.7398
 5915TIP3   OH239159   2.360   1.559   0.186 -0.0899  0.4172 -0.1084
 5915TIP3    H139160   2.401   1.635   0.227 -2.9226  1.8905  0.2839
 5915TIP3    H239161   2.378   1.570   0.093  0.4038  0.9895  0.0444
 5916TIP3   OH239162   2.559   0.038  13.773 -0.9983 -0.4099 -0.6863
 5916TIP3    H139163   2.650   0.008  13.780  0.2021  3.0169  0.0626
 5916TIP3    H239164   2.516   0.001  13.850  0.5115  0.1212  0.4650
 5917TIP3   OH239165   5.998   5.832  10.958  0.1768  0.5124 -0.6102
 5917TIP3    H139166   5.925   5.857  11.014  0.1573 -0.3433 -0.2356
 5917TIP3    H239167   5.983   5.879  10.876 -0.2419  1.1319 -0.1857
 5918TIP3   OH239168   5.699   6.148   6.755  0.4780 -0.2679  0.2798
 5918TIP3    H139169   5.771   6.209   6.768  1.0179 -0.8132 -0.0680
 5918TIP3    H239170   5.730   6.066   6.791  0.4914 -0.7976 -0.8738
 5919TIP3   OH239171   3.227   6.049  14.078 -0.1606  0.6231  0.4854
 5919TIP3    H139172   3.316   6.041  14.114 -0.3995  1.6568  1.3583
 5919TIP3    H239173   3.172   6.068  14.154 -1.0254  0.7210 -0.1467
 5920TIP3   OH239174   2.202   5.417   0.270 -0.3147 -0.0835  0.6818
 5920TIP3    H139175   2.215   5.488   0.333 -2.8502 -0.4618  1.7301
 5920TIP3    H239176   2.241   5.450   0.189  1.5969  1.0718  1.9970
 5921TIP3   OH239177   2.135   3.430  11.541  0.2248  0.2190 -0.5372
 5921TIP3    H139178   2.101   3.431  11.452  0.1824  1.9151 -0.5163
 5921TIP3    H239179   2.144   3.522  11.566  0.0811 -0.2125  1.2804
 5922TIP3   OH239180   0.649   2.643   4.425  0.0447  0.0759 -0.0029
 5922TIP3    H139181   0.647   2.689   4.509  0.3593  1.0765 -0.5249
 5922TIP3    H239182   0.703   2.566   4.442  0.7627  0.6762  0.5202
 5923TIP3   OH239183   5.522   5.157   3.931 -0.2077  0.1962 -0.3986
 5923TIP3    H139184   5.547   5.141   3.840 -1.1610  0.0217 -0.6418
 5923TIP3    H239185   5.516   5.252   3.938 -2.3437  0.1775 -1.1729
 5924TIP3   OH239186   0.276   6.171   1.000 -0.2545  0.2733  0.5209
 5924TIP3    H139187   0.271   6.205   1.090 -1.2885  1.0831  0.1817
 5924TIP3    H239188   0.269   6.076   1.010  0.8316  0.2642  1.3741
 5925TIP3   OH239189   5.638   3.510   4.490 -0.0875  0.1541 -0.0553
 5925TIP3    H139190   5.588   3.435   4.521 -1.2701  0.7357 -0.5182
 5925TIP3    H239191   5.642   3.499   4.395  1.1584 -0.1690  0.0121
 5926TIP3   OH239192   2.334   0.202  13.007  0.1988  0.0685  0.1557
 5926TIP3    H139193   2.287   0.285  13.015 -0.2507 -0.0092 -1.2685
 5926TIP3    H239194   2.426   0.227  13.006  0.0978  0.4730  0.5399
 5927TIP3   OH239195   5.623   6.646   0.751 -0.4495  0.0380 -0.2872
 5927TIP3    H139196   5.537   6.660   0.791 -0.0991 -0.7818  0.8288
 5927TIP3    H239197   5.680   6.626   0.826  0.6326  0.2349 -1.0453
 5928TIP3   OH239198   4.028   3.588   0.924 -0.1653 -0.5409 -0.0890
 5928TIP3    H139199   4.081   3.635   0.989  2.2697 -1.5188 -1.2267
 5928TIP3    H239200   3.938   3.604   0.950  0.6396  1.8539  1.5730
 5929TIP3   OH239201   4.595   4.244  11.049 -0.1238 -0.2286  0.3582
 5929TIP3    H139202   4.548   4.312  11.002  0.2232 -0.9826 -1.1471
 5929TIP3    H239203   4.564   4.162  11.011  1.9470 -0.7690 -0.3062
 5930TIP3   OH239204   5.968   1.318  14.856  0.7891  0.4376  0.6454
 5930TIP3    H139205   5.976   1.414  14.856  1.2308  0.4103  1.3597
 5930TIP3    H239206   5.893   1.300  14.800 -0.7800  1.3506  2.3322
 5931TIP3   OH239207   4.341   0.104  14.188  0.1380  0.3224  0.0077
 5931TIP3    H139208   4.262   0.152  14.163  0.8022  1.6361  0.3164
 5931TIP3    H239209   4.405   0.125  14.121  0.2137 -0.8124 -0.2929
 5932TIP3   OH239210   2.358   2.323   0.482 -0.2105  0.5599  0.0910
 5932TIP3    H139211   2.388   2.275   0.560  0.0480 -1.6151 -1.2591
 5932TIP3    H239212   2.419   2.397   0.474 -0.3698  0.9580  2.0287
 5933TIP3   OH239213   0.516   5.737  13.011 -0.1892  0.1347  0.4476
 5933TIP3    H139214   0.470   5.668  12.963 -0.1855 -0.2542  1.0049
 5933TIP3    H239215   0.544   5.696  13.092  0.3340  0.6307  0.5220
 5934TIP3   OH239216   2.767   5.660   1.022  0.3762  0.3836 -0.4586
 5934TIP3    H139217   2.778   5.601   0.948  0.2703  0.1839 -0.3165
 5934TIP3    H239218   2.852   5.661   1.066  0.1585 -0.2922  0.0003
 5935TIP3   OH239219   1.412   4.971  11.969 -0.1472 -0.1117 -0.1126
 5935TIP3    H139220   1.446   4.919  12.042  2.0492  1.1131 -0.1889
 5935TIP3    H239221   1.317   4.957  11.973  0.1477 -2.3721  1.1622
 5936TIP3   OH239222   4.561   6.668   3.780  0.3282  0.0069  0.3184
 5936TIP3    H139223   4.474   6.650   3.745  0.4779  1.2196 -0.7435
 5936TIP3    H239224   4.613   6.691   3.704  1.0501  1.3223  1.1657
 5937TIP3   OH239225   1.995   0.250   5.354  0.6494  0.2590  0.5281
 5937TIP3    H139226   1.965   0.333   5.391  2.0867  1.5688 -1.0456
 5937TIP3    H239227   1.927   0.226   5.290  0.9708  1.0810 -0.1391
 5938TIP3   OH239228   6.692   6.132   5.478 -0.0371  0.0719 -0.4099
 5938TIP3    H139229   6.698   6.123   5.574  0.9530 -0.1027 -0.4754
 5938TIP3    H239230   6.598   6.132   5.460 -0.3516  2.5049  0.7920
 5939TIP3   OH239231   1.146   0.145   3.337 -0.1718  0.1905 -0.4398
 5939TIP3    H139232   1.142   0.101   3.422 -0.5900  0.3951 -0.3486
 5939TIP3    H239233   1.111   0.232   3.354  0.3416  0.4476 -0.6893
 5940TIP3   OH239234   0.664   4.215   1.322 -0.0306 -0.2645 -0.1785
 5940TIP3    H139235   0.644   4.155   1.250 -1.2397 -1.1592  0.8624
 5940TIP3    H239236   0.658   4.302   1.283 -0.5924 -0.7353 -1.1744
 5941TIP3   OH239237   4.618   1.655  16.971 -0.2344  0.0747 -0.1606
 5941TIP3    H139238   4.529   1.651  16.937 -0.8305 -0.2567  1.3549
 5941TIP3    H239239   4.671   1.605  16.909 -1.3757 -1.0271 -0.2678
 5942TIP3   OH239240   2.203   6.108  17.218  0.0799 -0.6912  0.2669
 5942TIP3    H139241   2.227   6.200  17.231  0.8580 -1.0516  1.6181
 5942TIP3    H239242   2.108   6.107  17.229  0.0636 -0.0554  0.2660
 5943TIP3   OH239243   0.618   2.536   6.214 -0.3479 -0.4142 -0.0239
 5943TIP3    H139244   0.682   2.482   6.168 -1.7491 -1.4876 -0.7881
 5943TIP3    H239245   0.541   2.480   6.221 -1.8774  1.4787 -0.8858
 5944TIP3   OH239246   3.020   2.639   6.271 -0.3451  0.3285 -0.6957
 5944TIP3    H139247   3.005   2.623   6.364 -2.0764 -0.6588 -1.0999
 5944TIP3    H239248   3.110   2.672   6.266  0.6482 -1.8826  1.0680
 5945TIP3   OH239249   0.138   0.709   5.486  0.5160 -0.0960 -0.5428
 5945TIP3    H139250   0.181   0.658   5.418  0.3376 -1.3563  0.2432
 5945TIP3    H239251   0.159   0.662   5.567 -0.9011  0.2347  0.0382
 5946TIP3   OH239252   4.102   2.485  16.356 -0.1979  0.2024  0.0447
 5946TIP3    H139253   4.015   2.447  16.348 -1.1487  2.0768  0.9598
 5946TIP3    H239254   4.107   2.550  16.286  0.0242  0.8987  0.6927
 5947TIP3   OH239255   1.711   6.488  12.199  0.6750  0.6835 -0.1185
 5947TIP3    H139256   1.724   6.437  12.279 -0.2290  1.3049  0.4346
 5947TIP3    H239257   1.740   6.429  12.129 -3.7788 -2.2550  0.0737
 5948TIP3   OH239258   6.153   6.396  10.699  0.1699  0.7917  0.1166
 5948TIP3    H139259   6.110   6.360  10.776  0.9573 -1.0194 -0.2461
 5948TIP3    H239260   6.086   6.393  10.630  0.6362 -1.5156 -0.3083
 5949TIP3   OH239261   1.254   3.087  16.417 -0.1703  0.0947  0.3586
 5949TIP3    H139262   1.246   3.159  16.354 -2.6614  0.0242  0.4952
 5949TIP3    H239263   1.307   3.123  16.487 -1.2201  1.7928  0.3438
 5950TIP3   OH239264   3.720   1.596  13.298  0.3369  0.3782  0.0867
 5950TIP3    H139265   3.762   1.626  13.378 -0.3325  0.1750  0.5163
 5950TIP3    H239266   3.694   1.677  13.253  1.7054  0.5354 -0.4909
 5951TIP3   OH239267   4.779   6.704  13.296  0.2784 -0.1039 -0.0610
 5951TIP3    H139268   4.693   6.668  13.276  0.1274  0.2469 -0.0437
 5951TIP3    H239269   4.779   6.791  13.256  0.6296 -0.1071 -0.0742
 5952TIP3   OH239270   3.987   5.593  16.406  0.1831  0.2451  0.5141
 5952TIP3    H139271   3.962   5.638  16.486 -0.9330  0.3108  0.1492
 5952TIP3    H239272   3.915   5.532  16.389 -0.0731  0.9022 -0.9348
 5953TIP3   OH239273   3.448   1.715   2.266  0.7176 -0.1785  0.2484
 5953TIP3    H139274   3.461   1.785   2.202 -0.1073 -0.1418  0.1052
 5953TIP3    H239275   3.408   1.644   2.216 -0.9619  0.2483  0.9024
 5954TIP3   OH239276   2.093   2.486  14.553 -0.5782  0.0269 -0.0378
 5954TIP3    H139277   2.150   2.518  14.623  1.8665 -0.9915 -1.4606
 5954TIP3    H239278   2.135   2.516  14.472 -1.8572 -1.0895 -1.1683
 5955TIP3   OH239279   0.455   1.700  11.828 -0.3591  0.0561 -0.0747
 5955TIP3    H139280   0.468   1.624  11.771 -0.4906 -0.9802  1.2126
 5955TIP3    H239281   0.535   1.751  11.820  0.5174 -1.1947  0.4289
 5956TIP3   OH239282   5.545   5.103  17.213 -0.2334  0.1043  0.3502
 5956TIP3    H139283   5.563   5.079  17.304  0.1491 -1.1845 -0.0449
 5956TIP3    H239284   5.450   5.097  17.205 -0.2933  0.4879  0.7266
 5957TIP3   OH239285   4.968   6.062   2.624  0.0634 -0.2978  0.3631
 5957TIP3    H139286   4.964   6.143   2.676 -0.0076 -1.3921  2.1464
 5957TIP3    H239287   4.914   6.081   2.547  1.4981  1.9465 -0.1969
 5958TIP3   OH239288   1.132   4.823   2.051  0.4497  0.0270  0.1577
 5958TIP3    H139289   1.174   4.817   2.137 -0.4079  0.3142  0.6045
 5958TIP3    H239290   1.202   4.801   1.990  1.1912  0.2301  0.8969
 5959TIP3   OH239291   2.158   0.082  11.942 -0.0873 -0.3613  0.4553
 5959TIP3    H139292   2.214   0.157  11.918 -0.3369 -0.9831 -2.4059
 5959TIP3    H239293   2.119   0.107  12.026  0.3334  2.4411 -0.0918
 5960TIP3   OH239294   0.701   1.641   1.038  0.6309 -0.2684  0.2644
 5960TIP3    H139295   0.777   1.583   1.034  0.1621 -0.9425  0.8096
 5960TIP3    H239296   0.630   1.584   1.067 -0.0975  0.3401 -0.3011
 5961TIP3   OH239297   6.281   3.705   2.122  0.7431 -0.4169  0.6614
 5961TIP3    H139298   6.240   3.626   2.085  1.3531  0.2549 -1.5499
 5961TIP3    H239299   6.365   3.674   2.156  1.0961 -0.7110 -0.4280
 5962TIP3   OH239300   1.067   4.144   5.338 -0.7732  0.7337 -0.3187
 5962TIP3    H139301   1.024   4.064   5.306 -1.2613  0.6939  0.4190
 5962TIP3    H239302   1.161   4.126   5.330 -0.8626  0.8181 -1.9441
 5963TIP3   OH239303   0.292   5.891   1.022  0.1430  0.6961 -0.5192
 5963TIP3    H139304   0.232   5.858   0.956 -0.5456  1.5539 -0.3489
 5963TIP3    H239305   0.371   5.839   1.012 -0.6747 -0.5433 -0.6577
 5964TIP3   OH239306   4.635   2.997  15.090  0.0692 -0.7524 -0.0730
 5964TIP3    H139307   4.593   2.975  15.173 -1.4863  0.0986 -0.5815
 5964TIP3    H239308   4.725   3.020  15.114  0.1215 -2.1119  1.1403
 5965TIP3   OH239309   3.560   6.622  16.661 -0.5651 -0.0044  0.7051
 5965TIP3    H139310   3.594   6.614  16.571  0.5537 -0.6304  1.1661
 5965TIP3    H239311   3.526   6.711  16.665  0.9700  0.6545  0.1653
 5966TIP3   OH239312   3.985   6.013   1.025  0.4814  0.1205 -0.2064
 5966TIP3    H139313   3.960   6.059   1.106  1.4157 -1.2516  0.9030
 5966TIP3    H239314   3.902   5.983   0.988  0.1561 -1.2107  1.4802
 5967TIP3   OH239315   1.089   3.762   2.577 -0.0613 -0.0403 -0.2454
 5967TIP3    H139316   1.060   3.853   2.573  0.6643  0.1521 -1.7974
 5967TIP3    H239317   1.020   3.717   2.626 -0.5162  1.3018  0.3821
 5968TIP3   OH239318   3.353   4.160  12.537  0.1447 -0.3046  0.4403
 5968TIP3    H139319   3.265   4.183  12.565 -0.1378 -0.8392  0.0098
 5968TIP3    H239320   3.357   4.065  12.545  0.3256 -0.3886 -0.5173
 5969TIP3   OH239321   3.216   2.679  15.807 -0.2425 -0.5797  0.2956
 5969TIP3    H139322   3.228   2.597  15.761  0.0365 -0.5287  0.2804
 5969TIP3    H239323   3.149   2.726  15.756  0.5881 -0.2122 -0.4682
 5970TIP3   OH239324   2.595   0.244  12.970  0.1724  0.1065  0.4738
 5970TIP3    H139325   2.668   0.206  13.017  0.3755 -0.1357 -0.0243
 5970TIP3    H239326   2.609   0.218  12.879  0.3177  1.3711  0.1147
 5971TIP3   OH239327   1.014   3.000   3.444 -0.2424 -0.3230  0.4353
 5971TIP3    H139328   1.002   3.094   3.451  0.9153 -0.0062 -1.1648
 5971TIP3    H239329   1.067   2.976   3.520 -1.9929 -0.0168  1.7963
 5972TIP3   OH239330   0.670   4.864   5.206 -0.3258  0.2057 -0.2402
 5972TIP3    H139331   0.648   4.939   5.151 -0.6531 -0.1455 -0.5954
 5972TIP3    H239332   0.667   4.898   5.295 -0.8560  0.5263 -0.3725
 5973TIP3   OH239333   3.400   6.027  12.388  0.3792  0.2739  0.1251
 5973TIP3    H139334   3.402   6.064  12.476  0.1431 -0.1410  0.3086
 5973TIP3    H239335   3.491   6.002  12.370  0.0221 -2.3593  1.4382
 5974TIP3   OH239336   6.056   0.422  15.295  0.3954  0.5770 -0.2152
 5974TIP3    H139337   6.078   0.508  15.332  0.0091  0.5239  0.1330
 5974TIP3    H239338   6.084   0.428  15.203  1.5984  0.6150  0.1396
 5975TIP3   OH239339   1.667   2.819   4.499 -0.2583 -0.7416  0.2325
 5975TIP3    H139340   1.687   2.840   4.590  0.6674 -1.0544  0.1183
 5975TIP3    H239341   1.661   2.724   4.497 -0.1686 -0.7433 -0.0440
 5976TIP3   OH239342   4.606   1.152  15.999  0.3479  0.2483 -0.1495
 5976TIP3    H139343   4.549   1.207  16.052 -1.3583 -0.4734 -1.1474
 5976TIP3    H239344   4.556   1.135  15.920  1.9630 -0.4595 -1.0797
 5977TIP3   OH239345   2.956   4.141   2.759 -0.3569  0.2550 -0.4303
 5977TIP3    H139346   3.033   4.098   2.795 -0.4878  1.2959  1.1910
 5977TIP3    H239347   2.894   4.070   2.743  0.1596 -0.3754  0.2776
 5978TIP3   OH239348   2.208   1.699  11.924 -0.3127 -0.2175  0.2605
 5978TIP3    H139349   2.195   1.794  11.923 -1.2419 -0.3299  0.7238
 5978TIP3    H239350   2.131   1.664  11.879 -0.4713 -0.8024  0.9797
 5979TIP3   OH239351   0.786   4.461   1.150  0.1912 -0.6921 -0.0905
 5979TIP3    H139352   0.877   4.490   1.149 -0.3724  1.2462 -1.9238
 5979TIP3    H239353   0.771   4.424   1.063 -1.1026  0.2362 -0.2992
 5980TIP3   OH239354   6.039   1.202   5.899  0.1333  0.0537 -0.1834
 5980TIP3    H139355   6.027   1.107   5.905 -0.7762  0.1735  0.0905
 5980TIP3    H239356   5.956   1.239   5.931  0.2164  0.9266 -0.9087
 5981TIP3   OH239357   3.823   3.303  12.109 -0.2270  0.0979  0.4330
 5981TIP3    H139358   3.733   3.335  12.102  0.2270  1.7421  1.5583
 5981TIP3    H239359   3.868   3.342  12.035 -0.3240 -0.3568  0.1294
 5982TIP3   OH239360   0.913   1.555  16.685  0.1655 -0.7497  0.3526
 5982TIP3    H139361   0.869   1.640  16.685  0.9793 -0.3168 -0.2090
 5982TIP3    H239362   0.876   1.509  16.609  0.0992 -0.6967  0.3532
 5983TIP3   OH239363   2.539   0.119  12.705 -0.1113  0.0309 -0.0234
 5983TIP3    H139364   2.451   0.080  12.708  0.5843 -1.5819  0.2766
 5983TIP3    H239365   2.528   0.196  12.648 -1.4623 -0.8271 -1.0091
 5984TIP3   OH239366   1.143   1.063   0.228 -0.2131  0.0944  0.5827
 5984TIP3    H139367   1.095   1.061   0.310 -0.0791 -0.7304  0.6539
 5984TIP3    H239368   1.104   0.993   0.176 -0.6128  0.9128 -0.2474
 5985TIP3   OH239369   0.752   0.915   1.897 -0.2231  0.0885 -0.2554
 5985TIP3    H139370   0.687   0.851   1.868 -0.1950 -0.5502  1.0282
 5985TIP3    H239371   0.701   0.977   1.950  0.2386 -0.6235  1.0705
 5986TIP3   OH239372   1.628   5.953  14.553  0.0637  0.3742 -0.4104
 5986TIP3    H139373   1.655   6.042  14.529  1.5276  0.1775  0.4055
 5986TIP3    H239374   1.706   5.900  14.539 -0.4326 -0.5662  0.2859
 5987TIP3   OH239375   0.588   4.486  14.738 -0.1192  0.6089  0.6225
 5987TIP3    H139376   0.599   4.404  14.690  0.4477  0.5711  0.8078
 5987TIP3    H239377   0.639   4.550  14.688 -0.5550  0.8494  0.4818
 5988TIP3   OH239378   5.092   6.529   2.714  0.1688  0.0928 -0.2004
 5988TIP3    H139379   5.044   6.447   2.730  0.3457  0.0769  0.2798
 5988TIP3    H239380   5.047   6.569   2.640 -1.0669  0.4473  0.7153
 5989TIP3   OH239381   2.806   0.800   4.181  0.3583  0.5664  0.2880
 5989TIP3    H139382   2.855   0.740   4.125 -2.0092 -0.6318 -0.6796
 5989TIP3    H239383   2.775   0.745   4.253  1.0548  1.4696  1.2942
 5990TIP3   OH239384   0.068   1.282  13.048 -0.1612 -0.3874  0.2030
 5990TIP3    H139385   0.055   1.376  13.062 -0.2704 -0.3455 -0.1657
 5990TIP3    H239386  -0.017   1.250  13.020 -0.4827 -0.8604  1.6415
 5991TIP3   OH239387   3.905   3.289  15.023 -0.6251  0.3738  0.0058
 5991TIP3    H139388   3.917   3.381  14.998  1.2623 -0.1133 -1.0368
 5991TIP3    H239389   3.860   3.250  14.948 -2.4074  0.6241  0.8895
 5992TIP3   OH239390   4.045   5.489  13.950 -0.5210 -0.2714  0.1825
 5992TIP3    H139391   4.099   5.484  14.029 -0.0513  0.0581 -0.1122
 5992TIP3    H239392   3.976   5.425  13.965 -0.1411 -0.5904  0.6361
 5993TIP3   OH239393   0.826   6.284   0.294 -0.3485  0.5849 -0.1065
 5993TIP3    H139394   0.788   6.350   0.352 -1.8395  0.9043 -1.3738
 5993TIP3    H239395   0.873   6.225   0.352 -1.7817  0.8963  1.4505
 5994TIP3   OH239396   3.504   0.768   1.432 -1.0113  0.8786 -0.4750
 5994TIP3    H139397   3.429   0.722   1.470 -0.8415 -0.0648 -1.2349
 5994TIP3    H239398   3.499   0.748   1.339  0.0659  0.9808 -0.5650
 5995TIP3   OH239399   5.502   1.503  16.710  0.0606 -0.4182  0.0113
 5995TIP3    H139400   5.451   1.492  16.630 -3.3099  2.7933  1.4276
 5995TIP3    H239401   5.568   1.569  16.687 -1.1631  0.8073 -0.1098
 5996TIP3   OH239402   6.706   4.493   1.174  0.4753  0.0894  0.1111
 5996TIP3    H139403   6.617   4.464   1.197  0.2705 -0.3696 -1.1885
 5996TIP3    H239404   6.762   4.450   1.239 -0.2038 -0.0351  0.6306
 5997TIP3   OH239405   5.419   1.501  15.191  0.2652  0.0122 -0.3447
 5997TIP3    H139406   5.363   1.446  15.246 -1.3125 -0.0744 -1.9633
 5997TIP3    H239407   5.396   1.477  15.101  0.8584  1.9967 -1.0854
 5998TIP3   OH239408   2.168   2.067   2.506  0.5500 -0.1786  0.0426
 5998TIP3    H139409   2.084   2.102   2.534  0.8538  0.7043 -0.1145
 5998TIP3    H239410   2.157   1.972   2.509 -0.0214 -0.0904  1.3100
 5999TIP3   OH239411   1.031   3.400   4.526  0.1991 -0.1128 -0.1910
 5999TIP3    H139412   1.007   3.479   4.573  1.7092  0.4025 -0.2477
 5999TIP3    H239413   1.063   3.341   4.594  1.1652  0.1546 -0.4070
 6000TIP3   OH239414   2.842   2.429   1.189  0.7032 -0.0923  0.1889
 6000TIP3    H139415   2.791   2.406   1.111 -0.6960  2.7163  0.1294
 6000TIP3    H239416   2.926   2.459   1.154  0.2818  0.6337 -0.2376
 6001TIP3   OH239417   6.576   0.673  17.565 -0.3342  0.8930  0.4964
 6001TIP3    H139418   6.644   0.739  17.551 -1.1749  1.4358 -1.3791
 6001TIP3    H239419   6.506   0.720  17.609 -0.4013  0.9272  0.3549
 6002TIP3   OH239420   3.505   6.510   0.321  0.3898  0.3843  0.5138
 6002TIP3    H139421   3.549   6.574   0.378 -0.4460  2.7303 -1.3343
 6002TIP3    H239422   3.574   6.478   0.264  0.8759 -0.6689  1.6440
 6003TIP3   OH239423   4.808   4.380  15.496  0.3613 -0.5611  0.1414
 6003TIP3    H139424   4.756   4.385  15.576  0.5205  0.1100  0.2016
 6003TIP3    H239425   4.748   4.343  15.431 -0.7669  1.7600 -0.2455
 6004TIP3   OH239426   1.026   5.029  16.321 -0.5060 -0.1695  0.1456
 6004TIP3    H139427   1.116   5.016  16.352 -0.6202  0.8521  0.9522
 6004TIP3    H239428   0.990   4.941  16.315  0.1607 -0.5192  0.9991
 6005TIP3   OH239429   5.929   4.751  11.816  0.2268 -0.4249 -0.3057
 6005TIP3    H139430   5.910   4.688  11.746 -0.2414 -0.5785 -0.0412
 6005TIP3    H239431   5.862   4.819  11.806  1.1050  0.3634 -0.9827
 6006TIP3   OH239432   3.520   1.565  16.754 -0.1447 -0.2948 -0.1305
 6006TIP3    H139433   3.590   1.547  16.691 -0.7954  0.5480 -1.1264
 6006TIP3    H239434   3.440   1.540  16.709 -0.5339 -0.9240  0.8701
 6007TIP3   OH239435   0.541   3.844   2.549  0.0114 -0.0614 -0.0993
 6007TIP3    H139436   0.606   3.913   2.563  1.1328 -1.0640 -0.1828
 6007TIP3    H239437   0.591   3.763   2.556 -1.3669 -0.8938  0.4887
 6008TIP3   OH239438   1.515   0.764  14.589  0.6252 -0.4629 -0.1544
 6008TIP3    H139439   1.577   0.836  14.596  2.0260 -1.2354 -2.9422
 6008TIP3    H239440   1.458   0.789  14.516 -0.0762 -1.3566  0.0686
 6009TIP3   OH239441   0.566   0.984   2.809 -0.0016  0.0327 -0.1369
 6009TIP3    H139442   0.547   1.065   2.761  1.7412  0.5176 -0.0697
 6009TIP3    H239443   0.496   0.979   2.874 -0.8695  0.7907 -0.9584
 6010TIP3   OH239444   3.924   1.644  16.363  0.0431  0.1704 -0.4751
 6010TIP3    H139445   3.992   1.712  16.368 -1.4097  1.6085  0.6636
 6010TIP3    H239446   3.973   1.562  16.350  1.8708  1.3609 -1.5019
 6011TIP3   OH239447   0.071   3.262   3.225 -0.1505  0.2335 -0.3700
 6011TIP3    H139448   0.044   3.262   3.133  0.0348  0.5663 -0.4264
 6011TIP3    H239449   0.104   3.174   3.240  0.8063  0.4817 -0.9221
 6012TIP3   OH239450   1.874   2.021  17.040 -0.4980 -0.3155  0.0393
 6012TIP3    H139451   1.784   2.022  17.071 -1.2443 -1.2242 -1.9373
 6012TIP3    H239452   1.868   2.041  16.947  0.9458 -3.5169 -0.8943
 6013TIP3   OH239453   6.198   1.167   1.920 -0.5328 -0.2383 -0.3165
 6013TIP3    H139454   6.231   1.221   1.992 -0.0898 -0.1060 -0.6094
 6013TIP3    H239455   6.198   1.078   1.954 -0.7654 -0.1183 -0.0015
 6014TIP3   OH239456   3.978   2.353  11.468  0.0393  0.0504  0.0448
 6014TIP3    H139457   3.883   2.341  11.462  0.2953 -1.6482 -0.9947
 6014TIP3    H239458   4.004   2.299  11.542  0.1719  0.7989  0.5564
 6015TIP3   OH239459   4.356   4.775   2.329 -0.1182  0.2614  0.1251
 6015TIP3    H139460   4.387   4.824   2.405 -1.0205 -0.5930  1.0705
 6015TIP3    H239461   4.275   4.734   2.359  0.3146 -1.3268 -0.8226
 6016TIP3   OH239462   1.695   1.900   4.442  0.5895 -0.2292 -0.0742
 6016TIP3    H139463   1.694   1.994   4.461  1.5777 -0.0285 -0.9314
 6016TIP3    H239464   1.658   1.894   4.353 -0.8360 -0.8115  0.5222
 6017TIP3   OH239465   4.373   2.462  16.363  0.0928  0.2428 -0.0770
 6017TIP3    H139466   4.386   2.368  16.375  1.6774  0.4847  0.3868
 6017TIP3    H239467   4.279   2.476  16.376  0.2025 -0.8993  2.4905
 6018TIP3   OH239468   6.400   3.882   2.609  0.2822  0.2295 -0.8421
 6018TIP3    H139469   6.433   3.793   2.597  1.8585  0.3256  1.9774
 6018TIP3    H239470   6.329   3.874   2.672  0.6752  0.9902 -0.2789
 6019TIP3   OH239471   0.243   0.888   1.717 -0.0421  0.7494 -0.4930
 6019TIP3    H139472   0.205   0.813   1.671 -0.4581  1.4286 -1.2678
 6019TIP3    H239473   0.180   0.906   1.787  0.0125  0.4397 -0.3605
 6020TIP3   OH239474   1.386   2.644   0.672  0.1844 -0.2527 -0.1671
 6020TIP3    H139475   1.478   2.621   0.662 -0.1281 -0.4639 -3.4899
 6020TIP3    H239476   1.339   2.561   0.663 -0.4384  0.2109 -1.4323
 6021TIP3   OH239477   0.863   5.544   1.363 -0.3278  0.8363  0.3891
 6021TIP3    H139478   0.914   5.613   1.405  0.2308  1.3856 -1.1269
 6021TIP3    H239479   0.773   5.579   1.360 -0.5353  0.4820  1.7343
 6022TIP3   OH239480   3.603   5.759   3.917 -0.3339  0.5241 -0.2206
 6022TIP3    H139481   3.619   5.829   3.853 -2.4192 -0.1157 -1.5468
 6022TIP3    H239482   3.566   5.687   3.866 -1.1099 -0.4098  1.5422
 6023TIP3   OH239483   0.640   6.556   0.337 -0.0889 -0.3786  0.0186
 6023TIP3    H139484   0.579   6.484   0.353 -0.0147 -1.4701 -3.6406
 6023TIP3    H239485   0.588   6.635   0.353 -0.8489 -1.1801  1.8982
 6024TIP3   OH239486   2.954   1.504  14.808  0.9797  0.0642 -0.9272
 6024TIP3    H139487   3.048   1.489  14.799  1.4625  1.3776  1.2355
 6024TIP3    H239488   2.938   1.499  14.902 -0.7924  1.5685 -1.1030
 6025TIP3   OH239489   5.391   4.123   0.375  0.1089 -0.4505 -0.5957
 6025TIP3    H139490   5.401   4.161   0.463  2.0725 -4.6017  1.2541
 6025TIP3    H239491   5.298   4.100   0.369 -0.0197 -0.2500  0.4849
 6026TIP3   OH239492   6.632   0.727  11.045  0.1684 -0.2407 -0.2942
 6026TIP3    H139493   6.630   0.641  11.086 -1.8357  0.3202  0.9860
 6026TIP3    H239494   6.574   0.719  10.969 -0.8967  0.1838  0.4342
 6027TIP3   OH239495   2.608   5.414   5.433 -0.6869 -0.1741  0.2703
 6027TIP3    H139496   2.577   5.371   5.513  1.3922 -1.5469  0.4087
 6027TIP3    H239497   2.584   5.354   5.362 -1.2303  0.3354  0.0185
 6028TIP3   OH239498   1.191   1.787  15.875 -0.3337  0.8120  0.0682
 6028TIP3    H139499   1.267   1.767  15.820  0.2342  0.4863  0.9494
 6028TIP3    H239500   1.219   1.860  15.930 -0.5363  0.4716  0.6362
 6029TIP3   OH239501   0.455   4.372   5.125  0.5585  0.0344 -0.1655
 6029TIP3    H139502   0.428   4.364   5.216  0.5530  1.2952 -0.0456
 6029TIP3    H239503   0.532   4.430   5.128  1.6754 -1.3486 -0.7773
 6030TIP3   OH239504   1.747   6.293   4.209 -0.0692  0.0794 -0.7037
 6030TIP3    H139505   1.767   6.336   4.292 -0.4164  0.1746 -0.6692
 6030TIP3    H239506   1.748   6.200   4.229 -1.8606  0.1369 -0.1919
 6031TIP3   OH239507   0.702   6.059  16.046  0.3013  0.1729 -0.2418
 6031TIP3    H139508   0.769   6.067  16.114  1.5715 -1.4527 -1.2254
 6031TIP3    H239509   0.718   6.134  15.988 -0.2366  1.0724  0.7335
 6032TIP3   OH239510   6.530   4.372   2.797 -0.8321 -0.1867 -0.0353
 6032TIP3    H139511   6.496   4.297   2.748 -1.2079  0.2799 -0.5030
 6032TIP3    H239512   6.493   4.448   2.752  1.2700  0.3799 -0.9536
 6033TIP3   OH239513   6.380   0.844  12.888  0.2220 -0.5569 -0.3165
 6033TIP3    H139514   6.461   0.833  12.938  0.6780  0.1467 -0.8879
 6033TIP3    H239515   6.386   0.933  12.852 -1.3828  0.0075  0.6895
 6034TIP3   OH239516   1.733   6.428   2.584  0.1087 -0.2176 -0.2454
 6034TIP3    H139517   1.754   6.505   2.532 -1.2391 -0.0480 -0.5746
 6034TIP3    H239518   1.751   6.354   2.527 -0.3585 -0.0651 -0.6018
 6035TIP3   OH239519   4.033   3.957   2.862  0.0687  0.3765 -0.3397
 6035TIP3    H139520   4.100   3.920   2.919 -0.1568  0.5748  0.0548
 6035TIP3    H239521   4.010   3.885   2.802 -0.6571 -0.2625  0.6723
 6036TIP3   OH239522   5.738   2.730   3.269 -0.2991  0.2295  0.2208
 6036TIP3    H139523   5.717   2.761   3.181 -0.8768 -2.0892 -0.5097
 6036TIP3    H239524   5.661   2.751   3.322 -0.4531  0.5277 -0.1215
 6037TIP3   OH239525   2.920   0.889  16.697 -0.2385  0.2521 -0.4359
 6037TIP3    H139526   2.874   0.954  16.644 -1.7100 -1.2684 -1.1196
 6037TIP3    H239527   2.860   0.869  16.769  1.2518  1.4220  1.2091
 6038TIP3   OH239528   4.033   2.061   1.150 -0.2970 -0.3594  0.0241
 6038TIP3    H139529   3.987   1.977   1.153 -0.6238 -0.1553  0.8525
 6038TIP3    H239530   4.093   2.059   1.225 -3.3468  1.8463  2.7701
 6039TIP3   OH239531   2.790   2.371  15.293 -0.2177  0.8755  0.0949
 6039TIP3    H139532   2.785   2.401  15.202  3.0228  0.4225 -0.3731
 6039TIP3    H239533   2.703   2.336  15.312 -0.5115 -0.7336 -3.4756
 6040TIP3   OH239534   2.226   2.069   2.852  0.1182 -0.5301  0.8653
 6040TIP3    H139535   2.152   2.123   2.821 -0.9165 -1.8456  0.9693
 6040TIP3    H239536   2.255   2.021   2.775  0.3829 -0.5784  0.9929
 6041TIP3   OH239537   1.259   4.462  15.527 -0.5118  0.2433 -0.9113
 6041TIP3    H139538   1.234   4.547  15.490 -1.2272  1.2618  1.6495
 6041TIP3    H239539   1.354   4.467  15.537 -0.5885  0.9133 -0.4446
 6042TIP3   OH239540   1.165   6.515  12.165 -0.3821 -0.0438 -0.3016
 6042TIP3    H139541   1.173   6.425  12.196 -0.9024  0.4036  1.1916
 6042TIP3    H239542   1.250   6.534  12.126 -0.1081 -1.0123 -0.2169
 6043TIP3   OH239543   0.201   1.538   3.351  0.2921 -0.4255  0.4386
 6043TIP3    H139544   0.108   1.559   3.344 -0.0473 -1.2565  2.0442
 6043TIP3    H239545   0.245   1.621   3.335 -0.7820  0.3054  1.1551
 6044TIP3   OH239546   5.723   1.981   0.343 -0.2487  0.2049 -0.1490
 6044TIP3    H139547   5.707   1.962   0.251 -1.3876 -2.7869  0.5645
 6044TIP3    H239548   5.733   2.077   0.346  1.1830  0.2842 -3.4980
 6045TIP3   OH239549   2.469   4.278   0.807  0.1299 -0.2124  0.6420
 6045TIP3    H139550   2.484   4.189   0.840  1.5967 -1.0916 -2.0851
 6045TIP3    H239551   2.393   4.270   0.750 -0.6606  0.6552  1.5430
 6046TIP3   OH239552   5.776   2.512   2.591 -0.3397  0.0450  0.0143
 6046TIP3    H139553   5.831   2.584   2.558  3.2166 -3.8697 -4.0049
 6046TIP3    H239554   5.808   2.496   2.679  0.4229  1.8644  0.1151
 6047TIP3   OH239555   2.280   0.029  12.765  0.2416 -0.1273  0.3398
 6047TIP3    H139556   2.199   0.008  12.718  0.0605 -0.9792  1.0072
 6047TIP3    H239557   2.250   0.075  12.844  0.5365  1.2181 -0.3052
 6048TIP3   OH239558   1.474   5.987  13.225 -0.0789  0.1123 -0.7849
 6048TIP3    H139559   1.445   5.920  13.163  0.0005  0.3228 -1.0504
 6048TIP3    H239560   1.564   6.007  13.198  0.6163 -1.1036  0.5066
 6049TIP3   OH239561   4.130   4.177  13.348  0.7002 -0.2008  0.2842
 6049TIP3    H139562   4.218   4.185  13.385  1.5149  0.3493 -1.6580
 6049TIP3    H239563   4.134   4.098  13.293  0.1290  0.1079 -0.2149
 6050TIP3   OH239564   2.727   3.959  12.276  0.4127  0.5067  0.1228
 6050TIP3    H139565   2.715   3.869  12.248 -1.9344  0.9158 -0.4452
 6050TIP3    H239566   2.679   4.011  12.212  1.2822  2.1287  0.7190
 6051TIP3   OH239567   5.163   6.076  12.502 -0.0056  0.3113 -0.4381
 6051TIP3    H139568   5.072   6.096  12.481  0.7314  2.4972 -1.8136
 6051TIP3    H239569   5.172   6.100  12.594 -1.0666 -1.0231  0.0471
 6052TIP3   OH239570   3.240   2.886   4.263  0.3124 -0.0155 -0.2145
 6052TIP3    H139571   3.267   2.976   4.242 -0.8311  0.1582 -1.0170
 6052TIP3    H239572   3.270   2.834   4.188  1.2170 -0.3733  0.3744
 6053TIP3   OH239573   2.038   5.306   5.660 -0.1224  0.1874  0.5265
 6053TIP3    H139574   1.995   5.264   5.734  0.8308 -1.2936  0.3079
 6053TIP3    H239575   2.132   5.294   5.677  0.1319  0.6727 -0.4320
 6054TIP3   OH239576   2.911   6.030   6.401  0.2423 -0.4042 -0.5830
 6054TIP3    H139577   2.900   6.124   6.415  1.5101 -0.3420  0.1634
 6054TIP3    H239578   2.844   6.007   6.336 -1.0976  0.6970  0.3691
 6055TIP3   OH239579   5.347   0.152   3.274 -0.7792 -0.6709  0.6795
 6055TIP3    H139580   5.328   0.075   3.328  0.1630 -1.1202  0.3980
 6055TIP3    H239581   5.264   0.173   3.232 -0.4992 -3.3588 -1.5378
 6056TIP3   OH239582   1.995   1.797  13.239 -0.6403 -0.0846 -0.2720
 6056TIP3    H139583   2.031   1.862  13.178  0.9051 -1.6845 -1.1645
 6056TIP3    H239584   2.072   1.761  13.284 -1.5257 -0.8087  0.7071
 6057TIP3   OH239585   0.056   3.398  17.345 -0.3112 -0.2233 -0.2755
 6057TIP3    H139586   0.118   3.333  17.379 -0.3260  0.3059  0.8124
 6057TIP3    H239587   0.097   3.482  17.366 -0.6599  0.1200 -0.9697
 6058TIP3   OH239588   0.390   0.622  14.711 -0.3337  0.9424 -0.4126
 6058TIP3    H139589   0.399   0.652  14.801  2.2148  0.6506 -0.4852
 6058TIP3    H239590   0.477   0.589  14.688 -1.1056  0.3189 -2.7420
 6059TIP3   OH239591   1.719   5.141   6.376 -0.1436 -0.2732 -0.5091
 6059TIP3    H139592   1.637   5.167   6.334  0.1923  1.1249 -0.3719
 6059TIP3    H239593   1.769   5.098   6.307 -0.1843  0.7165 -1.1856
 6060TIP3   OH239594   3.455   2.024   3.894  0.9545  0.0484 -0.2370
 6060TIP3    H139595   3.474   2.101   3.947  0.5492 -0.7696  1.1412
 6060TIP3    H239596   3.382   2.052   3.838 -0.7680  0.0230  1.8671
 6061TIP3   OH239597   3.829   4.646  13.207  0.0127  0.1680  0.6337
 6061TIP3    H139598   3.849   4.660  13.114 -0.4901 -1.1848  0.3054
 6061TIP3    H239599   3.852   4.555  13.223 -0.0888  0.3393  1.7982
 6062TIP3   OH239600   5.623   2.434  11.995  0.0150 -0.1072  0.5042
 6062TIP3    H139601   5.562   2.382  12.049 -0.3610  0.5549  0.7246
 6062TIP3    H239602   5.697   2.450  12.053 -1.5063  2.9035  1.8617
 6063TIP3   OH239603   4.455   6.623   2.567  0.3658 -0.3259  0.0530
 6063TIP3    H139604   4.360   6.627   2.564  0.3485  0.6393  1.1343
 6063TIP3    H239605   4.484   6.700   2.518  0.5166  0.5657  1.4652
 6064TIP3   OH239606   0.130   4.439   4.708 -0.0212 -0.3506 -0.1699
 6064TIP3    H139607   0.101   4.356   4.746 -1.0024 -0.0105 -0.1577
 6064TIP3    H239608   0.162   4.489   4.783  2.3103 -1.3853 -0.4019
 6065TIP3   OH239609   6.379   2.469  12.861  0.1549 -0.0343 -0.2864
 6065TIP3    H139610   6.339   2.556  12.857  1.7688  1.0473  3.1340
 6065TIP3    H239611   6.450   2.472  12.797 -0.3019  0.8790 -0.7763
 6066TIP3   OH239612   5.667   2.317   4.240 -0.1896  0.5178 -0.5216
 6066TIP3    H139613   5.762   2.321   4.233 -0.2464  2.0450 -0.8903
 6066TIP3    H239614   5.641   2.407   4.264 -1.4482 -0.1426  0.7838
 6067TIP3   OH239615   2.794   5.197  17.510 -0.2361 -0.6649  0.1603
 6067TIP3    H139616   2.845   5.131  17.463 -1.2048 -1.7671  0.6145
 6067TIP3    H239617   2.780   5.267  17.446  1.4938 -0.4807 -0.0864
 6068TIP3   OH239618   1.696   1.662   5.665  0.0308 -0.7530 -0.0705
 6068TIP3    H139619   1.763   1.613   5.713 -1.5928 -3.6170 -0.4522
 6068TIP3    H239620   1.666   1.600   5.598  0.6094  2.2582 -3.3995
 6069TIP3   OH239621   0.617   6.134   0.191  0.3434 -0.2852  0.1182
 6069TIP3    H139622   0.647   6.083   0.116 -2.0348 -0.8898 -0.4994
 6069TIP3    H239623   0.695   6.183   0.218  2.2481 -2.7398 -0.4488
 6070TIP3   OH239624   3.392   2.158   4.673 -0.3351 -0.0251  0.0563
 6070TIP3    H139625   3.452   2.226   4.703 -0.0408 -0.3441  0.1858
 6070TIP3    H239626   3.306   2.185   4.708 -0.2997  0.5069 -0.2552
 6071TIP3   OH239627   6.369   6.232  12.970  0.2914  0.3843 -0.2221
 6071TIP3    H139628   6.461   6.233  12.943 -0.3239  2.8705 -2.7768
 6071TIP3    H239629   6.321   6.256  12.890 -2.5040  0.1444  1.2714
 6072TIP3   OH239630   2.137   4.656   6.042  0.0878  0.1703 -0.6117
 6072TIP3    H139631   2.177   4.631   6.125 -0.9928  1.0314  0.1943
 6072TIP3    H239632   2.060   4.600   6.034 -0.0582  0.3924 -0.8077
 6073TIP3   OH239633   2.630   2.782  16.332 -0.3508 -0.1024 -0.0446
 6073TIP3    H139634   2.667   2.846  16.271  1.3005 -0.8614  0.1125
 6073TIP3    H239635   2.674   2.800  16.415 -0.7984 -0.6524  0.3141
 6074TIP3   OH239636   6.583   4.350   5.225 -0.0339 -0.1283 -0.5326
 6074TIP3    H139637   6.573   4.391   5.140 -0.1738  1.6043  0.2719
 6074TIP3    H239638   6.673   4.369   5.251  0.4988 -1.9616 -0.9167
 6075TIP3   OH239639   1.357   0.404   2.755 -0.5268 -0.0532  0.9136
 6075TIP3    H139640   1.271   0.388   2.794 -1.3626 -1.5012 -1.3499
 6075TIP3    H239641   1.402   0.320   2.761 -0.5618 -0.2302 -0.8370
 6076TIP3   OH239642   0.842   0.616  16.616 -0.3984 -0.2641 -0.4019
 6076TIP3    H139643   0.783   0.689  16.597 -0.4971 -0.2266  0.0534
 6076TIP3    H239644   0.787   0.538  16.609 -0.6567 -0.1880  0.6454
 6077TIP3   OH239645   1.736   2.857   1.073  0.1831  0.2929  0.0444
 6077TIP3    H139646   1.767   2.903   1.151  0.2655  1.1714 -0.4890
 6077TIP3    H239647   1.671   2.915   1.035 -1.7981 -1.2865  0.8548
 6078TIP3   OH239648   1.223   4.046  13.783 -0.1725  0.0727 -0.1644
 6078TIP3    H139649   1.302   4.059  13.730 -0.2576 -0.9342 -0.5624
 6078TIP3    H239650   1.257   4.016  13.867 -0.1228 -0.3201 -0.3211
 6079TIP3   OH239651   2.717   0.690   4.435 -0.1459  0.1734 -0.0007
 6079TIP3    H139652   2.779   0.737   4.490  0.7080 -1.2205  0.2581
 6079TIP3    H239653   2.709   0.604   4.476 -0.7684 -0.3202 -1.1287
 6080TIP3   OH239654   4.862   1.342  15.504  0.3769 -0.0282 -0.4503
 6080TIP3    H139655   4.957   1.333  15.512  0.6135  2.5615  0.8306
 6080TIP3    H239656   4.828   1.254  15.517  2.6317 -1.3944 -2.8805
 6081TIP3   OH239657   4.588   4.006  15.952  0.6626 -0.3166 -0.0368
 6081TIP3    H139658   4.509   3.981  16.000 -0.3371  0.5023 -1.1903
 6081TIP3    H239659   4.558   4.026  15.864  1.7626  2.2038  0.0582
 6082TIP3   OH239660   1.585   0.686  12.892  0.5736  0.2955  0.7268
 6082TIP3    H139661   1.609   0.641  12.811  0.2982 -0.1546  0.8961
 6082TIP3    H239662   1.655   0.750  12.905 -1.0869  2.9218 -1.8102
 6083TIP3   OH239663   4.254   5.403  16.862  0.1523  0.0431  0.3777
 6083TIP3    H139664   4.177   5.394  16.805 -0.1241  0.7318  0.6311
 6083TIP3    H239665   4.256   5.496  16.885  1.4625  0.1743 -0.1807
 6084TIP3   OH239666   6.311   2.183   5.777 -0.3820  0.7008 -0.0127
 6084TIP3    H139667   6.326   2.091   5.756  2.0995  0.7316  1.3078
 6084TIP3    H239668   6.330   2.190   5.870  0.6009  2.7482 -0.3177
 6085TIP3   OH239669   2.081   2.548   0.204  0.8095  0.6999 -0.2744
 6085TIP3    H139670   2.174   2.564   0.223  1.1863  1.8716 -2.6729
 6085TIP3    H239671   2.040   2.634   0.212 -0.1068  0.1786  0.8162
 6086TIP3   OH239672   6.023   2.375   3.587  0.1177 -0.2398 -0.1311
 6086TIP3    H139673   5.966   2.311   3.544 -1.4372  0.2507  1.1062
 6086TIP3    H239674   6.111   2.341   3.575 -0.6457 -2.5142  0.2866
 6087TIP3   OH239675   3.303   2.416  16.128  0.4072 -0.1644  0.0708
 6087TIP3    H139676   3.219   2.370  16.123  0.0514  0.3966  0.6551
 6087TIP3    H239677   3.352   2.368  16.195  0.4239 -0.2920 -0.0329
 6088TIP3   OH239678   6.190   4.960   0.737 -0.1705 -0.2609  0.1512
 6088TIP3    H139679   6.285   4.968   0.731 -0.1097 -0.5267  0.6657
 6088TIP3    H239680   6.159   4.963   0.647  0.1665  1.6952  0.0470
 6089TIP3   OH239681   3.885   6.448   1.496  0.1634 -0.1082  0.0646
 6089TIP3    H139682   3.881   6.528   1.548  0.4931 -0.1097  0.0939
 6089TIP3    H239683   3.932   6.385   1.551  0.3808 -0.1558 -0.1704
 6090TIP3   OH239684   0.736   4.075  16.030  0.3518  0.2726  0.3655
 6090TIP3    H139685   0.749   4.031  15.946 -0.4706  0.2570  0.2414
 6090TIP3    H239686   0.825   4.094  16.061  0.7345 -1.4669  0.4333
 6091TIP3   OH239687   0.922   2.043   1.092  0.6547  0.3604  0.0956
 6091TIP3    H139688   0.966   1.958   1.090  1.6610  0.8563  0.6215
 6091TIP3    H239689   0.973   2.097   1.032  0.6837  0.9003  0.6019
 6092TIP3   OH239690   1.610   1.118   4.119 -0.1827 -0.3107 -0.2727
 6092TIP3    H139691   1.657   1.194   4.085 -0.0753  0.0743  0.7020
 6092TIP3    H239692   1.537   1.106   4.059 -0.2900  0.6734 -0.3533
 6093TIP3   OH239693   3.715   1.882   3.473  0.0703 -0.9433  0.0451
 6093TIP3    H139694   3.744   1.874   3.564 -0.3680 -1.7242  0.1293
 6093TIP3    H239695   3.636   1.935   3.477  0.5635 -0.1919  0.0041
 6094TIP3   OH239696   0.136   2.751  13.281  0.5559  0.3268 -0.4561
 6094TIP3    H139697   0.215   2.722  13.325  0.9468  2.0858  0.1076
 6094TIP3    H239698   0.072   2.681  13.296  2.1992 -1.5050 -1.6345
 6095TIP3   OH239699   3.064   0.077  14.445 -0.2738 -0.4145 -0.0799
 6095TIP3    H139700   2.976   0.115  14.454 -1.2590 -2.3894 -0.7981
 6095TIP3    H239701   3.076   0.066  14.351  1.0831  0.4769 -0.0405
 6096TIP3   OH239702   2.451   4.947   0.880 -0.1399  0.5486  0.0064
 6096TIP3    H139703   2.450   4.904   0.794  1.1337  0.3017  0.0924
 6096TIP3    H239704   2.426   5.038   0.862  0.4046  0.5704 -0.6748
 6097TIP3   OH239705   6.252   1.924  15.119  0.0724  0.1568  0.1173
 6097TIP3    H139706   6.168   1.910  15.076 -1.1710  0.7078  2.1935
 6097TIP3    H239707   6.255   1.858  15.189  2.0646 -0.8151 -0.8011
 6098TIP3   OH239708   6.360   0.766   2.815  0.1461  0.1589 -0.2584
 6098TIP3    H139709   6.421   0.763   2.740  1.0155 -0.2758  0.4492
 6098TIP3    H239710   6.289   0.707   2.790  1.0603 -0.9884 -0.2278
 6099TIP3   OH239711   3.222   1.138   4.062  0.1008 -0.4833 -0.4088
 6099TIP3    H139712   3.303   1.170   4.023  0.1332  1.2068  0.9421
 6099TIP3    H239713   3.197   1.063   4.007  1.7898 -0.1525 -1.7098
 6100TIP3   OH239714   0.247   5.172  11.710  0.4847 -0.2142  0.4626
 6100TIP3    H139715   0.298   5.248  11.737  1.9598 -0.6690 -0.8237
 6100TIP3    H239716   0.159   5.188  11.742  1.3525  0.7840  2.5018
 6101TIP3   OH239717   2.244   2.013  11.710 -0.1280 -0.1735  0.1188
 6101TIP3    H139718   2.182   1.994  11.780 -0.5849  0.4993 -0.0938
 6101TIP3    H239719   2.280   2.099  11.732  1.3884 -0.9260  0.7005
 6102TIP3   OH239720   4.710   1.956  14.584  0.3491 -0.1411 -0.3363
 6102TIP3    H139721   4.676   1.867  14.574  0.3450  0.1129 -3.6666
 6102TIP3    H239722   4.776   1.965  14.515  1.3336  2.0375  0.7784
 6103TIP3   OH239723   4.562   5.976   4.408  0.1622  0.2458 -0.9278
 6103TIP3    H139724   4.587   5.993   4.499 -1.8665  0.2106 -0.3022
 6103TIP3    H239725   4.585   6.056   4.361  0.3782  0.6295 -0.1757
 6104TIP3   OH239726   3.344   1.527   1.309  0.3889  0.5632  0.1933
 6104TIP3    H139727   3.404   1.454   1.329 -0.1830  0.0195 -0.0263
 6104TIP3    H239728   3.285   1.530   1.384 -0.2653  0.0844 -0.2917
 6105TIP3   OH239729   6.175   0.087  17.586 -0.5361  0.4766 -0.0814
 6105TIP3    H139730   6.259   0.071  17.542 -1.7212  0.6425 -2.5199
 6105TIP3    H239731   6.154   0.003  17.627  1.7413  0.9665  2.4364
 6106TIP3   OH239732   5.615   6.638   6.205  0.8309  0.2408 -0.2228
 6106TIP3    H139733   5.529   6.671   6.230  1.1674  1.2465 -0.3487
 6106TIP3    H239734   5.677   6.698   6.247  1.4697 -0.2432 -0.4444
 6107TIP3   OH239735   6.057   4.115   5.213 -0.2394 -0.4328  0.2726
 6107TIP3    H139736   6.112   4.114   5.135 -1.5421 -0.9799 -0.6854
 6107TIP3    H239737   6.117   4.102   5.285  0.9726 -0.1972 -0.6635
 6108TIP3   OH239738   0.122   5.343   5.058  0.0801 -0.2884  0.3159
 6108TIP3    H139739   0.157   5.325   5.145 -1.3445 -0.8659  0.7909
 6108TIP3    H239740   0.121   5.438   5.051  0.7163 -0.2485  0.7068
 6109TIP3   OH239741   6.301   0.810  11.158 -0.4574 -0.0085  0.4106
 6109TIP3    H139742   6.329   0.879  11.219  0.3042  0.1098 -0.0634
 6109TIP3    H239743   6.227   0.768  11.203 -0.3558  0.5212  1.1079
 6110TIP3   OH239744   1.955   2.060  13.393  0.2155 -0.0676 -0.1294
 6110TIP3    H139745   1.976   1.968  13.380 -0.1497 -0.2411  0.4664
 6110TIP3    H239746   1.888   2.060  13.462  2.5831  0.8267  2.3698
 6111TIP3   OH239747   4.294   2.401  12.335 -0.7738 -0.4520  0.1131
 6111TIP3    H139748   4.324   2.331  12.393  1.9142  0.3050 -0.2381
 6111TIP3    H239749   4.277   2.475  12.393  0.2021 -0.2253  0.1147
 6112TIP3   OH239750   6.033   0.713  15.770 -0.1117  0.2264  0.2001
 6112TIP3    H139751   5.988   0.752  15.846 -1.0583 -1.3301  0.4913
 6112TIP3    H239752   5.975   0.733  15.696 -2.0700 -2.8242  0.7574
 6113TIP3   OH239753   3.371   3.268  13.573  0.4102  0.1739 -0.2731
 6113TIP3    H139754   3.349   3.359  13.553  1.0754  0.7798  1.5024
 6113TIP3    H239755   3.464   3.269  13.593  0.5851 -1.0510 -0.8811
 6114TIP3   OH239756   5.198   1.125   0.428 -0.4023 -0.1946 -0.3052
 6114TIP3    H139757   5.170   1.172   0.506  2.1105 -0.7016  1.0099
 6114TIP3    H239758   5.130   1.059   0.414  0.0430 -1.4838  2.7850
 6115TIP3   OH239759   3.811   4.194  17.086  0.7188 -0.3409 -0.0169
 6115TIP3    H139760   3.898   4.188  17.128 -0.3302 -0.1607  2.3685
 6115TIP3    H239761   3.803   4.112  17.037  2.8849  0.3850 -1.7110
 6116TIP3   OH239762   5.821   1.555   4.880 -0.1256  0.6200 -0.0698
 6116TIP3    H139763   5.773   1.638   4.878  1.5532  1.7369  1.8697
 6116TIP3    H239764   5.845   1.543   4.972  2.4824 -0.3419 -0.7746
 6117TIP3   OH239765   2.829   1.833  14.172  0.0679 -0.3450 -0.2798
 6117TIP3    H139766   2.773   1.766  14.132  0.4948 -1.3133  0.6957
 6117TIP3    H239767   2.901   1.784  14.211 -0.1795  0.5685  1.4294
 6118TIP3   OH239768   5.772   3.062   2.734 -0.3240 -0.1071  0.2264
 6118TIP3    H139769   5.763   3.144   2.684  0.6523  0.9089  1.6135
 6118TIP3    H239770   5.850   3.020   2.696 -2.3814 -1.8916 -2.3763
 6119TIP3   OH239771   0.723   0.812   6.111 -0.4416 -0.5169 -0.0283
 6119TIP3    H139772   0.643   0.772   6.078 -0.8104  0.1870  0.0091
 6119TIP3    H239773   0.764   0.743   6.164 -1.1991 -0.7591  0.2492
 6120TIP3   OH239774   4.988   2.032  11.320 -0.0735  1.0483 -0.1988
 6120TIP3    H139775   5.041   2.017  11.399 -2.1024 -1.6847  0.8084
 6120TIP3    H239776   4.941   2.113  11.338 -1.1266  0.0759  1.8917
 6121TIP3   OH239777   5.743   4.893   2.219 -0.3517  0.5951  0.0579
 6121TIP3    H139778   5.790   4.824   2.266  0.4176  1.0704  0.0119
 6121TIP3    H239779   5.651   4.878   2.240 -0.2935 -1.0219 -0.7398
 6122TIP3   OH239780   3.773   1.692   5.803 -0.2769  0.0473 -0.4238
 6122TIP3    H139781   3.863   1.710   5.778  0.1513  0.5934  1.3437
 6122TIP3    H239782   3.720   1.721   5.728  1.0187 -0.8223 -1.7202
 6123TIP3   OH239783   2.066   5.036   0.051  0.5933  0.1443 -0.2234
 6123TIP3    H139784   2.158   5.020   0.029  0.9240  1.2102  0.2882
 6123TIP3    H239785   2.056   4.999   0.139  0.4389 -0.2784 -0.4185
 6124TIP3   OH239786   3.555   4.221   5.867  0.2380 -0.1927 -0.0883
 6124TIP3    H139787   3.508   4.300   5.894 -0.8290 -0.2885 -1.5239
 6124TIP3    H239788   3.586   4.182   5.948  2.5235  2.7109  0.5640
 6125TIP3   OH239789   3.485   4.492   0.135 -0.0355 -0.0418 -0.2007
 6125TIP3    H139790   3.405   4.443   0.117 -0.4554  0.3959  0.4406
 6125TIP3    H239791   3.484   4.563   0.072 -0.2031  0.0190 -0.1300
 6126TIP3   OH239792   0.298   3.486   7.101 -0.1051 -0.1484 -0.0616
 6126TIP3    H139793   0.245   3.565   7.090  1.3191  0.5860 -2.5710
 6126TIP3    H239794   0.388   3.516   7.094  0.5540 -1.7967  0.7262
 6127TIP3   OH239795   5.378   4.935  11.059  0.2069 -0.0150 -0.1913
 6127TIP3    H139796   5.343   4.848  11.078 -0.3480  0.0930 -0.6972
 6127TIP3    H239797   5.472   4.927  11.076  0.0155 -0.4356  0.7413
 6128TIP3   OH239798   5.363   4.016   4.103 -0.4687 -0.3255  0.2113
 6128TIP3    H139799   5.440   4.047   4.056 -1.3455  0.1277 -0.9761
 6128TIP3    H239800   5.312   3.969   4.036 -1.7617  0.3618  0.6918
 6129TIP3   OH239801   1.378   5.568  16.876 -0.7098  0.1339  0.0243
 6129TIP3    H139802   1.299   5.565  16.823 -1.0190  1.2938  0.3893
 6129TIP3    H239803   1.435   5.501  16.837 -1.1280  0.5789 -1.4391
 6130TIP3   OH239804   2.343   0.324  12.737 -0.6810  0.4790  0.0633
 6130TIP3    H139805   2.350   0.253  12.800 -1.4255  0.1859 -0.1794
 6130TIP3    H239806   2.411   0.386  12.764  0.8246 -0.8749 -0.4547
 6131TIP3   OH239807   3.310   0.178   4.461  0.1195 -0.8317  0.2594
 6131TIP3    H139808   3.394   0.211   4.430 -0.7963 -1.3273 -3.0842
 6131TIP3    H239809   3.331   0.099   4.511  1.5878 -1.8110 -1.8091
 6132TIP3   OH239810   0.967   4.389   4.711 -0.1430 -0.4399 -0.3045
 6132TIP3    H139811   0.927   4.351   4.633 -1.0131 -0.7287  0.2748
 6132TIP3    H239812   0.934   4.479   4.713  1.1694  0.1005 -1.1494
 6133TIP3   OH239813   1.190   4.541  12.026  0.0293  0.1481  0.2575
 6133TIP3    H139814   1.215   4.543  11.933  0.5034 -1.1605  0.3420
 6133TIP3    H239815   1.150   4.455  12.039  2.4911 -0.8582  1.8618
 6134TIP3   OH239816   5.305   2.675  15.517 -0.0197 -0.5480  0.5124
 6134TIP3    H139817   5.331   2.716  15.599  1.8628  0.2932 -0.4666
 6134TIP3    H239818   5.375   2.613  15.497 -0.8048 -1.2656 -0.1131
 6135TIP3   OH239819   0.955   1.545  11.505 -0.0358 -0.0217 -0.7207
 6135TIP3    H139820   0.868   1.568  11.473  0.3940  2.9140 -0.0464
 6135TIP3    H239821   0.990   1.485  11.439 -2.2594 -0.7209 -1.3530
 6136TIP3   OH239822   1.624   4.415   2.428 -0.0468 -0.1834  0.0078
 6136TIP3    H139823   1.538   4.374   2.432 -0.5089  0.8554  1.3014
 6136TIP3    H239824   1.669   4.385   2.507  0.1402  0.6272  0.2231
 6137TIP3   OH239825   3.083   2.703  16.542  0.6922 -0.2469  0.4209
 6137TIP3    H139826   3.043   2.634  16.489  1.5921  0.0731 -0.7263
 6137TIP3    H239827   3.104   2.772  16.479  1.1831  0.4352  1.3096
 6138TIP3   OH239828   5.252   5.812  14.713  0.7508  0.5580  0.4390
 6138TIP3    H139829   5.225   5.749  14.647  3.0922 -0.4989  0.3864
 6138TIP3    H239830   5.188   5.883  14.706 -1.2199 -1.1989 -0.3761
 6139TIP3   OH239831   4.243   5.025  13.629 -0.0882  0.1868 -0.1510
 6139TIP3    H139832   4.244   5.066  13.715 -1.7600 -0.5417  0.2521
 6139TIP3    H239833   4.190   4.946  13.641 -0.7300  0.3071 -1.9363
 6140TIP3   OH239834   2.532   1.425  13.022  0.5245  0.2040 -0.2890
 6140TIP3    H139835   2.621   1.442  12.991  0.5679  0.6545  0.0771
 6140TIP3    H239836   2.541   1.352  13.083  0.6587  0.3246 -0.1654
 6141TIP3   OH239837   0.129   4.222  11.910  0.2716  0.8911  0.8065
 6141TIP3    H139838   0.034   4.213  11.911  0.2667  0.9749  1.0259
 6141TIP3    H239839   0.150   4.249  11.820 -0.0260  2.2069  1.1233
 6142TIP3   OH239840   2.285   4.384   6.818 -0.3446  0.2657 -0.4829
 6142TIP3    H139841   2.346   4.424   6.756 -0.1612  0.0760 -0.4278
 6142TIP3    H239842   2.240   4.317   6.767 -1.7828  1.5713 -0.9981
 6143TIP3   OH239843   3.078   6.219   5.944  0.0085  0.1366 -0.1496
 6143TIP3    H139844   3.165   6.244   5.912 -0.2009  0.5346 -0.4201
 6143TIP3    H239845   3.044   6.159   5.877 -0.1251  0.3759 -0.2982
 6144TIP3   OH239846   4.992   5.827  13.077  0.1184 -0.5827 -0.7732
 6144TIP3    H139847   5.083   5.856  13.069  0.3492 -0.9341  0.4129
 6144TIP3    H239848   4.997   5.733  13.092 -0.2715 -0.2629  1.7778
 6145TIP3   OH239849   1.547   0.881  12.243  0.1536  0.0831 -0.5562
 6145TIP3    H139850   1.552   0.825  12.165  1.5560  1.1637 -1.2861
 6145TIP3    H239851   1.631   0.927  12.245  1.1804 -1.6197  2.9343
 6146TIP3   OH239852   6.155   0.934   5.521  0.3427  0.1620  0.7271
 6146TIP3    H139853   6.065   0.904   5.533  0.9107 -1.4835  1.1835
 6146TIP3    H239854   6.147   1.016   5.472 -1.3943  0.1104  0.8638
 6147TIP3   OH239855   5.077   6.124   4.396  0.1582 -0.2399 -0.8928
 6147TIP3    H139856   5.080   6.028   4.397 -1.0090 -0.3143  0.8046
 6147TIP3    H239857   5.080   6.149   4.489 -2.3896  1.2060 -1.1140
 6148TIP3   OH239858   2.749   2.075   5.059 -0.1355 -0.0567 -0.1978
 6148TIP3    H139859   2.667   2.123   5.045  0.1719  1.1143  1.7007
 6148TIP3    H239860   2.726   2.005   5.120  0.2233  0.1681  0.2037
 6149TIP3   OH239861   0.803   4.504   2.425 -0.1681 -0.0992 -0.0704
 6149TIP3    H139862   0.880   4.539   2.380 -0.2704 -0.2640 -0.3702
 6149TIP3    H239863   0.748   4.467   2.356  0.0572 -1.1019  0.2636
 6150TIP3   OH239864   1.637   2.551   2.136  0.7642 -0.4149  0.1512
 6150TIP3    H139865   1.727   2.522   2.121  0.5742  0.0605 -2.5356
 6150TIP3    H239866   1.593   2.535   2.052 -0.8217  2.2495  0.3567
 6151TIP3   OH239867   0.114   6.666  11.198  0.5789 -0.0899 -0.7192
 6151TIP3    H139868   0.135   6.605  11.127 -0.4881 -1.8338  0.3823
 6151TIP3    H239869   0.025   6.643  11.224  1.1888 -0.0506  1.6583
 6152TIP3   OH239870   6.555   6.542  11.971  0.7737 -0.2381 -0.3491
 6152TIP3    H139871   6.638   6.575  11.938  0.5603 -0.0581 -0.7088
 6152TIP3    H239872   6.571   6.525  12.064  1.0279  0.3897 -0.2786
 6153TIP3   OH239873   4.193   4.072  11.682  0.4071 -0.2240  0.3686
 6153TIP3    H139874   4.214   3.983  11.710  0.9328  0.5006  2.4835
 6153TIP3    H239875   4.229   4.078  11.593 -0.2355 -2.2945 -0.0868
 6154TIP3   OH239876   3.776   1.618  13.960  0.3749 -0.7830  0.5291
 6154TIP3    H139877   3.777   1.532  14.004 -0.3972 -1.2233 -0.2839
 6154TIP3    H239878   3.867   1.633  13.935  0.2188 -2.4427 -1.2950
 6155TIP3   OH239879   1.453   5.422   5.790 -0.7656 -0.2159 -0.3536
 6155TIP3    H139880   1.499   5.474   5.855 -0.0530 -0.0401 -0.9888
 6155TIP3    H239881   1.490   5.334   5.799  0.1912  0.0678 -1.3032
 6156TIP3   OH239882   4.053   2.239  11.715 -0.1729 -0.2644  0.4101
 6156TIP3    H139883   4.022   2.196  11.795 -1.2079 -1.1262 -0.4139
 6156TIP3    H239884   4.144   2.261  11.733 -0.4391 -0.2750  1.8902
 6157TIP3   OH239885   0.282   4.042  12.507  0.2706  0.6867 -0.2419
 6157TIP3    H139886   0.193   4.011  12.518  0.1095  0.8695 -0.9829
 6157TIP3    H239887   0.286   4.123  12.558  0.5172 -0.1770  1.1876
 6158TIP3   OH239888   2.627   0.260  12.263  0.2254 -0.5320 -0.6219
 6158TIP3    H139889   2.642   0.231  12.173  0.1320 -0.8557 -0.5334
 6158TIP3    H239890   2.714   0.280  12.297  0.4099 -1.7344 -0.3380
 6159TIP3   OH239891   3.105   0.734  15.140 -0.2326  0.2149  0.2087
 6159TIP3    H139892   3.147   0.667  15.194 -0.1735  0.0967  0.0161
 6159TIP3    H239893   3.177   0.786  15.106 -0.1981 -0.3355 -0.5838
 6160TIP3   OH239894   6.150   1.064   3.716 -0.6164 -0.0501  0.3340
 6160TIP3    H139895   6.220   1.078   3.781  0.4704 -1.5511 -0.4246
 6160TIP3    H239896   6.099   0.991   3.752 -0.6610 -0.1788  0.0117
 6161TIP3   OH239897   2.010   0.071  15.432 -0.0594  0.0181  0.4282
 6161TIP3    H139898   2.018  -0.018  15.398 -0.1777 -0.8071  2.4662
 6161TIP3    H239899   2.100   0.102  15.440  0.0672 -0.5451  1.2601
 6162TIP3   OH239900   1.273   6.707   0.706  0.7713  0.2292 -0.2922
 6162TIP3    H139901   1.223   6.663   0.637  0.6523  3.1761 -2.2398
 6162TIP3    H239902   1.268   6.647   0.781 -0.7103 -2.2379 -2.2061
 6163TIP3   OH239903   3.914   3.485  13.971  0.5261 -0.1918  0.5333
 6163TIP3    H139904   3.967   3.451  14.044  1.7032  0.5648  0.0757
 6163TIP3    H239905   3.927   3.580  13.976  0.4697 -0.1228 -0.5575
 6164TIP3   OH239906   1.897   0.949   3.962 -0.1314 -0.8102  0.3104
 6164TIP3    H139907   1.949   1.004   4.020 -1.3065 -0.1564  0.7659
 6164TIP3    H239908   1.931   0.967   3.874 -0.4520  0.5944  0.4639
 6165TIP3   OH239909   3.892   2.981   4.356 -0.2867  0.2609  0.3347
 6165TIP3    H139910   3.961   2.917   4.376 -0.8866 -0.9803 -1.3604
 6165TIP3    H239911   3.816   2.950   4.405  0.1421  1.3249  1.7640
 6166TIP3   OH239912   0.071   0.497  17.580  0.0892 -0.5545  0.3423
 6166TIP3    H139913   0.145   0.558  17.584  1.0790 -1.6544 -0.3934
 6166TIP3    H239914  -0.006   0.553  17.575  1.0258  0.6702 -1.3701
 6167TIP3   OH239915   0.987   3.841  15.235 -0.0651 -0.1388  0.2707
 6167TIP3    H139916   1.035   3.920  15.210  0.2002 -0.7535 -1.2872
 6167TIP3    H239917   0.983   3.790  15.154 -4.4331  0.4211 -0.0902
 6168TIP3   OH239918   2.153   0.545   6.197  0.6047 -0.3744  0.2982
 6168TIP3    H139919   2.125   0.505   6.280  0.9759  1.9639  1.6469
 6168TIP3    H239920   2.230   0.495   6.172  0.0653 -1.5977  0.9398
 6169TIP3   OH239921   6.202   3.829   3.765  0.3997  0.6357 -0.1561
 6169TIP3    H139922   6.267   3.769   3.728  0.8157  2.2899 -2.3025
 6169TIP3    H239923   6.251   3.881   3.829  0.0265 -1.2145  1.7476
 6170TIP3   OH239924   2.354   1.375  14.480  0.0465  0.5068 -0.0097
 6170TIP3    H139925   2.269   1.346  14.447 -0.7513  1.0743  1.4304
 6170TIP3    H239926   2.393   1.297  14.519  1.1511 -0.2582 -2.4113
 6171TIP3   OH239927   3.877   6.299   6.311 -0.1801  0.3826  0.2067
 6171TIP3    H139928   3.876   6.352   6.390  1.1664  1.8242 -0.6768
 6171TIP3    H239929   3.843   6.213   6.338  1.9900  0.2157  2.7789
 6172TIP3   OH239930   4.245   3.061   4.297  0.0363 -0.6578 -0.1275
 6172TIP3    H139931   4.182   3.127   4.268 -0.1945 -1.2718 -1.0510
 6172TIP3    H239932   4.328   3.108   4.300 -0.2191 -0.1870 -0.2507
 6173TIP3   OH239933   5.898   1.740   2.031  0.0788 -0.0360 -0.1756
 6173TIP3    H139934   5.838   1.786   2.090  0.1358  2.2665 -1.8271
 6173TIP3    H239935   5.882   1.778   1.945  1.5534 -1.7650 -1.2936
 6174TIP3   OH239936   1.151   0.916   1.197 -0.1335  0.6167  0.6286
 6174TIP3    H139937   1.212   0.885   1.130  2.5408  0.5244  2.8781
 6174TIP3    H239938   1.072   0.864   1.184  0.0247  0.9825 -2.6790
 6175TIP3   OH239939   2.560   5.959  12.143  0.1492 -0.3067 -0.2827
 6175TIP3    H139940   2.521   5.875  12.168  0.5091 -0.3657  0.0867
 6175TIP3    H239941   2.575   6.004  12.226  0.0334  0.0902 -0.4741
 6176TIP3   OH239942   1.162   2.218  12.627 -0.6324  0.2870  0.5118
 6176TIP3    H139943   1.257   2.225  12.628 -0.5898  1.0743 -1.9704
 6176TIP3    H239944   1.144   2.124  12.621  0.1888  0.2391 -2.7718
 6177TIP3   OH239945   1.710   1.729  12.924 -0.0206 -0.6594  0.7145
 6177TIP3    H139946   1.708   1.727  13.020 -1.7617  0.3536  0.7349
 6177TIP3    H239947   1.736   1.641  12.899  0.2302 -1.0059  2.1180
 6178TIP3   OH239948   4.275   0.498   0.299  0.2389 -0.0832 -0.0119
 6178TIP3    H139949   4.251   0.561   0.367 -0.5087  1.0733 -1.2888
 6178TIP3    H239950   4.246   0.413   0.333 -0.4562  0.5216  0.9532
 6179TIP3   OH239951   5.181   5.338   2.288  0.1824  0.0152  0.3116
 6179TIP3    H139952   5.162   5.268   2.351  1.2848 -1.4019 -0.8887
 6179TIP3    H239953   5.264   5.375   2.318 -0.4892  0.9897  1.0521
 6180TIP3   OH239954   1.530   6.315   1.488  0.3975  0.2420  0.3229
 6180TIP3    H139955   1.548   6.354   1.574  0.6450 -0.1177  0.4415
 6180TIP3    H239956   1.455   6.363   1.455 -0.1271 -0.0583  1.0439
 6181TIP3   OH239957   5.549   3.350   5.914  0.3855  0.0645 -0.0873
 6181TIP3    H139958   5.523   3.287   5.846  1.5852 -1.0237  0.4125
 6181TIP3    H239959   5.597   3.418   5.866  0.2569 -0.1163 -0.4780
 6182TIP3   OH239960   2.853   2.295  12.100  0.3875 -0.3324  0.2184
 6182TIP3    H139961   2.827   2.283  12.008  0.1787 -0.2769  0.2698
 6182TIP3    H239962   2.770   2.300  12.148  0.4769  0.6255  0.2833
 6183TIP3   OH239963   2.340   2.848   3.488 -0.5978 -0.5021  0.0224
 6183TIP3    H139964   2.284   2.883   3.557  0.8618  1.1129  0.4704
 6183TIP3    H239965   2.378   2.926   3.446  0.5411 -1.5067 -0.8966
 6184TIP3   OH239966   0.544   1.532   5.326  0.1435 -0.0106 -0.4063
 6184TIP3    H139967   0.464   1.487   5.355 -0.3816  1.1921  0.0988
 6184TIP3    H239968   0.554   1.506   5.234 -0.9601 -0.0165 -0.5380
 6185TIP3   OH239969   0.741   6.236   4.281 -0.0010  0.2004  0.1048
 6185TIP3    H139970   0.763   6.324   4.253 -2.3911  0.9733  0.3969
 6185TIP3    H239971   0.754   6.236   4.376 -0.2309  0.3243  0.1369
 6186TIP3   OH239972   1.377   0.989  13.904  0.7027 -0.0523 -0.4079
 6186TIP3    H139973   1.329   0.916  13.864 -0.2677 -0.1546  0.8824
 6186TIP3    H239974   1.317   1.023  13.970  2.0908  0.3793  0.6628
 6187TIP3   OH239975   1.845   1.547  16.012 -0.0834 -0.4816 -0.6222
 6187TIP3    H139976   1.919   1.486  16.008  0.0984 -0.3027 -0.0351
 6187TIP3    H239977   1.827   1.557  16.106  0.0780  0.5968 -0.6966
 6188TIP3   OH239978   4.000   3.322  15.291 -0.4542  0.3282  0.6664
 6188TIP3    H139979   3.955   3.316  15.207 -0.2846 -0.5500  0.6308
 6188TIP3    H239980   4.065   3.391  15.277 -0.6660  0.4409  0.1907
 6189TIP3   OH239981   5.652   3.617  13.195 -0.0763  0.3519  0.3644
 6189TIP3    H139982   5.666   3.589  13.105 -1.8578 -2.5271  0.8543
 6189TIP3    H239983   5.568   3.578  13.220  1.5157 -1.2290  4.0516
 6190TIP3   OH239984   0.758   3.778   5.150  0.1313 -0.0603 -0.1413
 6190TIP3    H139985   0.678   3.786   5.098  0.0707  0.5497  0.0345
 6190TIP3    H239986   0.788   3.689   5.134  0.6235  0.3865 -1.9407
 6191TIP3   OH239987   1.739   0.487   0.536 -0.5108  0.6370  0.0029
 6191TIP3    H139988   1.796   0.561   0.519  2.4650 -1.3451  0.5457
 6191TIP3    H239989   1.781   0.413   0.491 -1.1793 -1.4809  2.5801
 6192TIP3   OH239990   5.340   0.273  12.870  0.8683 -0.1319 -0.5033
 6192TIP3    H139991   5.275   0.338  12.845  2.2501  1.1115 -1.0542
 6192TIP3    H239992   5.366   0.232  12.788  2.3293  0.9513 -0.6376
 6193TIP3   OH239993   1.153   6.509   3.207  0.2520 -0.8174  0.2756
 6193TIP3    H139994   1.216   6.572   3.173 -0.3109  0.1266  0.9275
 6193TIP3    H239995   1.203   6.429   3.222  1.2142 -0.1944  0.4366
 6194TIP3   OH239996   2.213   0.709  14.652  0.3209  0.0821  0.7493
 6194TIP3    H139997   2.266   0.766  14.596 -0.3531  0.7031  0.7272
 6194TIP3    H239998   2.220   0.748  14.739  0.1976 -0.0465  0.8169
 6195TIP3   OH239999   5.101   4.527   5.021  0.2724 -0.1069 -0.2957
 6195TIP3    H140000   5.165   4.458   5.003  1.1985  1.0789 -1.7693
 6195TIP3    H240001   5.152   4.598   5.059 -0.5716  0.0321  0.6339
 6196TIP3   OH240002   0.670   1.314  11.402  0.2662  0.4668 -0.1729
 6196TIP3    H140003   0.614   1.313  11.324  0.1385  1.8024 -0.1250
 6196TIP3    H240004   0.701   1.405  11.407  0.5883  0.2926  1.1105
 6197TIP3   OH240005   3.409   1.472  11.422  0.2757  0.6467  0.8221
 6197TIP3    H140006   3.338   1.534  11.407  0.2818  1.0602  2.3069
 6197TIP3    H240007   3.366   1.393  11.454  0.3863  0.4107  0.3960
 6198TIP3   OH240008   5.626   4.587  14.105  0.4920  0.0673 -0.4042
 6198TIP3    H140009   5.685   4.660  14.087 -0.3028  0.5835 -1.0391
 6198TIP3    H240010   5.616   4.542  14.020 -0.0936  0.0519 -0.3352
 6199TIP3   OH240011   0.450   4.653  14.464  0.1557  0.1165 -0.0369
 6199TIP3    H140012   0.425   4.563  14.485 -0.5851  0.2110 -0.4790
 6199TIP3    H240013   0.522   4.645  14.401  0.4117 -0.1624  0.2903
 6200TIP3   OH240014   3.344   4.953   4.092  0.1658 -0.2704  0.2836
 6200TIP3    H140015   3.271   4.953   4.153 -0.0074  1.4914  0.1253
 6200TIP3    H240016   3.422   4.969   4.146  0.4187 -1.7978  0.4075
 6201TIP3   OH240017   3.482   1.669   0.145 -0.0270  0.1649  0.5600
 6201TIP3    H140018   3.483   1.761   0.118  2.7337  0.4723  1.4037
 6201TIP3    H240019   3.482   1.621   0.062 -1.2460  0.8944  0.1069
 6202TIP3   OH240020   6.514   3.885  14.436 -0.4454  0.0548 -0.1903
 6202TIP3    H140021   6.432   3.846  14.406 -0.8701  0.0835  0.8661
 6202TIP3    H240022   6.562   3.907  14.356 -1.0666 -0.8026 -0.8170
 6203TIP3   OH240023   0.068   5.449  12.865  0.1999  0.1202 -0.7140
 6203TIP3    H140024   0.025   5.449  12.780 -1.9791 -0.6865  0.3034
 6203TIP3    H240025  -0.002   5.463  12.928  1.5285 -0.6140  1.0440
 6204TIP3   OH240026   5.849   2.499  15.100 -0.1402  0.5221 -0.0307
 6204TIP3    H140027   5.761   2.506  15.136 -0.6720 -1.5413 -0.7750
 6204TIP3    H240028   5.907   2.523  15.173 -1.2766  1.7488  0.5136
 6205TIP3   OH240029   0.169   3.031  12.030  0.3331 -0.1317  0.4939
 6205TIP3    H140030   0.155   3.045  12.124 -1.2723 -0.4083  0.3314
 6205TIP3    H240031   0.110   2.960  12.008  1.1114 -0.4459 -0.6375
 6206TIP3   OH240032   0.930   0.125  14.636 -0.6557 -0.4470  0.1168
 6206TIP3    H140033   0.943   0.044  14.586  0.4205 -0.0491 -0.2645
 6206TIP3    H240034   0.973   0.109  14.720 -4.3352 -1.9545  1.9165
 6207TIP3   OH240035   3.008   1.154  13.830  0.0495 -0.4270 -0.3926
 6207TIP3    H140036   2.923   1.112  13.814  0.3776 -1.7594  1.0730
 6207TIP3    H240037   3.014   1.159  13.925  0.5779  1.9263 -0.4991
 6208TIP3   OH240038   0.302   4.881  16.834 -0.2922  0.2542  0.3426
 6208TIP3    H140039   0.311   4.802  16.886 -0.6678  0.1163  0.2020
 6208TIP3    H240040   0.210   4.906  16.843  0.2604  1.8847  2.1055
 6209TIP3   OH240041   3.055   0.072   1.155 -0.1401  0.3423  0.4195
 6209TIP3    H140042   3.128   0.110   1.203  0.4902 -0.7719  0.3884
 6209TIP3    H240043   3.088  -0.012   1.123 -1.6333 -0.4880  0.9587
 6210TIP3   OH240044   0.090   4.678  15.311  0.5169  0.2840  0.1152
 6210TIP3    H140045  -0.003   4.676  15.290  0.0105 -0.0027  2.1905
 6210TIP3    H240046   0.133   4.644  15.232 -1.0085  1.4812 -1.3041
 6211TIP3   OH240047   1.268   3.795   1.450  0.5550 -0.0324 -0.3857
 6211TIP3    H140048   1.254   3.720   1.392  1.4171  1.2932 -2.4285
 6211TIP3    H240049   1.184   3.806   1.495  0.4322 -2.2261  0.0335
 6212TIP3   OH240050   3.545   0.982  12.998  0.4070  0.0463 -0.8269
 6212TIP3    H140051   3.545   0.954  13.090 -1.7636 -0.5538 -0.9440
 6212TIP3    H240052   3.609   0.925  12.956  0.1309 -0.9275  0.0016
 6213TIP3   OH240053   0.013   5.039   5.661 -0.4502  0.3176  0.3009
 6213TIP3    H140054  -0.046   4.981   5.709  0.1047 -0.4321  0.0980
 6213TIP3    H240055   0.083   4.982   5.630 -1.0560  0.6529 -1.8808
 6214TIP3   OH240056   0.077   3.365   4.709  0.4715  0.8303  0.0660
 6214TIP3    H140057   0.028   3.309   4.648  1.8422 -2.0280  1.3755
 6214TIP3    H240058   0.011   3.420   4.751 -1.0066  0.0893 -1.1883
 6215TIP3   OH240059   1.732   2.925  16.184 -0.1922 -0.4986  0.1761
 6215TIP3    H140060   1.672   2.889  16.119 -2.0071 -0.4798  1.7438
 6215TIP3    H240061   1.692   2.903  16.269  1.7896 -0.0572  1.2982
 6216TIP3   OH240062   2.604   3.728  15.294  0.6533 -0.2396  0.4830
 6216TIP3    H140063   2.680   3.743  15.351 -0.9057  0.7070  2.4349
 6216TIP3    H240064   2.530   3.724  15.354 -0.7177 -2.6889 -1.2062
 6217TIP3   OH240065   5.780   2.522   5.806  0.1534 -0.3738 -0.3180
 6217TIP3    H140066   5.860   2.473   5.785 -0.8908 -2.4891  0.3788
 6217TIP3    H240067   5.770   2.511   5.901  0.6816  2.5631  0.1740
 6218TIP3   OH240068   4.019   2.085   3.689 -0.4884 -0.2152 -0.0719
 6218TIP3    H140069   3.937   2.050   3.726 -0.8016 -0.4944 -1.0112
 6218TIP3    H240070   4.000   2.177   3.673 -0.3856 -0.1170  0.3485
 6219TIP3   OH240071   0.438   1.086   0.664 -0.2217 -0.0246 -0.2336
 6219TIP3    H140072   0.404   1.147   0.730 -1.6166 -0.5522 -0.4203
 6219TIP3    H240073   0.453   1.005   0.712 -0.9593 -0.3224 -0.4951
 6220TIP3   OH240074   1.711   4.048   3.604  0.1240 -0.0771 -0.3940
 6220TIP3    H140075   1.640   4.112   3.594 -0.5549 -0.4825  1.3840
 6220TIP3    H240076   1.790   4.101   3.617 -0.6546  0.5391  2.5790
 6221TIP3   OH240077   0.770   3.739   4.173  0.6289  0.0999 -0.7216
 6221TIP3    H140078   0.787   3.671   4.238 -0.1293  0.3137 -0.2834
 6221TIP3    H240079   0.745   3.691   4.094 -2.8449 -0.2272  0.3734
 6222TIP3   OH240080   1.936   2.450   3.931 -0.5479 -0.1965 -0.3634
 6222TIP3    H140081   1.967   2.473   4.018 -1.0265  1.2892 -0.5589
 6222TIP3    H240082   1.993   2.499   3.871 -1.9547  1.0049 -0.7761
 6223TIP3   OH240083   5.679   0.818  13.897 -0.0506  0.0910 -0.3315
 6223TIP3    H140084   5.650   0.899  13.855  0.7405  0.7216  0.2928
 6223TIP3    H240085   5.648   0.826  13.988  0.2773 -0.1723 -0.1933
 6224TIP3   OH240086   1.784   1.496  11.985  0.3023  0.1247 -0.5104
 6224TIP3    H140087   1.811   1.520  12.074  1.8309 -1.4782 -0.4717
 6224TIP3    H240088   1.725   1.422  11.997  0.8290 -0.3578 -0.8156
 6225TIP3   OH240089   4.951   4.464   1.198 -0.3444 -0.1847  0.3351
 6225TIP3    H140090   5.035   4.424   1.173 -0.2811  0.6269 -0.8019
 6225TIP3    H240091   4.891   4.389   1.205 -0.1381 -0.5502 -1.4002
 6226TIP3   OH240092   3.720   0.307   3.294 -0.6195  0.2590  0.5750
 6226TIP3    H140093   3.767   0.317   3.377 -1.5953  0.1774  1.1447
 6226TIP3    H240094   3.645   0.253   3.316 -1.4337  1.0737 -0.1550
 6227TIP3   OH240095   3.118   2.188   4.297  0.0870  0.3698  0.0727
 6227TIP3    H140096   3.042   2.147   4.340  0.8720  0.3200  1.4442
 6227TIP3    H240097   3.138   2.264   4.351  1.3994  0.0274  0.0877
 6228TIP3   OH240098   0.649   0.371  13.296  0.2529  0.1023 -0.1787
 6228TIP3    H140099   0.648   0.439  13.364 -1.6982  0.4689 -0.5298
 6228TIP3    H240100   0.632   0.290  13.343 -0.0376  0.2151 -0.0842
 6229TIP3   OH240101   1.447   1.451  11.859 -0.2397  0.4580  0.2885
 6229TIP3    H140102   1.490   1.377  11.815 -0.9985  0.2438 -0.1121
 6229TIP3    H240103   1.499   1.465  11.938  0.5817  0.2227 -0.1888
 6230TIP3   OH240104   5.520   4.583   1.315  0.3313  0.2286  0.2334
 6230TIP3    H140105   5.438   4.535   1.323 -0.7822  1.6055 -1.8574
 6230TIP3    H240106   5.498   4.672   1.343  1.0181  0.6860 -0.6496
 6231TIP3   OH240107   6.362   5.598   4.895  0.3704 -0.4573  0.5554
 6231TIP3    H140108   6.399   5.632   4.977  0.7482 -1.6538  0.8923
 6231TIP3    H240109   6.407   5.515   4.881 -1.1681 -1.2652  0.2133
 6232TIP3   OH240110   3.216   0.110   4.925  0.5729 -0.3507 -0.0833
 6232TIP3    H140111   3.139   0.060   4.896  0.1258  0.3724 -0.1770
 6232TIP3    H240112   3.290   0.065   4.884  0.1327 -0.6162 -0.6138
 6233TIP3   OH240113   3.505   3.601   3.091 -0.4772  0.1759 -0.0033
 6233TIP3    H140114   3.568   3.673   3.093  0.5217 -0.6810  1.7915
 6233TIP3    H240115   3.495   3.575   3.182 -0.2461 -2.4078 -0.6211
 6234TIP3   OH240116   5.232   3.488  15.677 -0.2187  0.3062  0.0277
 6234TIP3    H140117   5.277   3.569  15.701 -0.3879  0.5801 -0.5611
 6234TIP3    H240118   5.297   3.438  15.628  0.5853 -0.8642  2.1539
 6235TIP3   OH240119   4.045   2.748  11.736 -0.0628 -0.2841  0.0992
 6235TIP3    H140120   3.984   2.675  11.724 -2.0885  1.1621  0.9444
 6235TIP3    H240121   4.002   2.823  11.694  1.4697  0.6595  0.1153
 6236TIP3   OH240122   1.976   5.691   1.215 -0.4903  0.4048  0.0283
 6236TIP3    H140123   2.031   5.618   1.242 -2.0507 -0.7442  0.2408
 6236TIP3    H240124   2.023   5.769   1.246 -0.0906 -0.6309  2.2566
 6237TIP3   OH240125   6.656   3.654  12.037 -0.7791  0.1916  0.5250
 6237TIP3    H140126   6.599   3.720  11.997  0.0073  1.3870  1.3226
 6237TIP3    H240127   6.601   3.575  12.043 -2.2542  1.2256  1.0217
 6238TIP3   OH240128   1.306   5.759  15.950 -0.0616  0.1153  0.3355
 6238TIP3    H140129   1.296   5.814  16.027 -0.9954  2.7890 -1.5451
 6238TIP3    H240130   1.392   5.782  15.915  0.5891 -1.4737  0.7764
 6239TIP3   OH240131   6.118   1.010  10.954  0.3866  0.2993 -0.6798
 6239TIP3    H140132   6.143   1.077  10.890  0.2218  0.2889 -0.7539
 6239TIP3    H240133   6.156   1.041  11.037 -0.4514  0.9392 -0.5226
 6240TIP3   OH240134   4.372   5.264   5.753 -0.0491 -0.0612 -0.4729
 6240TIP3    H140135   4.413   5.272   5.667 -2.1170 -0.6311 -1.5526
 6240TIP3    H240136   4.330   5.178   5.752 -0.7578  0.2408  0.8166
 6241TIP3   OH240137   6.683   1.107   2.357 -0.3770  0.4135  0.8218
 6241TIP3    H140138   6.609   1.159   2.325 -0.2081 -0.5479 -1.3671
 6241TIP3    H240139   6.745   1.171   2.390 -1.1202  1.4428  0.2858
 6242TIP3   OH240140   5.784   1.534   0.183 -0.0752 -0.4071  0.2288
 6242TIP3    H140141   5.758   1.446   0.155 -0.0124 -0.4370  0.2627
 6242TIP3    H240142   5.706   1.572   0.223 -0.2136 -0.3056 -0.1322
 6243TIP3   OH240143   1.444   2.105   2.930 -0.2260  0.0219  0.3290
 6243TIP3    H140144   1.456   2.113   3.025  0.5315  3.5656  0.0846
 6243TIP3    H240145   1.521   2.057   2.900  0.5187  0.5351  1.3432
 6244TIP3   OH240146   1.723   5.390   0.572  0.1400  0.7240 -0.2476
 6244TIP3    H140147   1.711   5.460   0.635  0.0028  2.2205 -1.8530
 6244TIP3    H240148   1.791   5.334   0.610 -1.1865  0.5503  2.0042
 6245TIP3   OH240149   5.570   4.616  16.494  0.5311  0.4413  0.3292
 6245TIP3    H140150   5.539   4.601  16.404 -1.8161 -0.5730  1.2372
 6245TIP3    H240151   5.623   4.539  16.514 -0.8146 -0.4648  0.5411
 6246TIP3   OH240152   1.563   0.797   1.179 -0.1290 -0.4682  0.1648
 6246TIP3    H140153   1.527   0.711   1.198 -0.8764 -0.7823 -2.3380
 6246TIP3    H240154   1.645   0.780   1.134  0.9932  0.2041  1.8729
 6247TIP3   OH240155   5.817   1.172   5.472  0.2389  0.7448  0.0136
 6247TIP3    H140156   5.760   1.248   5.461 -0.9804  0.0411  1.1301
 6247TIP3    H240157   5.905   1.205   5.455 -0.2836  2.3677  0.3036
 6248TIP3   OH240158   3.914   4.900   3.866 -0.3370  0.0479  0.3025
 6248TIP3    H140159   3.964   4.912   3.946  0.3475  0.0479 -0.1245
 6248TIP3    H240160   3.910   4.805   3.853 -1.5902 -0.0277  1.0438
 6249TIP3   OH240161   3.529   6.599   5.843  0.0754 -0.4726 -0.4574
 6249TIP3    H140162   3.537   6.562   5.931  2.0901  1.9674  0.5163
 6249TIP3    H240163   3.435   6.617   5.833 -0.0769  0.2349  1.7042
 6250TIP3   OH240164   4.622   1.602  14.895  0.0556  0.4567 -0.5863
 6250TIP3    H140165   4.647   1.603  14.803  1.1834  0.2962 -0.3064
 6250TIP3    H240166   4.704   1.586  14.941 -0.8291 -1.8994  0.3263
 6251TIP3   OH240167   3.805   2.471  17.540  0.6011  0.0320  0.7040
 6251TIP3    H140168   3.879   2.500  17.486 -1.2908  2.6450 -0.6724
 6251TIP3    H240169   3.812   2.524  17.620  0.6679 -0.3352  0.9451
 6252TIP3   OH240170   0.918   0.082  14.290  0.1242 -0.2373  0.5734
 6252TIP3    H140171   0.998   0.030  14.296 -0.4367 -1.0157  1.6344
 6252TIP3    H240172   0.873   0.050  14.212  0.9013  0.3164 -0.1220
 6253TIP3   OH240173   5.733   2.137   5.074  0.0759 -0.4699  0.0379
 6253TIP3    H140174   5.805   2.184   5.115 -0.5076 -0.8407  1.5509
 6253TIP3    H240175   5.733   2.051   5.117 -2.2929  0.0956  1.3070
 6254TIP3   OH240176   0.111   5.659  14.683  0.0493 -0.3996 -0.5399
 6254TIP3    H140177   0.150   5.586  14.635 -0.9485 -0.3319 -1.4824
 6254TIP3    H240178   0.027   5.625  14.714 -1.1269  0.7628 -2.2725
 6255TIP3   OH240179   2.457   2.263   5.428 -0.2431  0.1756  0.7333
 6255TIP3    H140180   2.539   2.287   5.472 -1.0978 -0.3968  2.7549
 6255TIP3    H240181   2.392   2.323   5.463 -0.7026  0.7451 -0.9968
 6256TIP3   OH240182   6.525   0.246   5.731  0.5909 -0.1687  0.4666
 6256TIP3    H140183   6.574   0.292   5.799  0.9980 -0.8850  0.6690
 6256TIP3    H240184   6.584   0.245   5.655  0.7353 -0.6749  0.5809
 6257TIP3   OH240185   0.015   3.790  16.689  0.6370 -0.2745  0.3395
 6257TIP3    H140186  -0.050   3.814  16.756  1.2482  1.3163  0.4243
 6257TIP3    H240187   0.061   3.716  16.727  0.2915 -0.0476  1.2496
 6258TIP3   OH240188   2.561   2.310  15.795 -0.5180  0.1652 -0.3464
 6258TIP3    H140189   2.488   2.300  15.734 -0.1762 -2.1998 -0.4639
 6258TIP3    H240190   2.543   2.246  15.865  2.3020 -1.9083 -1.3444
 6259TIP3   OH240191   3.603   1.743  12.966 -0.1100  0.6170  0.0302
 6259TIP3    H140192   3.582   1.787  13.049 -0.3734  3.3187 -1.3573
 6259TIP3    H240193   3.696   1.761  12.953  0.0859 -0.3631  0.0228
 6260TIP3   OH240194   4.587   0.546  11.479 -0.5088  0.1640 -0.1356
 6260TIP3    H140195   4.563   0.466  11.526 -0.9930 -1.3976 -2.8175
 6260TIP3    H240196   4.538   0.616  11.523  1.2693 -0.6143  3.3965
 6261TIP3   OH240197   1.482   2.010  15.121 -0.3074  0.3183 -0.4417
 6261TIP3    H140198   1.387   1.998  15.113 -0.5818  0.4394  1.8866
 6261TIP3    H240199   1.518   1.922  15.109 -0.9420 -0.1475  0.8253
 6262TIP3   OH240200   4.545   3.326   2.477 -0.2969 -0.2658  0.3277
 6262TIP3    H140201   4.631   3.364   2.460  0.4094 -1.8889  0.1018
 6262TIP3    H240202   4.564   3.238   2.508 -1.8304 -0.0492  2.0734
 6263TIP3   OH240203   1.722   2.352  17.090 -0.5045  0.3923  0.0327
 6263TIP3    H140204   1.808   2.392  17.106  0.0163 -1.2177  1.7201
 6263TIP3    H240205   1.693   2.324  17.177 -0.8349 -2.7538 -0.9585
 6264TIP3   OH240206   3.218   0.366  13.431  0.1880 -0.3671 -0.0584
 6264TIP3    H140207   3.271   0.354  13.510 -0.4316  0.4725  0.5066
 6264TIP3    H240208   3.143   0.418  13.460  0.1370  0.2826 -1.2885
 6265TIP3   OH240209   3.049   3.709  16.195  0.1842 -0.5496 -0.0608
 6265TIP3    H140210   3.017   3.641  16.136  0.5110 -1.0987  0.3777
 6265TIP3    H240211   3.132   3.738  16.157  0.3777 -0.8792  0.1030
 6266TIP3   OH240212   1.353   1.615   1.243 -0.3112 -0.2043  0.1674
 6266TIP3    H140213   1.338   1.550   1.312 -0.5798 -1.1062 -0.7347
 6266TIP3    H240214   1.322   1.574   1.163 -0.6895  1.1212 -0.3981
 6267TIP3   OH240215   1.396   2.802   2.069  0.2842 -0.3004  0.1377
 6267TIP3    H140216   1.481   2.789   2.110  0.6910 -1.6284 -1.0319
 6267TIP3    H240217   1.384   2.897   2.067  1.4311 -0.1192  0.9071
 6268TIP3   OH240218   3.344   0.405  16.243 -0.0706 -0.5299 -0.4768
 6268TIP3    H140219   3.401   0.433  16.315  0.8784  0.6320 -1.6293
 6268TIP3    H240220   3.255   0.420  16.276  0.2526 -1.9828  1.1962
 6269TIP3   OH240221   5.139   6.316  16.716  0.3487 -0.0596  0.0377
 6269TIP3    H140222   5.157   6.248  16.651  0.1764  2.0370 -2.3497
 6269TIP3    H240223   5.202   6.386  16.696 -0.0400  0.8791  1.8433
 6270TIP3   OH240224   0.198   2.392  17.304  0.1210  0.3170  0.3693
 6270TIP3    H140225   0.267   2.325  17.307 -0.3020 -0.1991 -0.8131
 6270TIP3    H240226   0.122   2.349  17.344  0.2677  0.6186  0.9751
 6271TIP3   OH240227   5.114   1.900   6.502 -0.2999 -0.1705 -0.1117
 6271TIP3    H140228   5.093   1.973   6.560  0.7224  1.9899 -2.2805
 6271TIP3    H240229   5.198   1.867   6.534  0.2519  0.9911 -0.3093
 6272TIP3   OH240230   0.665   5.011   1.745 -0.3423  0.0380 -0.5416
 6272TIP3    H140231   0.659   5.069   1.669 -1.7926  0.2730 -0.2706
 6272TIP3    H240232   0.750   5.032   1.784  1.1692 -1.1620 -2.9293
 6273TIP3   OH240233   3.106   6.279   1.808 -0.0448 -0.6911  0.6828
 6273TIP3    H140234   3.138   6.369   1.818 -0.1813 -0.7850  2.2136
 6273TIP3    H240235   3.096   6.247   1.898 -0.7224 -1.9877  0.1723
 6274TIP3   OH240236   0.863   3.251   3.465  0.1431 -0.1872 -0.0190
 6274TIP3    H140237   0.792   3.308   3.495  0.3294  0.8353 -1.3940
 6274TIP3    H240238   0.942   3.290   3.503  0.2057  0.1504 -0.4768
 6275TIP3   OH240239   4.999   5.948  17.245  0.2505  0.2724 -0.2677
 6275TIP3    H140240   5.030   5.859  17.263 -0.4999 -0.4427 -2.2802
 6275TIP3    H240241   4.937   5.967  17.316 -1.9242 -2.0482 -1.3964
 6276TIP3   OH240242   4.607   6.090  17.172 -0.2731  0.0077 -0.7486
 6276TIP3    H140243   4.701   6.092  17.153 -0.5705 -0.1501 -2.3895
 6276TIP3    H240244   4.565   6.100  17.087 -1.8220  3.4802  0.2429
 6277TIP3   OH240245   6.355   2.513  16.559  0.1222 -0.0805  0.2630
 6277TIP3    H140246   6.437   2.514  16.509  0.3182 -3.0365  0.3151
 6277TIP3    H240247   6.382   2.525  16.649  0.2142  1.2589  0.0699
 6278TIP3   OH240248   5.558   0.112  12.919 -0.3639  0.4004 -0.1101
 6278TIP3    H140249   5.590   0.190  12.873  0.1591  0.4353  0.3024
 6278TIP3    H240250   5.466   0.130  12.936  0.3355  2.1988  2.4578
 6279TIP3   OH240251   3.984   4.170   0.362 -0.6727 -1.0568  0.2352
 6279TIP3    H140252   3.996   4.202   0.272 -2.9200 -0.8612 -0.0530
 6279TIP3    H240253   4.030   4.234   0.416 -0.6164 -0.2978 -0.6788
 6280TIP3   OH240254   3.365   2.085   3.319  0.0058 -0.4794  0.1433
 6280TIP3    H140255   3.425   2.143   3.366 -0.5750 -0.2513  0.6239
 6280TIP3    H240256   3.401   2.078   3.231  0.8987 -0.5910  0.5105
 6281TIP3   OH240257   1.997   2.279   0.187 -0.0528  0.0985  0.4376
 6281TIP3    H140258   2.024   2.371   0.195 -0.2426  0.2764 -0.6971
 6281TIP3    H240259   2.075   2.229   0.210  0.5675  0.5795 -0.5436
 6282TIP3   OH240260   3.660   1.075  16.902  0.3669 -0.0318  0.2061
 6282TIP3    H140261   3.726   1.006  16.907  0.3925 -0.0394 -0.1950
 6282TIP3    H240262   3.699   1.142  16.845  1.2413  1.3195  2.2884
 6283TIP3   OH240263   1.754   5.122   0.710 -0.6130 -0.7527  0.4083
 6283TIP3    H140264   1.668   5.158   0.730 -1.2219 -2.2873  0.6619
 6283TIP3    H240265   1.769   5.057   0.779  0.7754 -0.4705  0.3924
 6284TIP3   OH240266   2.490   1.008  16.935  0.1518  0.6194  0.3418
 6284TIP3    H140267   2.576   1.034  16.970  0.0855 -1.9432  2.7924
 6284TIP3    H240268   2.427   1.061  16.984  0.1781 -1.3594  2.7026
 6285TIP3   OH240269   6.017   6.398  17.286  0.3871  0.0490 -0.8313
 6285TIP3    H140270   5.943   6.346  17.256  0.2256  0.1588 -0.6194
 6285TIP3    H240271   6.094   6.344  17.268  0.1605 -0.6141  0.1654
 6286TIP3   OH240272   2.031   1.881   3.121 -0.2459 -0.0094 -0.0613
 6286TIP3    H140273   2.127   1.882   3.123 -0.2481 -0.3420  2.1342
 6286TIP3    H240274   2.010   1.826   3.045  1.3087 -0.4874 -0.1818
 6287TIP3   OH240275   4.729   0.754  12.936 -0.5144  0.1632  0.8247
 6287TIP3    H140276   4.751   0.846  12.954 -0.1189 -0.0355  1.4057
 6287TIP3    H240277   4.805   0.705  12.968  0.0557 -0.2554 -1.0571
 6288TIP3   OH240278   4.654   6.423   3.529  0.1936 -0.1916  0.5926
 6288TIP3    H140279   4.742   6.421   3.491 -0.0307 -0.2574  0.0679
 6288TIP3    H240280   4.616   6.338   3.505 -0.5020  0.3708 -0.3623
 6289TIP3   OH240281   2.521   6.419  16.491  0.1006  0.3694 -0.0442
 6289TIP3    H140282   2.428   6.396  16.490  0.1710  0.0597  0.3710
 6289TIP3    H240283   2.523   6.509  16.525  0.0519 -0.1341  1.3527
 6290TIP3   OH240284   6.185   2.960   6.710 -0.6611 -0.1150 -0.3158
 6290TIP3    H140285   6.234   3.034   6.674 -1.2869 -0.0485 -1.0426
 6290TIP3    H240286   6.145   2.995   6.790 -1.3394  0.4830 -0.9022
 6291TIP3   OH240287   1.402   6.292  13.662 -0.0861 -0.7563 -0.1418
 6291TIP3    H140288   1.376   6.253  13.578  1.3327 -2.3571  0.0944
 6291TIP3    H240289   1.439   6.377  13.638 -2.4228  0.1460 -0.7831
 6292TIP3   OH240290   1.754   0.315   2.732  0.2960 -0.1476  0.5340
 6292TIP3    H140291   1.659   0.307   2.736  0.2739 -0.2379 -0.0653
 6292TIP3    H240292   1.779   0.353   2.816 -0.5401  2.4915 -0.3246
 6293TIP3   OH240293   4.435   3.883  12.227  0.2977  0.4520 -0.4663
 6293TIP3    H140294   4.424   3.881  12.131 -0.3273 -0.0300 -0.3899
 6293TIP3    H240295   4.500   3.953  12.242  0.0069  0.8974 -1.2019
 6294TIP3   OH240296   2.792   6.509  13.513  0.0731 -0.0783 -0.0163
 6294TIP3    H140297   2.801   6.415  13.530 -0.2330  0.1786  1.7483
 6294TIP3    H240298   2.697   6.525  13.516  0.0241  0.1008 -1.5825
 6295TIP3   OH240299   5.052   4.251   1.449  0.3762  0.2202 -0.1854
 6295TIP3    H140300   5.004   4.207   1.378 -0.8263 -0.7130  1.1483
 6295TIP3    H240301   5.065   4.340   1.417 -0.8683  0.0554 -1.2467
 6296TIP3   OH240302   3.936   2.027   5.485  0.6394  0.5107 -0.4247
 6296TIP3    H140303   4.029   2.039   5.507  1.1945 -0.5293 -1.9644
 6296TIP3    H240304   3.915   2.100   5.427  0.3971  0.9108  0.1590
 6297TIP3   OH240305   4.413   5.318  12.911  1.2366  0.3296 -0.5195
 6297TIP3    H140306   4.394   5.399  12.865  0.0731  0.7209  0.5799
 6297TIP3    H240307   4.368   5.250  12.860  0.9033  0.6016 -0.5899
 6298TIP3   OH240308   1.599   5.953   4.218 -0.5623 -0.1541  0.0010
 6298TIP3    H140309   1.560   5.866   4.210  0.2280 -0.4900 -0.2914
 6298TIP3    H240310   1.635   5.956   4.306  0.2580 -0.4934 -0.3117
 6299TIP3   OH240311   0.336   4.181   6.497  0.6430 -0.1063  0.0782
 6299TIP3    H140312   0.306   4.184   6.406  0.3691  0.9322  0.1843
 6299TIP3    H240313   0.273   4.124   6.542  0.6677 -0.4648 -0.3461
 6300TIP3   OH240314   0.312   3.960  11.803 -0.3989  0.0510  0.2912
 6300TIP3    H140315   0.310   4.025  11.873  0.4534  0.1312  0.2553
 6300TIP3    H240316   0.329   4.010  11.724 -1.6473 -0.0069 -0.0280
 6301TIP3   OH240317   6.705   3.650  15.975  0.4719  0.1447  0.0173
 6301TIP3    H140318   6.735   3.733  16.011 -1.7706  0.9067  0.2942
 6301TIP3    H240319   6.610   3.659  15.971  0.3326 -1.5320 -2.1397
 6302TIP3   OH240320   2.785   1.559   4.645 -0.0955 -0.0605 -0.3374
 6302TIP3    H140321   2.792   1.489   4.579  2.1096 -0.0496 -0.2157
 6302TIP3    H240322   2.861   1.615   4.628 -0.7454  1.2289  0.7995
 6303TIP3   OH240323   4.035   1.537   4.359  0.5576  0.8303  0.1263
 6303TIP3    H140324   4.113   1.593   4.364  0.3819  0.9720  1.5200
 6303TIP3    H240325   3.982   1.563   4.434  0.7732 -1.6719  1.2327
 6304TIP3   OH240326   1.763   4.968  11.693 -0.1607 -0.4158 -0.4481
 6304TIP3    H140327   1.760   4.987  11.786  1.4952  2.3249 -0.8449
 6304TIP3    H240328   1.811   4.885  11.686  1.6334  0.4335  1.0689
 6305TIP3   OH240329   1.922   6.694   2.882 -0.0184  0.2473  0.1655
 6305TIP3    H140330   1.926   6.604   2.849  2.4724 -0.1254  1.2601
 6305TIP3    H240331   1.961   6.690   2.969  0.0422  2.3773  0.3015
 6306TIP3   OH240332   1.512   6.272  12.088 -0.1599  0.3242 -0.4983
 6306TIP3    H140333   1.571   6.225  12.147 -0.1946  1.5169  0.5260
 6306TIP3    H240334   1.566   6.342  12.051  0.6795 -1.9692 -4.1155
 6307TIP3   OH240335   0.350   1.095  13.984  0.0211 -0.8562 -0.1189
 6307TIP3    H140336   0.335   1.003  14.006 -1.0411 -0.7360 -0.3056
 6307TIP3    H240337   0.344   1.099  13.889  1.0094 -0.7396 -0.1935
 6308TIP3   OH240338   0.800   6.597  15.486  0.3433 -0.3088  0.4610
 6308TIP3    H140339   0.861   6.662  15.452 -0.7492  1.0471  1.0107
 6308TIP3    H240340   0.768   6.551  15.408  0.7610  0.1430  0.0215
 6309TIP3   OH240341   5.005   5.547  11.538  0.5156  0.0760  0.0222
 6309TIP3    H140342   5.004   5.512  11.627  1.9061 -2.3214 -0.8264
 6309TIP3    H240343   5.081   5.605  11.535  0.1839  0.5410  0.5077
 6310TIP3   OH240344   5.899   0.784  12.807  0.6619 -0.5250 -0.3591
 6310TIP3    H140345   5.988   0.771  12.774 -0.4362 -2.6620 -2.8208
 6310TIP3    H240346   5.898   0.738  12.891  2.3997  1.4522  0.8498
 6311TIP3   OH240347   6.638   1.020   3.912 -0.1351  0.1132  0.0446
 6311TIP3    H140348   6.653   1.078   3.987  0.2206  1.1813 -0.8250
 6311TIP3    H240349   6.562   1.058   3.868  2.0117  1.9638 -2.3693
 6312TIP3   OH240350   6.082   0.826  11.639  0.3060 -0.2749  0.1019
 6312TIP3    H140351   6.125   0.906  11.671  0.2891  0.4992 -1.6763
 6312TIP3    H240352   6.021   0.802  11.708  0.1062  1.4334  0.5652
 6313TIP3   OH240353   0.031   3.422  15.820  0.2434 -0.4965  0.5191
 6313TIP3    H140354   0.018   3.480  15.895 -0.5559  0.4174 -0.3056
 6313TIP3    H240355   0.090   3.353  15.853 -2.2572 -1.7325  2.8677
 6314TIP3   OH240356   6.490   2.791   4.706 -0.2555  0.3961 -0.1364
 6314TIP3    H140357   6.464   2.701   4.723  0.1607  0.5855  1.8128
 6314TIP3    H240358   6.516   2.792   4.614 -0.3953 -1.4384 -0.2369
 6315TIP3   OH240359   2.015   3.120  12.481 -0.3155 -0.2362  0.1761
 6315TIP3    H140360   2.099   3.088  12.514 -0.0071 -1.1558 -1.4018
 6315TIP3    H240361   1.970   3.042  12.449 -0.3711  0.6079 -2.0089
 6316TIP3   OH240362   2.015   2.020   0.799  0.4280  0.0501 -0.5407
 6316TIP3    H140363   1.987   2.111   0.805 -0.4232 -0.2124 -0.4129
 6316TIP3    H240364   2.090   2.022   0.740  0.1881  0.7859 -0.8368
 6317TIP3   OH240365   0.784   2.834   3.372 -0.1436  0.1232 -0.6417
 6317TIP3    H140366   0.861   2.884   3.399  0.4738 -0.5553 -1.0884
 6317TIP3    H240367   0.717   2.900   3.356 -0.2201  0.6130  1.4795
 6318TIP3   OH240368   3.597   5.377  13.987 -0.4598  0.2495  0.0228
 6318TIP3    H140369   3.587   5.414  13.900 -1.2904 -0.7243 -0.3080
 6318TIP3    H240370   3.553   5.439  14.045 -1.6431 -0.0739 -0.4971
 6319TIP3   OH240371   3.068   1.336   5.589 -0.7824 -0.0659 -0.1471
 6319TIP3    H140372   3.108   1.382   5.663 -0.9033 -0.2811  0.0517
 6319TIP3    H240373   3.099   1.384   5.512 -1.1329  0.5250  0.0730
 6320TIP3   OH240374   0.915   3.211  15.953  0.0313 -0.0038  0.2756
 6320TIP3    H140375   1.003   3.203  15.991 -0.0554  3.4512  1.5174
 6320TIP3    H240376   0.856   3.182  16.022  0.0920  0.6517  0.6048
 6321TIP3   OH240377   4.909   3.907  17.588  0.2853  0.2086  0.6107
 6321TIP3    H140378   4.989   3.938  17.631  0.8799 -1.4072  0.7175
 6321TIP3    H240379   4.847   3.895  17.659  0.7963 -1.0442  0.8562
 6322TIP3   OH240380   2.395   5.654  12.803 -0.0032  0.3573  0.2875
 6322TIP3    H140381   2.483   5.678  12.776  0.0329  0.0207  0.1038
 6322TIP3    H240382   2.353   5.620  12.724  0.2811 -1.1279  0.7403
 6323TIP3   OH240383   3.192   2.678  14.275 -0.3488 -0.6807 -0.1253
 6323TIP3    H140384   3.211   2.603  14.220 -1.2397 -1.3927  0.5015
 6323TIP3    H240385   3.197   2.644  14.364 -0.9044 -0.0440  0.1599
 6324TIP3   OH240386   5.816   3.926   2.731  0.1896  0.1889 -0.0301
 6324TIP3    H140387   5.739   3.921   2.674 -1.4017 -0.4700  2.0881
 6324TIP3    H240388   5.886   3.885   2.679 -1.3056 -0.8450 -1.3355
 6325TIP3   OH240389   5.783   2.711  13.533  0.3499 -0.2809 -0.9951
 6325TIP3    H140390   5.804   2.702  13.440 -0.2695  1.3154 -1.3252
 6325TIP3    H240391   5.704   2.659  13.545 -0.5649  0.8795 -1.7770
 6326TIP3   OH240392   0.316   2.694  11.695 -0.4178 -0.1552  0.2376
 6326TIP3    H140393   0.396   2.722  11.740 -1.0079 -0.7267  1.6955
 6326TIP3    H240394   0.245   2.731  11.746 -1.1577 -2.1237  0.7364
 6327TIP3   OH240395   6.274   3.170   2.837 -0.4876 -0.0107 -0.0944
 6327TIP3    H140396   6.260   3.168   2.742 -0.8767  4.0025 -0.2786
 6327TIP3    H240397   6.226   3.094   2.870 -0.4772 -1.4270 -3.0488
 6328TIP3   OH240398   5.106   1.406   3.894  0.5280 -0.3989 -0.5762
 6328TIP3    H140399   5.159   1.355   3.955  1.8242  1.8365  0.2617
 6328TIP3    H240400   5.169   1.444   3.833  0.0115  2.3863  0.4790
 6329TIP3   OH240401   1.271   4.558  11.535 -0.4835 -0.4738  0.1721
 6329TIP3    H140402   1.201   4.524  11.480 -1.8958  0.7087  1.1358
 6329TIP3    H240403   1.297   4.484  11.589 -0.4146 -1.1403 -0.7527
 6330TIP3   OH240404   2.766   4.265   6.439 -0.2921  0.4134 -0.4188
 6330TIP3    H140405   2.774   4.244   6.532  1.2294  0.7142 -0.4463
 6330TIP3    H240406   2.675   4.247   6.417 -0.7849  0.7873  1.2333
 6331TIP3   OH240407   3.655   6.545  13.342 -0.2010 -0.4313  0.2729
 6331TIP3    H140408   3.610   6.518  13.422  1.1068 -0.8037  0.9164
 6331TIP3    H240409   3.596   6.609  13.301 -1.2221 -0.7893  1.1439
 6332TIP3   OH240410   4.668   1.493   0.370 -0.0310  0.4160  0.0505
 6332TIP3    H140411   4.684   1.400   0.352 -0.5398  0.2402  0.4965
 6332TIP3    H240412   4.618   1.493   0.451 -2.5400  0.9231 -1.3812
 6333TIP3   OH240413   0.783   3.736  13.520 -0.6720  0.7422  0.1234
 6333TIP3    H140414   0.713   3.777  13.572 -1.3561 -0.4825  0.1912
 6333TIP3    H240415   0.741   3.662  13.478  1.2683 -2.1567  2.8431
 6334TIP3   OH240416   1.709   1.227   5.925  0.3064  0.2581 -0.2166
 6334TIP3    H140417   1.688   1.316   5.898  1.5348  0.1059 -1.8900
 6334TIP3    H240418   1.707   1.176   5.843  1.2449 -0.8863  0.4329
 6335TIP3   OH240419   1.496   4.194   5.569 -0.0105 -0.2042 -0.0678
 6335TIP3    H140420   1.435   4.188   5.642 -1.0875 -0.0865 -0.9353
 6335TIP3    H240421   1.472   4.122   5.511  1.7118 -1.1415  0.3087
 6336TIP3   OH240422   6.119   2.730  17.222  0.4594  0.0426 -0.0777
 6336TIP3    H140423   6.055   2.785  17.176  0.0801  1.9128  2.4655
 6336TIP3    H240424   6.067   2.675  17.280  1.0255 -0.4863 -0.0584
 6337TIP3   OH240425   6.633   1.659  11.398  0.8929 -0.0446  0.7423
 6337TIP3    H140426   6.588   1.733  11.437  0.1079  0.0884 -0.3570
 6337TIP3    H240427   6.677   1.695  11.321  0.8122 -0.6471  0.4047
 6338TIP3   OH240428   1.732   5.095   4.427 -0.8741 -0.8049 -0.4779
 6338TIP3    H140429   1.636   5.089   4.432 -0.9564  0.9549  1.5349
 6338TIP3    H240430   1.759   5.115   4.516  1.2527  0.0891 -1.2567
 6339TIP3   OH240431   3.754   0.499  13.956  0.0887 -0.1145 -0.1711
 6339TIP3    H140432   3.841   0.509  13.993  0.8114  0.0437 -1.8007
 6339TIP3    H240433   3.694   0.529  14.025  1.4410  2.1373  0.1368
 6340TIP3   OH240434   1.150   6.577   3.477  0.3770 -0.8158 -0.1711
 6340TIP3    H140435   1.158   6.566   3.382  0.4168 -2.6318  0.0121
 6340TIP3    H240436   1.083   6.513   3.502 -2.4311  2.1680  0.5711
 6341TIP3   OH240437   5.956   3.408   5.162  0.2463  0.3031 -0.5416
 6341TIP3    H140438   6.040   3.438   5.196  0.4932  0.0854 -0.9413
 6341TIP3    H240439   5.896   3.481   5.177 -0.0100 -0.2854  1.6164
 6342TIP3   OH240440   3.520   1.157   3.979 -0.2724 -0.0747 -0.3358
 6342TIP3    H140441   3.585   1.141   4.047 -0.0801  0.6314 -0.3374
 6342TIP3    H240442   3.549   1.239   3.938  0.7350 -1.4584 -2.6029
 6343TIP3   OH240443   5.357   1.082  11.174 -0.5998 -0.0917  0.5439
 6343TIP3    H140444   5.304   1.133  11.236 -1.1700  0.0930 -0.0867
 6343TIP3    H240445   5.334   0.991  11.193 -3.2523  0.0370 -1.5046
 6344TIP3   OH240446   3.791   2.048  13.168  0.3588  0.5584 -0.2797
 6344TIP3    H140447   3.806   2.105  13.093  1.1751  1.8432  0.8060
 6344TIP3    H240448   3.859   1.981  13.161  0.4211  0.6642 -0.7146
 6345TIP3   OH240449   6.109   2.994   2.071  0.3489  0.3515  0.4455
 6345TIP3    H140450   6.076   3.074   2.112 -0.5738  0.2369 -0.0623
 6345TIP3    H240451   6.155   3.024   1.993 -0.6820  0.3494 -0.1832
 6346TIP3   OH240452   0.108   6.406   2.116  0.7352  0.0805 -0.5097
 6346TIP3    H140453   0.193   6.362   2.107  0.8121  0.2725 -0.7307
 6346TIP3    H240454   0.045   6.334   2.124  0.9108 -0.0629 -0.4164
 6347TIP3   OH240455   1.994   5.298  13.807 -0.1263  0.0822 -0.3326
 6347TIP3    H140456   1.935   5.249  13.865  0.5505 -0.0050  0.2986
 6347TIP3    H240457   1.936   5.340  13.743 -1.2071  2.2965  1.9116
 6348TIP3   OH240458   1.633   0.534  13.596 -0.4359  0.2965  0.4050
 6348TIP3    H140459   1.580   0.494  13.665 -0.7188  1.6502  1.0045
 6348TIP3    H240460   1.570   0.560  13.529 -0.6023  2.0082  1.1686
 6349TIP3   OH240461   4.704   6.240   5.426  0.2189  0.5014 -0.2615
 6349TIP3    H140462   4.787   6.277   5.457  0.2745 -2.3522  3.6036
 6349TIP3    H240463   4.730   6.178   5.357  1.0918  0.8381 -0.2481
 6350TIP3   OH240464   6.083   6.176   2.741  0.0411 -0.1321 -0.4813
 6350TIP3    H140465   6.173   6.204   2.726  0.3182 -0.4865  0.4552
 6350TIP3    H240466   6.055   6.225   2.818  0.1595 -1.5881  0.5129
 6351TIP3   OH240467   6.286   1.929  11.708 -0.3412  0.1240  0.2921
 6351TIP3    H140468   6.292   1.973  11.623 -1.0305  0.7457  0.5489
 6351TIP3    H240469   6.222   1.981  11.757 -0.1689 -0.3982  1.0880
 6352TIP3   OH240470   4.182   1.747  13.458  0.4166  0.2081  0.4463
 6352TIP3    H140471   4.156   1.817  13.518 -0.8257 -1.5201  2.0112
 6352TIP3    H240472   4.267   1.776  13.424  1.7086  0.8700  3.8042
 6353TIP3   OH240473   4.766   1.294  13.478  0.5058 -0.1286 -0.0913
 6353TIP3    H140474   4.839   1.256  13.527  1.2970 -0.6760 -1.6414
 6353TIP3    H240475   4.689   1.247  13.510  0.9021 -0.0279  1.0706
 6354TIP3   OH240476   1.489   3.481   2.847  0.0808  0.1115  0.4493
 6354TIP3    H140477   1.501   3.513   2.936  1.8464 -0.6795  0.5222
 6354TIP3    H240478   1.508   3.557   2.791 -0.1587  0.3719  0.7179
 6355TIP3   OH240479   0.527   5.906  17.091  0.1906  0.3791 -0.2995
 6355TIP3    H140480   0.438   5.926  17.118  0.5977  0.3202  1.1326
 6355TIP3    H240481   0.518   5.830  17.034 -0.5632 -0.4091  0.8402
 6356TIP3   OH240482   6.633   0.576  17.179  0.0430 -0.0236  0.0892
 6356TIP3    H140483   6.624   0.574  17.084  0.0984  1.5616  0.0296
 6356TIP3    H240484   6.667   0.489  17.201  0.1743 -0.3665 -1.3446
 6357TIP3   OH240485   5.313   2.949   2.422 -0.3712  0.4153 -0.6492
 6357TIP3    H140486   5.319   2.985   2.510 -0.5227 -2.6323  0.7269
 6357TIP3    H240487   5.220   2.928   2.411  0.0513 -1.9111 -0.2733
 6358TIP3   OH240488   0.392   4.422  16.603 -0.3935  0.2291 -0.4419
 6358TIP3    H140489   0.385   4.350  16.540 -0.7833 -2.3711  2.3187
 6358TIP3    H240490   0.438   4.383  16.678  3.0752  4.0206 -0.2392
 6359TIP3   OH240491   0.725   4.376   5.762 -0.3001 -0.0099 -0.3242
 6359TIP3    H140492   0.722   4.302   5.822 -0.5403  0.6740  0.5352
 6359TIP3    H240493   0.756   4.449   5.816  3.5595 -0.2103 -1.9307
 6360TIP3   OH240494   1.036   0.671  10.688  0.1993  0.5683  0.3621
 6360TIP3    H140495   1.092   0.742  10.719  1.1665 -0.0302  0.0366
 6360TIP3    H240496   0.970   0.714  10.634 -0.7344  1.4772  2.1671
 6361TIP3   OH240497   5.681   4.410   5.772  0.6547  0.3282  0.1429
 6361TIP3    H140498   5.767   4.389   5.808  1.0533 -0.0353 -0.9732
 6361TIP3    H240499   5.654   4.489   5.819  1.9503  0.9036 -0.0323
 6362TIP3   OH240500   2.659   5.904   1.586 -0.0427 -0.1402  0.0672
 6362TIP3    H140501   2.717   5.854   1.529  1.0881 -0.1261  1.1769
 6362TIP3    H240502   2.707   5.984   1.606 -0.6202  0.0678  0.6617
 6363TIP3   OH240503   3.208   6.485  15.308  0.0992 -0.3284 -0.0681
 6363TIP3    H140504   3.203   6.408  15.252  0.4913 -0.5754  0.2239
 6363TIP3    H240505   3.223   6.558  15.248 -1.9317 -0.2290 -0.5036
 6364TIP3   OH240506   1.422   1.328  17.458 -0.0647  0.3697  0.6540
 6364TIP3    H140507   1.352   1.273  17.423  1.0364  0.1317 -1.3654
 6364TIP3    H240508   1.380   1.380  17.526 -1.6644 -1.3284  1.0565
 6365TIP3   OH240509   6.570   0.803  15.759  0.0046 -0.5272  0.1046
 6365TIP3    H140510   6.580   0.874  15.822 -1.0008 -0.7561  0.5454
 6365TIP3    H240511   6.476   0.785  15.758  0.0547 -0.8202 -1.1473
 6366TIP3   OH240512   0.757   1.458  14.704 -0.0652 -0.2813  0.2219
 6366TIP3    H140513   0.817   1.490  14.771  0.1537 -0.6845  0.2182
 6366TIP3    H240514   0.779   1.510  14.626  0.2545 -0.4064  0.2292
 6367TIP3   OH240515   1.879   0.317   1.382 -0.1799 -0.2265 -0.1397
 6367TIP3    H140516   1.814   0.372   1.425 -0.4814  0.9505 -1.9673
 6367TIP3    H240517   1.963   0.354   1.408 -0.3061 -0.4812  0.6334
 6368TIP3   OH240518   1.326   4.693   4.510  0.1128  0.8178  0.5356
 6368TIP3    H140519   1.412   4.663   4.480  1.3835  1.5060  3.2149
 6368TIP3    H240520   1.302   4.631   4.579 -0.9559  1.3627  0.6658
 6369TIP3   OH240521   5.703   2.695   3.878 -0.6254  0.5001 -0.1410
 6369TIP3    H140522   5.707   2.709   3.973 -1.1511  2.8522 -0.4089
 6369TIP3    H240523   5.795   2.698   3.850 -0.5446  1.0039  0.1606
 6370TIP3   OH240524   1.428   3.183  14.193 -0.1628  0.2365  1.1235
 6370TIP3    H140525   1.354   3.239  14.168  0.6112  0.0890 -1.9092
 6370TIP3    H240526   1.503   3.221  14.147  0.3769 -3.2652 -1.2839
 6371TIP3   OH240527   5.018   3.802   3.621  0.0413  0.5741 -0.3530
 6371TIP3    H140528   5.051   3.712   3.623 -1.4031  0.0271 -0.1569
 6371TIP3    H240529   5.096   3.855   3.604  0.9395 -0.6947 -0.3773
 6372TIP3   OH240530   0.609   2.989   3.226  0.2030 -0.1096 -0.3961
 6372TIP3    H140531   0.640   3.080   3.232 -0.5023  0.1732 -0.8092
 6372TIP3    H240532   0.541   2.992   3.158 -1.3800 -0.5005  1.0954
 6373TIP3   OH240533   1.021   4.594   2.290  0.1637 -0.4766  0.3012
 6373TIP3    H140534   0.977   4.584   2.206 -1.2817 -0.6692  1.0467
 6373TIP3    H240535   1.072   4.514   2.300  1.3962  0.1115 -0.9510
 6374TIP3   OH240536   1.059   1.237  11.561 -0.0948 -0.2060  0.2415
 6374TIP3    H140537   1.030   1.321  11.597 -3.1710 -0.5648 -1.1258
 6374TIP3    H240538   1.104   1.260  11.479  1.6581  0.1983  1.2512
 6375TIP3   OH240539   2.134   2.020  14.137 -0.9380  0.0645 -0.1335
 6375TIP3    H140540   2.170   1.935  14.162 -0.7874 -0.0748 -0.7978
 6375TIP3    H240541   2.041   2.015  14.161 -0.6861  0.1676  0.9340
 6376TIP3   OH240542   2.669   6.057   6.232 -0.0254 -0.0120  0.1603
 6376TIP3    H140543   2.627   6.019   6.309  0.0352 -0.1408  0.1306
 6376TIP3    H240544   2.658   6.151   6.243  0.9868  0.0376  0.9072
 6377TIP3   OH240545   3.332   1.776  12.845 -0.8712 -0.0654 -0.3263
 6377TIP3    H140546   3.371   1.834  12.911 -0.5365 -0.1824 -0.4204
 6377TIP3    H240547   3.243   1.810  12.833 -0.4668  0.8467 -0.8659
 6378TIP3   OH240548   5.219   4.572   3.442 -0.5536  0.5239  0.2384
 6378TIP3    H140549   5.239   4.518   3.519 -0.7369 -0.3266 -0.3039
 6378TIP3    H240550   5.236   4.662   3.471 -1.3055  0.2787  1.5001
 6379TIP3   OH240551   3.701   3.647   2.315 -0.3885  0.3262  0.4550
 6379TIP3    H140552   3.778   3.613   2.361 -0.6093 -1.9876 -0.7270
 6379TIP3    H240553   3.684   3.731   2.356  1.8438  0.2149  1.7998
 6380TIP3   OH240554   3.011   3.094  10.990  0.5226  0.0728  0.7284
 6380TIP3    H140555   2.984   3.144  11.067  1.6043  2.4772 -0.3342
 6380TIP3    H240556   2.975   3.143  10.916  2.1796 -0.3302 -0.3981
 6381TIP3   OH240557   3.463   3.921  13.129  0.2948  0.1528 -0.5173
 6381TIP3    H140558   3.551   3.886  13.115 -0.5503 -1.7352 -1.3439
 6381TIP3    H240559   3.443   3.899  13.220  0.3092 -0.2425 -0.6112
 6382TIP3   OH240560   4.740   4.358  11.285  0.4302 -0.6717 -0.1261
 6382TIP3    H140561   4.690   4.318  11.213 -2.0568  0.9917  0.5580
 6382TIP3    H240562   4.693   4.333  11.364  1.1695  0.2884  0.6386
 6383TIP3   OH240563   6.440   0.330   1.477  0.3594 -0.8417  0.5926
 6383TIP3    H140564   6.413   0.422   1.473  0.5903 -0.7347  1.2616
 6383TIP3    H240565   6.434   0.299   1.387  0.3916 -0.1367  0.3398
 6384TIP3   OH240566   6.031   4.430  15.334 -0.0857  0.0717  0.1951
 6384TIP3    H140567   5.951   4.453  15.287 -0.1952  0.9387  0.7917
 6384TIP3    H240568   6.102   4.456  15.276 -0.2269  0.6676  0.2846
 6385TIP3   OH240569   6.421   6.381   5.293 -0.0530  0.1004  0.0991
 6385TIP3    H140570   6.448   6.414   5.379 -1.1756 -1.5871  1.1623
 6385TIP3    H240571   6.353   6.441   5.265 -0.8718 -0.2689  1.2042
 6386TIP3   OH240572   2.434   6.598   4.650 -0.6122 -0.0698  0.1495
 6386TIP3    H140573   2.517   6.647   4.650  1.0993 -2.6525 -2.2998
 6386TIP3    H240574   2.368   6.663   4.627  1.0232  1.6646  0.0978
 6387TIP3   OH240575   1.447   4.883   5.703 -0.1924 -0.2804  0.2015
 6387TIP3    H140576   1.414   4.887   5.614 -1.7786 -0.1280  0.7525
 6387TIP3    H240577   1.369   4.894   5.758  1.0360  2.5337  1.6058
 6388TIP3   OH240578   1.602   1.277  11.672  0.1314  0.6990  0.7495
 6388TIP3    H140579   1.608   1.306  11.581 -0.3829 -2.7975 -0.5290
 6388TIP3    H240580   1.692   1.260  11.698  0.1388 -0.3493  0.0994
 6389TIP3   OH240581   3.348   0.598  12.413  0.0367  0.6265  0.2372
 6389TIP3    H140582   3.291   0.671  12.437  0.5995  1.3002 -0.4273
 6389TIP3    H240583   3.418   0.638  12.361  1.8793  0.0191  2.1287
 6390TIP3   OH240584   0.577   5.904  13.912 -0.5235  0.1062  0.4603
 6390TIP3    H140585   0.596   5.947  13.995  1.1567 -0.5803  0.4812
 6390TIP3    H240586   0.639   5.942  13.850 -0.3723 -0.8249  0.0146
 6391TIP3   OH240587   5.483   5.397   0.220  0.1998  0.6330  0.5572
 6391TIP3    H140588   5.532   5.471   0.183  1.0744  0.2642  0.9458
 6391TIP3    H240589   5.538   5.366   0.292  0.2653 -0.9393 -0.1277
 6392TIP3   OH240590   3.835   5.999   5.876 -0.1047 -0.3668  0.3686
 6392TIP3    H140591   3.919   6.033   5.843  0.4008 -0.3258  1.6573
 6392TIP3    H240592   3.771   6.032   5.813  0.5581  1.6442  0.6498
 6393TIP3   OH240593   1.974   3.676   5.999  0.2673  0.0837 -0.1337
 6393TIP3    H140594   1.915   3.624   5.945  1.2309 -1.5024  0.2494
 6393TIP3    H240595   1.918   3.739   6.044 -1.3299 -2.0574  1.0512
 6394TIP3   OH240596   6.378   1.798   5.952 -0.0792  0.0229  0.3736
 6394TIP3    H140597   6.389   1.766   6.042  1.6984  1.6165  0.8082
 6394TIP3    H240598   6.318   1.872   5.960 -1.0840 -0.7341 -0.0076
 6395TIP3   OH240599   3.444   3.527  17.353  0.1399 -0.9839 -0.7936
 6395TIP3    H140600   3.493   3.592  17.403 -0.5452  0.0721 -1.4747
 6395TIP3    H240601   3.355   3.560  17.351  0.4682  0.1210 -4.4154
 6396TIP3   OH240602   2.485   1.725  11.746  0.3596  0.0050  0.2161
 6396TIP3    H140603   2.447   1.765  11.824  0.3513  0.7784 -0.1756
 6396TIP3    H240604   2.423   1.745  11.676  0.7021 -0.0949 -0.1212
 6397TIP3   OH240605   5.137   1.788  12.779  0.3043 -0.8147  0.2088
 6397TIP3    H140606   5.077   1.723  12.743  0.3795 -0.5835 -0.3391
 6397TIP3    H240607   5.223   1.747  12.776  0.6916  0.0041 -2.0167
 6398TIP3   OH240608   5.972   5.758   5.475  0.3212  0.0862  0.4328
 6398TIP3    H140609   6.029   5.763   5.399 -1.4630 -2.9561 -1.3269
 6398TIP3    H240610   6.025   5.716   5.542  1.7446  2.2976  0.7711
 6399TIP3   OH240611   3.428   4.158  14.920  0.0025  0.3960 -0.7058
 6399TIP3    H140612   3.481   4.178  14.843 -1.1572 -1.6645 -2.1646
 6399TIP3    H240613   3.343   4.199  14.902 -0.1779  0.1762 -0.3791
 6400TIP3   OH240614   0.035   2.669   5.976  0.1371 -0.9752  0.0170
 6400TIP3    H140615  -0.009   2.681   5.892 -2.3931  1.5151  1.5227
 6400TIP3    H240616   0.115   2.721   5.968 -0.0936 -0.7311 -0.8412
 6401TIP3   OH240617   4.822   2.431   1.879 -0.5826 -0.8065  0.8228
 6401TIP3    H140618   4.733   2.455   1.854  0.1701 -0.8883 -2.3105
 6401TIP3    H240619   4.830   2.338   1.856  0.6125 -0.5343  0.0331
 6402TIP3   OH240620   2.510   5.257   0.398  0.1232  0.1117  0.4350
 6402TIP3    H140621   2.422   5.220   0.394  0.0868  0.2027  0.3999
 6402TIP3    H240622   2.528   5.285   0.309  0.0875  0.3282  0.4960
 6403TIP3   OH240623   5.546   1.946   4.649  0.4618  0.2053 -0.4976
 6403TIP3    H140624   5.603   1.895   4.591  0.3219  0.9768 -1.3293
 6403TIP3    H240625   5.575   2.036   4.638  0.3660  0.3753  0.5708
 6404TIP3   OH240626   1.061   1.822   0.402 -0.1229  0.1309 -0.4296
 6404TIP3    H140627   1.070   1.911   0.436 -1.2196  0.3219 -0.6193
 6404TIP3    H240628   1.046   1.768   0.479  2.3040 -0.1955 -0.1005
 6405TIP3   OH240629   5.574   4.573  14.376 -0.0933 -0.0335 -0.4004
 6405TIP3    H140630   5.632   4.647  14.396 -2.0897  1.7121 -0.6860
 6405TIP3    H240631   5.570   4.570  14.280  0.2959 -0.7912 -0.3980
 6406TIP3   OH240632   4.775   1.163  13.989 -0.1022  0.4574  0.0019
 6406TIP3    H140633   4.851   1.217  14.009  0.5536 -1.5381  3.9911
 6406TIP3    H240634   4.701   1.210  14.027  0.0395 -0.0487  0.9440
 6407TIP3   OH240635   2.883   3.103   4.882 -0.1834 -0.1283  0.1074
 6407TIP3    H140636   2.935   3.133   4.957  0.4169 -0.8200 -0.0119
 6407TIP3    H240637   2.854   3.183   4.839 -1.9764  0.3340  2.0248
 6408TIP3   OH240638   0.971   6.071   1.031  1.0642  0.0778 -0.0062
 6408TIP3    H140639   1.012   6.028   0.956  2.0136  1.6867 -0.4648
 6408TIP3    H240640   0.922   6.144   0.993  1.3604  0.7736  0.9038
 6409TIP3   OH240641   0.218   0.977   2.161 -0.5133 -0.0068  0.0148
 6409TIP3    H140642   0.196   1.071   2.163 -0.3402  0.0579 -0.7998
 6409TIP3    H240643   0.194   0.945   2.248 -2.6170  0.3274 -0.3922
 6410TIP3   OH240644   0.201   4.800   1.472 -0.4110 -0.1344 -0.6645
 6410TIP3    H140645   0.125   4.801   1.414  0.1917 -0.5143 -1.4910
 6410TIP3    H240646   0.217   4.892   1.493  0.4198  0.2046 -2.5726
 6411TIP3   OH240647   1.793   3.313  14.501 -0.0858 -0.6608 -0.0609
 6411TIP3    H140648   1.791   3.361  14.418 -0.3297 -1.6146 -0.6210
 6411TIP3    H240649   1.712   3.261  14.501  0.0817 -0.9323  0.6125
 6412TIP3   OH240650   0.689   2.328   4.213 -0.1341  0.3311 -0.2542
 6412TIP3    H140651   0.741   2.385   4.271 -0.9491 -0.4658  1.3300
 6412TIP3    H240652   0.752   2.264   4.181  0.6849  1.7460 -1.6487
 6413TIP3   OH240653   5.058   6.149   1.886 -0.4677 -0.1953  0.0109
 6413TIP3    H140654   5.030   6.142   1.795 -1.3548  3.1518 -0.0794
 6413TIP3    H240655   5.130   6.211   1.884 -1.1512  0.6962  1.6951
 6414TIP3   OH240656   3.201   3.984  13.697  0.2664  0.8891 -0.2185
 6414TIP3    H140657   3.200   3.899  13.741 -1.5302 -0.0371 -1.8824
 6414TIP3    H240658   3.290   4.015  13.708  1.5288 -2.0568 -1.0318
 6415TIP3   OH240659   5.911   0.573   3.313  0.2302 -0.3424 -0.5801
 6415TIP3    H140660   5.840   0.545   3.372 -0.1119  1.9107  0.1560
 6415TIP3    H240661   5.867   0.590   3.230 -0.9140  4.2904  0.7154
 6416TIP3   OH240662   0.889   4.882  14.614  0.6132  0.1970  0.2434
 6416TIP3    H140663   0.805   4.872  14.660 -0.7545  1.5816 -1.7877
 6416TIP3    H240664   0.941   4.937  14.673 -0.3916  0.4312  0.9579
 6417TIP3   OH240665   1.848   2.353   6.144  0.0825  0.5772  0.4740
 6417TIP3    H140666   1.927   2.319   6.102  1.1358  5.2078 -1.9488
 6417TIP3    H240667   1.779   2.340   6.079 -0.8005 -1.5684  1.7482
 6418TIP3   OH240668   6.653   0.614  11.540 -0.1982  0.1754 -0.1599
 6418TIP3    H140669   6.641   0.706  11.563  2.0026  0.6859 -0.8114
 6418TIP3    H240670   6.578   0.594  11.483 -1.4391  1.1337  1.0792
 6419TIP3   OH240671   0.731   3.758   0.018 -0.3428 -0.1385 -0.1907
 6419TIP3    H140672   0.811   3.715  -0.014 -1.3690 -1.9970 -0.3539
 6419TIP3    H240673   0.698   3.701   0.087 -1.0532  1.0981  0.5339
 6420TIP3   OH240674   6.134   6.138  16.342 -0.3596  0.0716 -0.0866
 6420TIP3    H140675   6.161   6.229  16.329  1.1588  0.0346  2.3229
 6420TIP3    H240676   6.216   6.088  16.338 -0.7970 -0.8196  1.4153
 6421TIP3   OH240677   0.594   4.832  14.092 -0.3397 -0.1275  0.6205
 6421TIP3    H140678   0.666   4.825  14.030 -0.8556 -1.8298  0.1600
 6421TIP3    H240679   0.621   4.780  14.168 -0.1539  1.0825  1.4025
 6422TIP3   OH240680   3.351   5.468  13.638 -0.2245 -0.3717  0.0049
 6422TIP3    H140681   3.393   5.493  13.556 -1.6239 -0.2389 -0.7128
 6422TIP3    H240682   3.315   5.381  13.621 -0.3532 -0.4270  0.5386
 6423TIP3   OH240683   0.753   3.052  13.065 -0.7035  0.3015  0.9148
 6423TIP3    H140684   0.846   3.068  13.049 -0.4247 -1.0432  1.0898
 6423TIP3    H240685   0.713   3.139  13.062  0.7203  1.0272  2.0003
 6424TIP3   OH240686   5.515   3.554   2.456 -0.2372  0.1523 -0.3106
 6424TIP3    H140687   5.534   3.465   2.486  2.1717  0.6329 -0.2436
 6424TIP3    H240688   5.544   3.556   2.365  1.2910  1.2815  0.1602
 6425TIP3   OH240689   5.898   3.154   5.236  0.0479  0.2087 -0.7859
 6425TIP3    H140690   5.901   3.246   5.213 -2.2601 -0.0221 -2.2769
 6425TIP3    H240691   5.899   3.153   5.332  2.0004  1.6157 -0.7351
 6426TIP3   OH240692   5.175   2.427  13.108  0.7276  0.2872 -0.2339
 6426TIP3    H140693   5.262   2.433  13.070  0.5358  2.5325 -0.4703
 6426TIP3    H240694   5.118   2.470  13.044 -0.8752 -2.4700 -0.8278
 6427TIP3   OH240695   2.163   3.291  11.789  0.0759  0.1220  0.6041
 6427TIP3    H140696   2.078   3.329  11.814  0.2427  1.6770 -0.9160
 6427TIP3    H240697   2.175   3.319  11.698  2.0192 -0.4524  0.6371
 6428TIP3   OH240698   6.193   2.734  13.878  0.2919 -0.0753  0.1652
 6428TIP3    H140699   6.112   2.742  13.827  1.2503 -0.0091 -1.4396
 6428TIP3    H240700   6.206   2.639  13.887  0.0260 -0.0854  0.4333
 6429TIP3   OH240701   1.806   2.097  15.966  0.2149 -0.1948 -0.2843
 6429TIP3    H140702   1.871   2.083  15.897  2.4086  0.9632  1.4324
 6429TIP3    H240703   1.803   2.013  16.012 -1.3315 -1.0061 -1.7530
 6430TIP3   OH240704   4.901   5.797   4.089  0.0946 -0.4316 -0.1920
 6430TIP3    H140705   4.899   5.816   4.183 -2.1506  0.1808 -0.3033
 6430TIP3    H240706   4.847   5.866   4.049 -0.4480 -1.6917 -1.7278
 6431TIP3   OH240707   0.807   6.102   3.850 -0.1609 -0.1689  0.7925
 6431TIP3    H140708   0.852   6.031   3.804  0.1543 -0.4174  1.4733
 6431TIP3    H240709   0.851   6.181   3.821  2.1447 -0.5462  3.0040
 6432TIP3   OH240710   0.448   6.429  16.319  0.3702  0.2547 -0.2669
 6432TIP3    H140711   0.361   6.388  16.321  0.4586  0.1019  1.2358
 6432TIP3    H240712   0.490   6.391  16.242 -0.2077 -1.1195  0.0614
 6433TIP3   OH240713   6.576   5.761  17.171 -0.3902 -0.2808 -0.5515
 6433TIP3    H140714   6.604   5.733  17.258  0.2779 -0.6409 -0.8755
 6433TIP3    H240715   6.631   5.711  17.111  0.9854  1.8264 -1.1525
 6434TIP3   OH240716   6.072   5.771  17.606 -0.2482 -0.2330 -0.2977
 6434TIP3    H140717   6.057   5.678  17.591 -1.1040  0.1856 -2.3540
 6434TIP3    H240718   6.167   5.782  17.595 -0.4341 -0.4967 -2.7533
 6435TIP3   OH240719   2.272   1.643  15.249  0.5656 -0.5918 -0.8066
 6435TIP3    H140720   2.248   1.550  15.243 -0.8868 -0.1950 -1.7371
 6435TIP3    H240721   2.231   1.673  15.331  1.3518 -0.8302 -0.3091
 6436TIP3   OH240722   3.154   2.939  14.071  0.7680  0.2380  0.0101
 6436TIP3    H140723   3.151   2.857  14.120  0.3659  0.5205  0.4674
 6436TIP3    H240724   3.082   2.991  14.107  0.1486  0.2617 -1.2133
 6437TIP3   OH240725   6.426   5.273   1.478  0.3481 -0.6775 -0.6198
 6437TIP3    H140726   6.470   5.357   1.467 -0.3977 -0.1638  0.2588
 6437TIP3    H240727   6.496   5.212   1.504  0.5825  0.0759  0.5474
 6438TIP3   OH240728   0.657   5.061  14.842  0.3434 -0.4248 -0.9376
 6438TIP3    H140729   0.567   5.044  14.813  0.8631 -1.5905 -1.9697
 6438TIP3    H240730   0.671   5.154  14.824 -1.3280  0.3289  1.2236
 6439TIP3   OH240731   4.302   2.491  15.724  0.3239  0.2659  0.5816
 6439TIP3    H140732   4.210   2.480  15.701  0.2085  1.5567  0.3727
 6439TIP3    H240733   4.349   2.479  15.641  0.4156 -0.9648  0.7884
 6440TIP3   OH240734   4.613   5.688  15.470  0.1764 -0.1366  0.4723
 6440TIP3    H140735   4.609   5.597  15.501  0.4214 -0.5936 -0.7843
 6440TIP3    H240736   4.585   5.740  15.545  1.3391 -1.1592  1.6628
 6441TIP3   OH240737   1.685   0.733   6.769 -0.2116  0.5371 -0.2481
 6441TIP3    H140738   1.615   0.796   6.747  1.3254  2.1344 -0.8185
 6441TIP3    H240739   1.755   0.788   6.804  0.9082 -0.9827 -0.0553
 6442TIP3   OH240740   5.003   5.501  12.636 -0.5981 -0.1497 -0.5416
 6442TIP3    H140741   5.013   5.573  12.573 -0.1038 -0.7530 -1.1655
 6442TIP3    H240742   5.074   5.514  12.699 -1.0339  0.4001 -0.1587
 6443TIP3   OH240743   2.164   0.810   4.426  0.4511  0.0284  0.4384
 6443TIP3    H140744   2.223   0.735   4.421  0.1497 -0.2897  1.3795
 6443TIP3    H240745   2.094   0.790   4.364  0.0586 -0.7685  1.1145
 6444TIP3   OH240746   5.103   4.229  12.867 -0.2262 -0.2087 -0.0334
 6444TIP3    H140747   5.047   4.152  12.855 -1.1553  0.1182  1.8474
 6444TIP3    H240748   5.073   4.290  12.799  1.1396 -1.7558 -2.1515
 6445TIP3   OH240749   3.641   2.468   1.875  0.4131 -0.2135  0.5790
 6445TIP3    H140750   3.725   2.464   1.919  0.6227  0.5281  0.2493
 6445TIP3    H240751   3.577   2.452   1.945  0.8439 -1.6811  0.6758
 6446TIP3   OH240752   2.225   4.066   3.494  0.0239  0.0867 -0.3473
 6446TIP3    H140753   2.197   3.975   3.505 -0.1597  0.1542 -0.2424
 6446TIP3    H240754   2.153   4.117   3.532  0.3156  0.2617 -0.0296
 6447TIP3   OH240755   3.949   5.464  17.055  0.2708 -0.5147 -0.5206
 6447TIP3    H140756   3.890   5.393  17.079 -0.1457 -0.4829 -1.4158
 6447TIP3    H240757   3.960   5.456  16.960 -0.0299  0.7846 -0.6828
 6448TIP3   OH240758   4.822   2.829  13.083 -0.5900 -0.6773  0.7105
 6448TIP3    H140759   4.880   2.762  13.119 -0.0397 -0.4289  0.3082
 6448TIP3    H240760   4.840   2.829  12.989  0.1591  0.7100  0.8195
 6449TIP3   OH240761   4.945   3.605   1.316  0.5020  0.0376 -0.1592
 6449TIP3    H140762   4.898   3.538   1.365  1.2290 -0.4199 -0.0736
 6449TIP3    H240763   4.933   3.580   1.224 -1.3177  1.1943 -0.2973
 6450TIP3   OH240764   2.998   4.745  16.652 -0.4920 -0.4585 -0.4187
 6450TIP3    H140765   3.011   4.667  16.705 -1.3645 -0.2270  0.1518
 6450TIP3    H240766   3.027   4.817  16.708 -1.0300 -0.2505 -0.4014
 6451TIP3   OH240767   2.399   3.128  13.924  0.6382  0.0274 -0.4089
 6451TIP3    H140768   2.473   3.183  13.951 -0.2208  0.9555  0.1372
 6451TIP3    H240769   2.334   3.191  13.893 -0.0878 -0.7487 -0.4770
 6452TIP3   OH240770   6.236   0.562   2.383  0.2224  0.4714 -0.3328
 6452TIP3    H140771   6.146   0.581   2.356 -0.0927  0.6691  0.8000
 6452TIP3    H240772   6.269   0.503   2.315 -1.0434 -0.2872 -0.3295
 6453TIP3   OH240773   1.713   5.549  11.019  0.0463  0.1554  0.0243
 6453TIP3    H140774   1.629   5.579  10.983  0.9468  0.6125 -1.8111
 6453TIP3    H240775   1.779   5.597  10.970  1.4075 -0.4407  1.2093
 6454TIP3   OH240776   3.309   1.546   0.318  0.6803  0.3721  0.3293
 6454TIP3    H140777   3.220   1.574   0.297  0.5370 -0.2076  0.1626
 6454TIP3    H240778   3.363   1.590   0.252  0.4998  0.5825  0.3198
 6455TIP3   OH240779   4.791   4.732  12.545  0.6003 -0.0452 -0.6601
 6455TIP3    H140780   4.883   4.736  12.571  0.4232 -1.6379  0.3373
 6455TIP3    H240781   4.768   4.639  12.550 -1.2400  0.3836 -0.3027
 6456TIP3   OH240782   1.891   4.678   0.231  0.0393  0.2444 -0.0756
 6456TIP3    H140783   1.815   4.631   0.264 -0.5837  1.8093  0.7750
 6456TIP3    H240784   1.876   4.686   0.137  0.1651 -1.2174 -0.2461
 6457TIP3   OH240785   5.573   4.133   3.961  0.1696  0.1900 -0.1315
 6457TIP3    H140786   5.663   4.165   3.957  0.0159  0.5221 -1.4922
 6457TIP3    H240787   5.569   4.063   3.896 -0.6922  0.5592 -0.4890
 6458TIP3   OH240788   1.517   1.424  14.246 -0.2202 -0.4559  0.6845
 6458TIP3    H140789   1.484   1.354  14.190  1.9388  0.0657 -1.4173
 6458TIP3    H240790   1.456   1.497  14.230  0.3977 -0.2814 -1.1609
 6459TIP3   OH240791   5.986   5.273   4.360  0.1616  0.4525  0.1683
 6459TIP3    H140792   5.921   5.265   4.291 -0.2606  0.9793  0.4985
 6459TIP3    H240793   6.051   5.205   4.340 -0.3944  0.0411 -0.2561
 6460TIP3   OH240794   4.235   3.518   1.223 -0.1985  0.4015  0.4942
 6460TIP3    H140795   4.320   3.549   1.254  1.5412 -2.2154 -1.2140
 6460TIP3    H240796   4.185   3.598   1.206  1.3626  2.0088  2.8070
 6461TIP3   OH240797   2.568   5.060  16.322 -0.1340  0.2609 -0.2034
 6461TIP3    H140798   2.560   4.965  16.312 -0.4916  0.4377 -1.8719
 6461TIP3    H240799   2.548   5.076  16.414  0.3803 -1.3177  0.2149
 6462TIP3   OH240800   1.896   1.533   5.806 -0.1295 -0.1361  0.0893
 6462TIP3    H140801   1.871   1.557   5.895 -0.4063  0.2450 -0.0913
 6462TIP3    H240802   1.955   1.458   5.818 -0.8275 -0.6332  0.5522
 6463TIP3   OH240803   6.419   2.577  16.824  0.1620  0.7263 -0.3659
 6463TIP3    H140804   6.346   2.562  16.884 -0.9425  0.8614 -1.6215
 6463TIP3    H240805   6.496   2.584  16.880 -0.4983 -1.2945  0.8903
 6464TIP3   OH240806   4.553   2.733  17.440  0.2162  0.3593  0.0551
 6464TIP3    H140807   4.598   2.817  17.449 -1.1902  1.0679  0.7530
 6464TIP3    H240808   4.551   2.697  17.529 -1.0234  0.5777  0.1263
 6465TIP3   OH240809   0.060   4.705  17.621 -0.2956 -0.0507 -0.1921
 6465TIP3    H140810   0.019   4.740  17.700  0.1970  0.1225 -0.0108
 6465TIP3    H240811   0.038   4.612  17.623  0.2444 -0.1689  0.4824
 6466TIP3   OH240812   6.230   0.385   0.928 -0.2325 -0.0356 -0.2578
 6466TIP3    H140813   6.175   0.381   1.007 -1.1832  2.0179 -0.7485
 6466TIP3    H240814   6.240   0.479   0.911  3.2287 -0.2972 -0.3754
 6467TIP3   OH240815   2.816   3.462  13.887  0.0031 -0.3587  0.5436
 6467TIP3    H140816   2.906   3.448  13.917  0.5066 -1.0825 -1.1693
 6467TIP3    H240817   2.826   3.508  13.804 -1.0981 -1.9096 -0.5111
 6468TIP3   OH240818   5.743   6.186  16.717 -0.4680  0.1863 -0.8491
 6468TIP3    H140819   5.758   6.272  16.755  1.9654 -1.5608  2.7063
 6468TIP3    H240820   5.820   6.170  16.663 -0.3986 -0.1633 -0.6500
 6469TIP3   OH240821   5.973   5.522  14.355  0.8825 -0.2341  0.1771
 6469TIP3    H140822   5.944   5.612  14.339  2.2365  0.3285  0.7661
 6469TIP3    H240823   5.933   5.472  14.285  0.1606  0.8339 -0.2090
 6470TIP3   OH240824   4.197   5.845  16.700 -0.0126 -0.7800  0.3704
 6470TIP3    H140825   4.104   5.866  16.709  0.6058  1.6716  2.0635
 6470TIP3    H240826   4.198   5.756  16.665 -2.9660  0.1521 -2.6587
 6471TIP3   OH240827   1.291   4.354  11.800 -0.7203  0.1835  0.0500
 6471TIP3    H140828   1.328   4.295  11.865  0.5752 -0.1181 -0.9198
 6471TIP3    H240829   1.314   4.315  11.716 -2.9588  0.1804 -0.6456
 6472TIP3   OH240830   1.871   2.004  14.214  0.3093  0.6593 -0.3318
 6472TIP3    H140831   1.812   1.928  14.209  1.0279  0.0893 -0.3077
 6472TIP3    H240832   1.835   2.057  14.285 -0.7754  0.8469 -0.9881
 6473TIP3   OH240833   2.782   5.246   5.044  0.0032 -0.2661 -0.6395
 6473TIP3    H140834   2.726   5.168   5.052 -0.7885  0.4420  1.6598
 6473TIP3    H240835   2.871   5.213   5.052 -0.3588 -0.9093  1.6099
 6474TIP3   OH240836   0.425   6.095   5.858 -0.1654  0.0454  0.7441
 6474TIP3    H140837   0.497   6.156   5.868 -0.1904 -0.1451  2.4066
 6474TIP3    H240838   0.367   6.135   5.793  1.0511  0.5478 -0.0560
 6475TIP3   OH240839   3.499   3.484   0.175  0.4447 -0.1354  0.1300
 6475TIP3    H140840   3.555   3.497   0.252  1.5902 -2.1955 -0.2707
 6475TIP3    H240841   3.458   3.399   0.190 -2.8186  1.3399  0.4556
 6476TIP3   OH240842   1.754   3.188  16.144 -0.5584  0.5554 -0.0468
 6476TIP3    H140843   1.739   3.099  16.175 -2.2938  1.6360  2.5722
 6476TIP3    H240844   1.840   3.212  16.178  0.0251 -0.1504 -0.9732
 6477TIP3   OH240845   4.496   1.882   5.803  0.2347  0.0596  0.0577
 6477TIP3    H140846   4.555   1.915   5.735 -0.4089  1.3407  0.0840
 6477TIP3    H240847   4.509   1.787   5.802  2.2707  0.2881  0.0521
 6478TIP3   OH240848   6.409   5.616  11.591 -0.7257  0.2855 -0.6546
 6478TIP3    H140849   6.429   5.552  11.523  1.2429  0.3112 -0.1651
 6478TIP3    H240850   6.493   5.658  11.610 -1.8940  2.8602 -0.7764
 6479TIP3   OH240851   3.454   4.592   6.710 -0.1440 -0.5562 -0.5518
 6479TIP3    H140852   3.441   4.523   6.645 -0.8528  0.1266 -1.1589
 6479TIP3    H240853   3.535   4.568   6.756  0.8648 -0.6176 -2.2689
 6480TIP3   OH240854   3.092   0.488   5.143 -0.0438  0.0040  0.3440
 6480TIP3    H140855   3.138   0.405   5.160 -1.3421 -0.5042  1.6644
 6480TIP3    H240856   3.133   0.550   5.203 -0.1674 -0.1054  0.5436
 6481TIP3   OH240857   5.623   5.247   6.854 -0.0331 -0.1030 -0.9488
 6481TIP3    H140858   5.700   5.295   6.824 -0.3339  1.2808  0.3666
 6481TIP3    H240859   5.638   5.234   6.947 -0.9664 -0.6305 -0.8624
 6482TIP3   OH240860   3.240   3.613   1.938  0.4788 -0.1640 -0.2981
 6482TIP3    H140861   3.199   3.571   1.862 -1.3832  0.8739  0.0707
 6482TIP3    H240862   3.213   3.559   2.013  1.6135 -0.6983 -0.2476
 6483TIP3   OH240863   5.148   4.433   3.762  0.0729 -0.4726 -0.3055
 6483TIP3    H140864   5.176   4.522   3.741  0.5239 -0.0325  1.8888
 6483TIP3    H240865   5.194   4.377   3.699 -0.6939  0.8326 -2.1214
 6484TIP3   OH240866   3.752   1.912   5.055 -0.0066 -0.6136 -0.3289
 6484TIP3    H140867   3.677   1.970   5.063 -0.1317 -0.6838 -0.9287
 6484TIP3    H240868   3.747   1.879   4.965  1.3213  0.1796 -0.7124
 6485TIP3   OH240869   0.512   2.690  12.880  0.6348 -0.1668 -0.0644
 6485TIP3    H140870   0.432   2.730  12.914 -0.0465  1.9770 -3.6372
 6485TIP3    H240871   0.583   2.734  12.927 -0.2361  0.7389  0.4425
 6486TIP3   OH240872   5.985   5.169   3.781 -0.3155 -0.5166  0.2008
 6486TIP3    H140873   6.054   5.111   3.813  0.5986  1.3097  1.7981
 6486TIP3    H240874   5.947   5.207   3.861 -1.8752 -0.0410 -0.7290
 6487TIP3   OH240875   6.017   4.194  13.706 -0.0003 -0.0191  0.4270
 6487TIP3    H140876   5.963   4.263  13.745  0.0348 -0.4230  1.2214
 6487TIP3    H240877   5.975   4.113  13.735 -0.3933 -0.3475 -0.9909
 6488TIP3   OH240878   0.028   2.872   6.206  0.6631  0.3221  0.2577
 6488TIP3    H140879   0.051   2.795   6.155 -1.3424 -1.0860  1.3508
 6488TIP3    H240880   0.062   2.854   6.294  2.2085  1.7726  0.0157
 6489TIP3   OH240881   1.208   2.535  11.509 -0.2545  0.3513  0.4151
 6489TIP3    H140882   1.158   2.614  11.485 -0.7493  0.0744  0.5248
 6489TIP3    H240883   1.296   2.553  11.477 -0.4256  0.8401  0.1944
 6490TIP3   OH240884   3.754   3.651   4.397  0.4491  0.0853 -0.3205
 6490TIP3    H140885   3.820   3.590   4.431  0.5218 -0.2106 -0.9766
 6490TIP3    H240886   3.725   3.700   4.474 -2.0614 -3.0234  0.9438
 6491TIP3   OH240887   4.777   3.002   4.370  0.3203  0.0728 -0.3975
 6491TIP3    H140888   4.737   3.045   4.295  0.2036 -0.1758 -0.4796
 6491TIP3    H240889   4.715   2.932   4.393 -1.6079  2.3887  2.2467
 6492TIP3   OH240890   4.345   0.847  12.881 -0.1916 -0.2130  0.3554
 6492TIP3    H140891   4.335   0.941  12.894  1.1213 -0.1439  1.0243
 6492TIP3    H240892   4.372   0.838  12.789  1.0633  0.1977  0.6652
 6493TIP3   OH240893   1.623   3.315   0.905 -0.0136 -0.0325  0.5490
 6493TIP3    H140894   1.590   3.280   0.988  2.8143 -1.9726  0.9933
 6493TIP3    H240895   1.673   3.393   0.930 -0.1220  0.0489  0.5130
 6494TIP3   OH240896   5.540   4.497  16.249 -0.4246  0.1072  0.4219
 6494TIP3    H140897   5.512   4.483  16.159 -1.5911 -1.1872  0.9411
 6494TIP3    H240898   5.628   4.461  16.253  0.4532  1.9876 -0.6460
 6495TIP3   OH240899   4.940   2.279   3.249  0.0253  0.2213  0.0561
 6495TIP3    H140900   4.913   2.318   3.166 -1.1870  0.6666  0.6371
 6495TIP3    H240901   4.966   2.353   3.304  1.6400 -0.1345 -0.1902
 6496TIP3   OH240902   5.594   1.149   4.617  0.8366 -0.0540  0.3736
 6496TIP3    H140903   5.585   1.087   4.545 -1.9347  0.2695  0.3222
 6496TIP3    H240904   5.665   1.207   4.591  1.1790 -1.1168 -1.1774
 6497TIP3   OH240905   1.894   6.513   1.971 -0.0058 -0.7722  0.4193
 6497TIP3    H140906   1.851   6.574   2.030  2.1891  0.8499  0.4966
 6497TIP3    H240907   1.906   6.434   2.023 -0.1524 -0.1725  1.3969
 6498TIP3   OH240908   2.652   5.354  15.218  0.1606  0.0148 -0.4805
 6498TIP3    H140909   2.572   5.398  15.189  0.7177  1.7408  0.4632
 6498TIP3    H240910   2.660   5.278  15.160 -1.2071  0.7911 -1.7511
 6499TIP3   OH240911   1.826   3.920   0.745  0.1677 -0.3558  0.8988
 6499TIP3    H140912   1.740   3.942   0.708  0.5182  0.6577  0.6557
 6499TIP3    H240913   1.858   3.849   0.689 -0.3249 -0.4530  0.7275
 6500TIP3   OH240914   6.019   0.075   5.478  0.2254  0.1747  0.0631
 6500TIP3    H140915   6.001   0.158   5.523 -1.1211  1.7632 -3.0518
 6500TIP3    H240916   6.109   0.054   5.502  0.6553  2.6227  0.9205
 6501TIP3   OH240917   4.956   3.198  13.431 -0.2332  0.6572 -0.9292
 6501TIP3    H140918   4.868   3.234  13.441 -1.5701 -2.4250 -0.6526
 6501TIP3    H240919   4.955   3.156  13.345  1.2252  1.0668 -1.1863
 6502TIP3   OH240920   4.608   2.253   0.508  0.4500  0.2981 -0.7478
 6502TIP3    H140921   4.646   2.312   0.573  0.1237 -0.9921  0.6653
 6502TIP3    H240922   4.677   2.188   0.493  0.1741  0.0578 -0.9754
 6503TIP3   OH240923   1.357   2.121  17.239  1.3621 -0.4969 -0.2228
 6503TIP3    H140924   1.362   2.073  17.156  0.3153 -1.1452  0.0590
 6503TIP3    H240925   1.285   2.183  17.226  0.2973 -1.5045  0.6047
 6504TIP3   OH240926   0.218   5.169  12.670  0.3166 -0.5135 -0.1648
 6504TIP3    H140927   0.131   5.171  12.631 -0.3010  1.2273  1.1775
 6504TIP3    H240928   0.202   5.166  12.765  1.7183 -0.8450  0.0807
 6505TIP3   OH240929   4.696   4.145  15.382 -0.0263  0.1637  0.1895
 6505TIP3    H140930   4.733   4.074  15.329 -1.7085  1.3163 -2.7453
 6505TIP3    H240931   4.626   4.104  15.431 -0.7396 -0.3412 -1.1887
 6506TIP3   OH240932   6.658   6.097   4.340  0.0359  1.0514  0.2740
 6506TIP3    H140933   6.754   6.093   4.343  0.0676  2.1058  2.1341
 6506TIP3    H240934   6.639   6.186   4.311 -0.4709  0.0067 -3.0358
 6507TIP3   OH240935   2.761   5.238  14.452 -0.4188  0.1922 -0.7610
 6507TIP3    H140936   2.667   5.228  14.433 -0.3354  0.8130 -1.5768
 6507TIP3    H240937   2.798   5.152  14.434 -0.9421 -0.2947  0.3589
 6508TIP3   OH240938   4.889   0.861   4.966 -0.4477  0.1311 -0.3692
 6508TIP3    H140939   4.847   0.911   4.896  0.2563  1.0964 -0.1394
 6508TIP3    H240940   4.837   0.882   5.044 -0.3707  0.2263 -0.3422
 6509TIP3   OH240941   0.505   0.436  11.575  0.2489  0.2153 -0.4762
 6509TIP3    H140942   0.562   0.467  11.505  0.9544  0.7798  0.3276
 6509TIP3    H240943   0.416   0.454  11.544  0.5816  1.3125 -0.8477
 6510TIP3   OH240944   1.307   2.585   3.054 -1.3871 -0.1566  0.1144
 6510TIP3    H140945   1.312   2.628   3.139 -1.3999  0.3415 -0.1365
 6510TIP3    H240946   1.318   2.655   2.990  1.1687 -0.8166 -0.2955
 6511TIP3   OH240947   4.419   0.888  14.532 -0.0699 -0.0247  0.0031
 6511TIP3    H140948   4.452   0.849  14.613  0.0548 -1.2027 -0.5956
 6511TIP3    H240949   4.477   0.853  14.464 -1.3333 -0.5617 -0.8206
 6512TIP3   OH240950   1.974   1.801  11.791 -0.1400 -0.2251  0.3275
 6512TIP3    H140951   1.901   1.766  11.739  0.2617  0.2383 -0.5620
 6512TIP3    H240952   1.932   1.857  11.856 -0.6002 -0.1579 -0.0207
 6513TIP3   OH240953   1.932   5.265   1.180  0.9940  0.3646 -0.1931
 6513TIP3    H140954   1.863   5.281   1.115  0.7272  0.7434  0.1766
 6513TIP3    H240955   1.918   5.174   1.206  1.2474  0.1364 -0.8310
 6514TIP3   OH240956   6.573   4.588  12.337 -0.1796  0.0936  0.1920
 6514TIP3    H140957   6.622   4.604  12.256  1.1702 -2.2229  0.4483
 6514TIP3    H240958   6.634   4.539  12.392 -1.3425  0.9491  2.3377
 6515TIP3   OH240959   2.891   2.189   3.958 -0.2870 -0.0404  0.7004
 6515TIP3    H140960   2.977   2.226   3.981  0.0180 -0.3095  0.0309
 6515TIP3    H240961   2.907   2.143   3.875 -1.5169  1.6476 -0.5545
 6516TIP3   OH240962   3.812   3.463  13.708 -0.5671 -0.1615  0.2252
 6516TIP3    H140963   3.886   3.469  13.648 -1.0877 -0.0582 -0.4228
 6516TIP3    H240964   3.849   3.429  13.789 -0.0158 -1.2602 -0.4634
 6517TIP3   OH240965   6.680   4.785   5.982 -0.1076  0.1775  0.0111
 6517TIP3    H140966   6.627   4.808   5.905 -0.5912  0.5517  0.4513
 6517TIP3    H240967   6.705   4.869   6.019 -0.8158  0.0100  0.9026
 6518TIP3   OH240968   0.679   3.778  13.063  0.9141  0.0391  0.5659
 6518TIP3    H140969   0.700   3.851  13.005 -0.4543  0.4385  0.5376
 6518TIP3    H240970   0.763   3.737  13.082  1.4334  0.0122 -1.5502
 6519TIP3   OH240971   2.059   1.007   6.414 -0.7162  0.0779 -0.4412
 6519TIP3    H140972   2.133   0.947   6.421  1.0295  2.2811  2.2576
 6519TIP3    H240973   1.988   0.954   6.378  1.2861 -2.9652 -0.2631
 6520TIP3   OH240974   3.656   0.110   0.087  0.0919 -0.2656  0.1330
 6520TIP3    H140975   3.609   0.114   0.170  0.3663  1.8204  0.2561
 6520TIP3    H240976   3.591   0.081   0.024 -0.7484  0.2958  0.7118
 6521TIP3   OH240977   6.360   3.027  16.044 -0.1990 -0.4708  0.2195
 6521TIP3    H140978   6.265   3.031  16.036 -0.0222 -0.2871 -2.9818
 6521TIP3    H240979   6.388   3.117  16.058 -0.4574 -0.5924  1.7481
 6522TIP3   OH240980   1.245   6.691  15.925 -0.2897 -0.2238  0.0457
 6522TIP3    H140981   1.170   6.640  15.895 -0.2058 -1.0967  1.2845
 6522TIP3    H240982   1.206   6.768  15.966 -0.4560 -0.0264 -0.4672
 6523TIP3   OH240983   2.064   6.486   3.049  0.5867  0.2132  0.3704
 6523TIP3    H140984   2.048   6.412   3.108  1.4626  0.4543  0.9246
 6523TIP3    H240985   2.119   6.545   3.100 -0.5867  1.5444  0.1667
 6524TIP3   OH240986   3.131   3.780   5.604 -0.1203  0.3025 -0.1576
 6524TIP3    H140987   3.047   3.739   5.624  1.7038 -3.9832 -0.0179
 6524TIP3    H240988   3.137   3.776   5.509  1.0456 -2.5438 -0.0910
 6525TIP3   OH240989   3.773   1.067  11.917 -0.5745  0.2235  0.4075
 6525TIP3    H140990   3.742   1.062  11.827 -1.2643 -0.8975  0.6928
 6525TIP3    H240991   3.792   0.976  11.941  2.6088  0.7718  0.3931
 6526TIP3   OH240992   3.959   3.678  15.836 -0.0040 -0.3047  0.2263
 6526TIP3    H140993   4.051   3.677  15.811 -0.2439 -2.3096 -0.7449
 6526TIP3    H240994   3.945   3.766  15.872  1.5928  1.0241 -2.1448
 6527TIP3   OH240995   4.452   0.161   4.645 -0.5641  0.1267 -0.1311
 6527TIP3    H140996   4.398   0.101   4.696 -2.4679  0.2819 -1.8358
 6527TIP3    H240997   4.498   0.214   4.711  1.7544 -3.5231  1.4800
 6528TIP3   OH240998   3.036   6.076  14.659 -0.0516  0.2170 -0.3233
 6528TIP3    H140999   2.989   6.081  14.576 -1.1008 -1.1997  0.1423
 6528TIP3    H241000   2.979   6.025  14.716  0.2632  1.8689  1.5629
 6529TIP3   OH241001   1.480   4.468   4.005  0.6788 -0.1810 -0.3116
 6529TIP3    H141002   1.546   4.423   4.058  0.0841 -0.6965  0.0041
 6529TIP3    H241003   1.422   4.399   3.974 -0.6256  0.4024  0.7121
 6530TIP3   OH241004   3.899   6.132   1.300  0.0922  0.5187 -0.2497
 6530TIP3    H141005   3.875   6.219   1.270 -2.5419 -0.2660 -0.6745
 6530TIP3    H241006   3.828   6.106   1.359  1.0825 -1.1378  0.2908
 6531TIP3   OH241007   6.704   2.259   2.105  0.3177 -0.4217  0.5061
 6531TIP3    H141008   6.640   2.330   2.108  1.0874  0.3178 -0.0853
 6531TIP3    H241009   6.761   2.282   2.031 -0.5084 -2.5995 -0.9060
 6532TIP3   OH241010   3.759   6.295  16.055 -0.3353 -0.2154 -0.2978
 6532TIP3    H141011   3.755   6.384  16.088 -1.0347 -0.0291 -0.8668
 6532TIP3    H241012   3.748   6.304  15.960  0.0343 -0.8704 -0.4132
 6533TIP3   OH241013   1.024   2.379  16.014  0.0135 -0.0322 -0.3172
 6533TIP3    H141014   1.114   2.355  15.990  0.8869  0.7278  1.9880
 6533TIP3    H241015   0.984   2.296  16.040  0.5490 -0.1413  0.1670
 6534TIP3   OH241016   3.787   1.570   3.960 -0.1390 -0.3530 -0.0217
 6534TIP3    H141017   3.748   1.483   3.951  0.3000 -0.4990 -0.5635
 6534TIP3    H241018   3.879   1.553   3.980 -0.0849 -0.0165  0.0136
 6535TIP3   OH241019   3.239   3.659  16.909 -0.3190  0.0490  0.4039
 6535TIP3    H141020   3.219   3.578  16.955  1.1315  0.5453  2.0023
 6535TIP3    H241021   3.241   3.726  16.977  2.8901  0.6634 -0.1373
 6536TIP3   OH241022   4.228   4.014   3.665  0.2197 -0.0591 -0.0404
 6536TIP3    H141023   4.312   3.978   3.695  0.3144  0.8580  0.8413
 6536TIP3    H241024   4.242   4.108   3.665 -0.3572  0.0353 -1.3208
 6537TIP3   OH241025   3.808   6.118  16.811 -0.3944 -0.3812  0.1914
 6537TIP3    H141026   3.747   6.086  16.744 -2.2678 -0.0273  1.6385
 6537TIP3    H241027   3.751   6.149  16.882  1.4911  0.2963  1.4752
 6538TIP3   OH241028   6.225   1.822   2.675 -0.1102 -0.4296 -0.3246
 6538TIP3    H141029   6.248   1.873   2.752 -0.6772  0.3217 -0.6453
 6538TIP3    H241030   6.148   1.866   2.638 -0.9114 -1.7817 -0.3389
 6539TIP3   OH241031   6.509   0.935   2.050 -0.4770 -0.2248 -0.7881
 6539TIP3    H141032   6.505   1.030   2.060 -1.0514 -0.2681 -0.5636
 6539TIP3    H241033   6.436   0.902   2.103  1.7683 -0.9906  2.0854
 6540TIP3   OH241034   2.952   4.502   5.644 -0.3477  0.2794 -0.3717
 6540TIP3    H141035   3.011   4.506   5.719  0.4034 -2.5687 -0.6656
 6540TIP3    H241036   2.885   4.568   5.662  0.2033  0.2011  2.4438
 6541TIP3   OH241037   6.564   1.261  16.233  0.2828 -0.4332  0.5053
 6541TIP3    H141038   6.495   1.198  16.216 -0.7403  1.0802 -1.2439
 6541TIP3    H241039   6.545   1.295  16.321 -0.9357 -0.3744  0.2265
 6542TIP3   OH241040   5.824   6.168  11.295  0.2496  0.0550  0.1594
 6542TIP3    H141041   5.905   6.209  11.267 -0.0899  1.6365  1.3774
 6542TIP3    H241042   5.809   6.201  11.383 -1.4538 -0.6089  0.1658
 6543TIP3   OH241043   5.434   5.047  16.072  0.1938 -0.6634 -0.3006
 6543TIP3    H141044   5.401   5.136  16.081 -0.1662 -0.9121  0.9323
 6543TIP3    H241045   5.513   5.044  16.125  0.1283 -1.1216 -0.2224
 6544TIP3   OH241046   4.879   4.150  16.233  0.1953  0.1059  0.6247
 6544TIP3    H141047   4.791   4.164  16.269 -0.3468  2.7780 -1.3867
 6544TIP3    H241048   4.938   4.193  16.296 -0.1733  0.2925  0.8474
 6545TIP3   OH241049   4.540   2.478  17.031  0.2823 -0.0369  0.0433
 6545TIP3    H141050   4.631   2.462  17.054  0.8498  0.5850 -1.6473
 6545TIP3    H241051   4.522   2.567  17.062 -0.5318 -0.9597  2.5018
 6546TIP3   OH241052   1.844   6.438  17.345 -0.0214 -0.3410 -0.2174
 6546TIP3    H141053   1.844   6.343  17.331 -1.0195 -0.4993  0.7176
 6546TIP3    H241054   1.774   6.471  17.290 -0.0792 -0.2187 -0.0684
 6547TIP3   OH241055   2.692   1.819  16.619 -0.3657 -0.0198  0.1050
 6547TIP3    H141056   2.633   1.872  16.671 -0.3455 -0.7605  0.9075
 6547TIP3    H241057   2.634   1.765  16.565 -0.4170 -0.1700  0.3077
 6548TIP3   OH241058   0.927   3.846  11.618  0.5811 -0.2093  0.1607
 6548TIP3    H141059   1.004   3.801  11.584 -0.2786 -2.1976  0.6828
 6548TIP3    H241060   0.859   3.830  11.552  0.0070 -0.5706  0.8109
 6549TIP3   OH241061   4.663   2.452  14.917  0.1964 -0.3772 -0.1804
 6549TIP3    H141062   4.577   2.430  14.953 -0.1281 -0.1892 -0.8290
 6549TIP3    H241063   4.646   2.521  14.854  0.9912  0.5621  0.5970
 6550TIP3   OH241064   5.081   3.457   2.462  0.0485  0.2103  0.3130
 6550TIP3    H141065   5.104   3.387   2.523 -0.2117 -0.7865 -0.6908
 6550TIP3    H241066   5.011   3.420   2.408  0.3779  0.9911 -0.6966
 6551TIP3   OH241067   5.645   3.517  12.916  0.4627 -0.2033  0.2581
 6551TIP3    H141068   5.553   3.542  12.911  0.6095  0.1789 -0.8503
 6551TIP3    H241069   5.645   3.423  12.896  0.4289  0.0810 -1.1889
 6552TIP3   OH241070   6.149   6.089   3.914 -0.4276  0.0754 -0.1915
 6552TIP3    H141071   6.214   6.042   3.862  1.3557 -0.6111  2.4623
 6552TIP3    H241072   6.101   6.020   3.960 -0.2575  0.7023  0.9567
 6553TIP3   OH241073   6.543   3.450   3.365  0.2712 -0.4251 -0.1571
 6553TIP3    H141074   6.619   3.507   3.354 -0.1891  0.4240  0.8911
 6553TIP3    H241075   6.558   3.405   3.448  0.5980 -1.8260 -0.9439
 6554TIP3   OH241076   2.340   2.506  14.746 -0.4670 -0.0067 -0.1973
 6554TIP3    H141077   2.392   2.524  14.668  0.3220  0.1436  0.3517
 6554TIP3    H241078   2.390   2.545  14.818 -2.2225  1.7936  0.1560
 6555TIP3   OH241079   4.674   2.161  13.227  0.2798  0.0151 -0.7259
 6555TIP3    H141080   4.633   2.116  13.301 -1.2166  2.4701  0.0391
 6555TIP3    H241081   4.647   2.110  13.151 -1.3365 -0.4172  0.0816
 6556TIP3   OH241082   3.827   2.131   4.054  0.1283 -0.0530  0.3608
 6556TIP3    H141083   3.852   2.156   3.965 -0.8593  0.0601  0.1060
 6556TIP3    H241084   3.778   2.206   4.087  1.4809  0.3988  1.4496
 6557TIP3   OH241085   5.152   2.621  11.644  0.2948 -0.4222 -0.2659
 6557TIP3    H141086   5.196   2.700  11.674  0.9230 -1.0339  0.4282
 6557TIP3    H241087   5.118   2.644  11.557 -2.1978  1.6217  1.1038
 6558TIP3   OH241088   6.417   4.912   0.044  0.1599  0.3949 -0.5314
 6558TIP3    H141089   6.369   4.905  -0.038 -0.5762 -1.2103 -0.0012
 6558TIP3    H241090   6.478   4.838   0.042  0.7862  0.8923 -0.0467
 6559TIP3   OH241091   3.353   1.011   3.497  0.2977  0.1369 -0.0186
 6559TIP3    H141092   3.325   0.919   3.497  0.5005  0.0643 -0.7785
 6559TIP3    H241093   3.272   1.061   3.501  0.2326 -0.0615  1.9471
 6560TIP3   OH241094   5.122   6.089  15.803  0.4241  0.3383 -0.3331
 6560TIP3    H141095   5.092   6.166  15.850  0.6522 -0.1186  0.6017
 6560TIP3    H241096   5.044   6.035  15.791  0.6867 -0.5323  1.4804
 6561TIP3   OH241097   1.880   6.287  13.818  0.6302  0.0161  0.2396
 6561TIP3    H141098   1.866   6.301  13.724 -0.1024 -2.0140 -0.0065
 6561TIP3    H241099   1.970   6.255  13.824  0.8641  0.6800  0.3006
 6562TIP3   OH241100   1.228   5.824  11.027  0.2894  0.2542 -0.2390
 6562TIP3    H141101   1.143   5.862  11.006 -0.3889 -0.8374  0.4838
 6562TIP3    H241102   1.283   5.899  11.048 -1.1687  0.8614  1.7153
 6563TIP3   OH241103   0.762   1.115  16.700 -0.2109  0.3193 -0.1087
 6563TIP3    H141104   0.743   1.137  16.609 -0.2697  0.9566  0.0491
 6563TIP3    H241105   0.731   1.191  16.750 -0.4852 -0.1701  0.4738
 6564TIP3   OH241106   4.419   3.337   4.790  0.1554 -0.2205  0.1009
 6564TIP3    H141107   4.449   3.399   4.856 -0.1873  0.6623 -0.5550
 6564TIP3    H241108   4.330   3.366   4.768 -1.3414 -2.8331  2.0840
 6565TIP3   OH241109   6.434   4.433   1.230  0.1456 -0.5063  0.3640
 6565TIP3    H141110   6.401   4.513   1.271 -5.7395 -2.1543 -0.2668
 6565TIP3    H241111   6.442   4.371   1.302  0.1994 -0.6083  0.2699
 6566TIP3   OH241112   0.321   3.574   5.864  0.3160  0.9056 -0.0522
 6566TIP3    H141113   0.275   3.636   5.808 -0.1905  0.1923 -0.4464
 6566TIP3    H241114   0.327   3.617   5.949 -3.1024  0.1999  0.7088
 6567TIP3   OH241115   4.085   3.009   0.413  0.1708 -0.0139  0.0929
 6567TIP3    H141116   4.027   3.027   0.340  1.1710 -1.3414 -1.1011
 6567TIP3    H241117   4.169   3.048   0.388  0.4931 -0.3762  0.5739
 6568TIP3   OH241118   1.523   0.686  11.322  0.2523 -0.3554 -0.1666
 6568TIP3    H141119   1.449   0.734  11.358 -1.7820 -1.1718 -2.9130
 6568TIP3    H241120   1.597   0.710  11.378 -1.9214  0.9753  2.3460
 6569TIP3   OH241121   6.389   4.546  15.866 -0.3993 -0.2641 -0.1711
 6569TIP3    H141122   6.301   4.584  15.873 -0.0556  0.8524 -1.5456
 6569TIP3    H241123   6.446   4.620  15.848  0.8086 -1.0165  0.4073
 6570TIP3   OH241124   1.854   3.277   3.592  0.1965  0.3519  0.2010
 6570TIP3    H141125   1.900   3.251   3.512 -1.2370 -1.5019 -0.0679
 6570TIP3    H241126   1.764   3.248   3.579 -0.1808  0.4460  2.2976
 6571TIP3   OH241127   1.212   3.934  11.670  0.3412 -0.5534 -0.1274
 6571TIP3    H141128   1.308   3.935  11.669  0.5084  0.1189  3.2673
 6571TIP3    H241129   1.187   3.928  11.578  3.6184 -1.8922 -1.0833
 6572TIP3   OH241130   1.952   6.569   5.654  0.1384  0.2791 -0.2317
 6572TIP3    H141131   1.904   6.569   5.737  0.6332  2.4237  0.1201
 6572TIP3    H241132   1.886   6.585   5.587  0.0821  1.2212  0.0414
 6573TIP3   OH241133   2.287   3.329   1.906  0.4953 -0.4450 -0.0213
 6573TIP3    H141134   2.260   3.288   1.988 -0.1053 -0.8821 -0.4298
 6573TIP3    H241135   2.214   3.386   1.883  1.2445  0.7620  0.4490
 6574TIP3   OH241136   0.994   3.546  12.193  0.4759 -0.5250  0.5109
 6574TIP3    H141137   1.086   3.573  12.193 -0.0120  1.4911 -1.6313
 6574TIP3    H241138   0.945   3.627  12.177 -1.5454 -1.8496 -0.4922
 6575TIP3   OH241139   2.572   6.267  17.366 -0.0394  0.1585 -0.7077
 6575TIP3    H141140   2.529   6.224  17.291 -2.0370  0.1931  0.3387
 6575TIP3    H241141   2.514   6.339  17.388  1.2742  1.0256  0.0075
 6576TIP3   OH241142   1.819   2.350   2.009  0.2165 -0.1300  0.2817
 6576TIP3    H141143   1.906   2.330   2.043 -0.6856 -1.1831  2.1716
 6576TIP3    H241144   1.782   2.265   1.985 -0.9416  0.0370  1.3108
 6577TIP3   OH241145   1.587   4.955  14.860  0.5398 -0.3591 -0.0926
 6577TIP3    H141146   1.498   4.985  14.878  0.8847  0.7960 -0.2184
 6577TIP3    H241147   1.622   5.020  14.799  1.8019 -0.2425  0.7275
 6578TIP3   OH241148   2.984   3.705  10.765  0.2301  0.6969  0.3303
 6578TIP3    H141149   3.072   3.703  10.725  0.1567  0.1471  0.1864
 6578TIP3    H241150   2.983   3.629  10.823 -1.5124 -1.7824 -2.6491
 6579TIP3   OH241151   4.727   3.291  15.433 -0.3488  0.0458  0.3690
 6579TIP3    H141152   4.717   3.235  15.510 -0.5426  0.2740  0.5100
 6579TIP3    H241153   4.815   3.327  15.440 -0.5827  0.5453  0.8058
 6580TIP3   OH241154   2.415   0.488  13.626  0.3207 -0.0667 -0.5754
 6580TIP3    H141155   2.437   0.410  13.576  2.2604  0.2420 -0.2644
 6580TIP3    H241156   2.451   0.472  13.713  1.9177  1.6584 -0.8441
 6581TIP3   OH241157   4.966   5.536   6.805  0.3823 -0.1374  0.0388
 6581TIP3    H141158   5.041   5.478   6.794  0.6597  0.7054 -3.8108
 6581TIP3    H241159   5.004   5.623   6.813 -0.1471  0.1010  0.0033
 6582TIP3   OH241160   6.350   3.700  12.062  0.0477 -0.1902 -0.3070
 6582TIP3    H141161   6.349   3.758  12.139  2.0421 -0.5011 -0.0066
 6582TIP3    H241162   6.291   3.742  12.000 -0.9837  0.4956  1.0813
 6583TIP3   OH241163   1.915   3.375  11.848 -0.4575 -0.2264 -0.0546
 6583TIP3    H141164   1.864   3.409  11.923  0.9745  1.3590  0.2664
 6583TIP3    H241165   1.927   3.451  11.792  1.8336 -0.4464  0.0631
 6584TIP3   OH241166   6.203   5.304  15.164 -0.0777  0.0874 -0.7226
 6584TIP3    H141167   6.107   5.297  15.164 -0.1374  0.6856 -1.4919
 6584TIP3    H241168   6.231   5.241  15.098  0.1718 -1.0892  0.4624
 6585TIP3   OH241169   3.181   5.503  17.072  0.8122  0.2978  0.5402
 6585TIP3    H141170   3.239   5.462  17.137 -0.6559  0.4898  2.0233
 6585TIP3    H241171   3.152   5.431  17.017  0.7401 -0.1483  1.1543
 6586TIP3   OH241172   2.330   4.459  16.721  0.2227  0.3022  0.1050
 6586TIP3    H141173   2.261   4.525  16.720 -1.3648 -1.2679  0.2010
 6586TIP3    H241174   2.293   4.387  16.773  2.5592  0.0072  1.5185
 6587TIP3   OH241175   1.818   6.653   1.164  0.1587  0.1529  0.2526
 6587TIP3    H141176   1.872   6.731   1.174 -0.8805  0.8210  0.7482
 6587TIP3    H241177   1.766   6.649   1.244 -0.4692 -0.5324 -0.1774
 6588TIP3   OH241178   3.954   0.305   4.954 -0.5095  0.0781 -0.5608
 6588TIP3    H141179   3.972   0.213   4.977 -0.8582  0.3268  0.7887
 6588TIP3    H241180   3.878   0.300   4.898 -1.9944 -0.3509  1.3743
 6589TIP3   OH241181   0.810   0.894   2.929 -0.0779 -0.2050  0.0562
 6589TIP3    H141182   0.778   0.898   3.019 -1.7358 -1.1706 -0.4453
 6589TIP3    H241183   0.732   0.909   2.875  1.0094  1.0934 -1.2359
 6590TIP3   OH241184   1.056   5.591   4.503 -0.2858 -0.3093  0.1551
 6590TIP3    H141185   1.102   5.508   4.515 -0.2953 -0.0319  2.7954
 6590TIP3    H241186   1.103   5.653   4.559 -2.1871  0.6264  0.8356
 6591TIP3   OH241187   6.707   4.888   3.217 -0.1565 -0.3324 -0.3291
 6591TIP3    H141188   6.656   4.941   3.279  0.0448 -1.2908  0.6920
 6591TIP3    H241189   6.769   4.950   3.179 -0.3662  0.3172  0.3573
 6592TIP3   OH241190   4.300   5.037   4.484 -0.2465  0.2276 -0.3048
 6592TIP3    H141191   4.220   4.985   4.488 -0.3107  0.3675  1.7561
 6592TIP3    H241192   4.348   5.011   4.563  1.8225  0.0309 -1.5831
 6593TIP3   OH241193   3.972   0.987  17.525 -0.3003 -0.7859 -0.1615
 6593TIP3    H141194   3.888   1.018  17.558  0.6766  0.5264  1.2259
 6593TIP3    H241195   3.950   0.938  17.446 -2.2601  0.3904 -0.4154
 6594TIP3   OH241196   4.020   2.090  12.722  0.2068 -0.5911 -0.3016
 6594TIP3    H141197   4.018   1.994  12.732 -0.6223 -0.5397  0.0642
 6594TIP3    H241198   3.953   2.109  12.657  0.8309 -0.3065 -0.8738
 6595TIP3   OH241199   5.297   6.553   1.645  0.3432  0.1287  0.0093
 6595TIP3    H141200   5.372   6.505   1.681  0.0179  0.5179  1.2483
 6595TIP3    H241201   5.308   6.547   1.550  2.2877  0.7155  0.1545
 6596TIP3   OH241202   2.730   6.544  15.558  0.4634  0.4529 -0.0902
 6596TIP3    H141203   2.787   6.488  15.611 -1.6440 -2.0754 -0.2590
 6596TIP3    H241204   2.723   6.626  15.607  0.5858 -0.8733  2.3048
 6597TIP3   OH241205   2.844   5.478   5.232  0.0156  0.1610 -0.5846
 6597TIP3    H141206   2.770   5.424   5.205 -0.9369  2.3580 -2.7352
 6597TIP3    H241207   2.910   5.464   5.163  0.7314 -0.0654  0.1284
 6598TIP3   OH241208   5.404   0.910   5.263  0.3396  0.1836 -0.2102
 6598TIP3    H141209   5.455   0.963   5.325  0.6539 -0.2293 -0.1116
 6598TIP3    H241210   5.341   0.864   5.318 -0.4269  1.0132 -0.3788
 6599TIP3   OH241211   5.325   3.560  16.848 -0.8368 -0.3078 -0.2126
 6599TIP3    H141212   5.404   3.580  16.797  0.3380 -1.8081  0.9176
 6599TIP3    H241213   5.292   3.645  16.877 -1.1526  0.5401 -2.8203
 6600TIP3   OH241214   6.178   2.588   5.647  0.1462 -0.3687  0.1251
 6600TIP3    H141215   6.200   2.677   5.674 -3.3261  0.8042 -0.4281
 6600TIP3    H241216   6.240   2.568   5.577  3.9257 -0.2874  3.1128
 6601TIP3   OH241217   4.905   2.703  14.421 -0.5779 -0.1923  0.7684
 6601TIP3    H141218   4.995   2.678  14.440  0.7252  0.8771 -2.9854
 6601TIP3    H241219   4.901   2.796  14.441 -0.3275  0.0862 -0.3636
 6602TIP3   OH241220   0.060   1.968  12.440  0.3551 -0.2289  0.2627
 6602TIP3    H141221  -0.007   2.020  12.395  1.3549  1.8652  1.0318
 6602TIP3    H241222   0.064   2.006  12.528  1.8079 -0.9966  0.5507
 6603TIP3   OH241223   4.453   4.814   1.746  0.4195 -0.5354  0.1654
 6603TIP3    H141224   4.391   4.742   1.755 -0.4353  0.0344 -0.9012
 6603TIP3    H241225   4.534   4.773   1.716  0.8043 -1.3747  2.1857
 6604TIP3   OH241226   2.451   4.835  13.817 -0.6384 -0.2636  0.1656
 6604TIP3    H141227   2.390   4.817  13.746 -2.2657 -1.0918  1.6983
 6604TIP3    H241228   2.396   4.852  13.893  1.0316 -0.8041  1.5723
 6605TIP3   OH241229   5.262   3.345  16.678  0.0500 -0.0094 -0.2832
 6605TIP3    H141230   5.335   3.285  16.660 -0.7634 -1.5487  1.2486
 6605TIP3    H241231   5.300   3.412  16.736  0.5142 -0.1524 -0.4178
 6606TIP3   OH241232   0.660   0.740  13.885  0.0782  0.1653  0.2593
 6606TIP3    H141233   0.747   0.763  13.852  0.2769  0.0912  0.7333
 6606TIP3    H241234   0.604   0.745  13.807  0.2810  1.3271  0.1588
 6607TIP3   OH241235   4.414   1.209  15.213 -0.0075  0.1938  0.3714
 6607TIP3    H141236   4.351   1.250  15.272 -0.6533 -0.6961  0.3347
 6607TIP3    H241237   4.366   1.197  15.131 -0.2104 -1.5460  0.6889
 6608TIP3   OH241238   1.983   2.027   5.528  0.3264  0.0028 -0.3321
 6608TIP3    H141239   2.045   2.052   5.597  0.3416  0.6085 -0.5549
 6608TIP3    H241240   1.909   1.989   5.575 -0.5894  2.3028  0.2216
 6609TIP3   OH241241   4.681   4.512   0.734  0.9011 -0.3894 -0.3997
 6609TIP3    H141242   4.706   4.547   0.649 -1.5480  1.6995 -0.3710
 6609TIP3    H241243   4.631   4.433   0.715 -1.5915  1.2558 -1.1782
 6610TIP3   OH241244   5.125   4.725  15.018  0.0008 -0.7091  1.0738
 6610TIP3    H141245   5.141   4.694  15.107  3.0588  3.0693  2.0796
 6610TIP3    H241246   5.044   4.776  15.024  0.6433  0.2310  1.9291
 6611TIP3   OH241247   5.644   3.448   3.443  0.0618  0.1754  0.1237
 6611TIP3    H141248   5.670   3.511   3.375 -0.1712 -0.8497 -0.9443
 6611TIP3    H241249   5.724   3.435   3.494  0.0689  1.4640  0.4849
 6612TIP3   OH241250   4.241   1.743   1.691  0.0733 -0.4384 -0.0749
 6612TIP3    H141251   4.149   1.768   1.680 -0.6958 -1.9128  2.3299
 6612TIP3    H241252   4.251   1.665   1.637 -0.9191 -1.9048  1.7735
 6613TIP3   OH241253   2.686   2.339   0.275  0.2973 -0.4995  0.2760
 6613TIP3    H141254   2.697   2.260   0.221  1.5011 -1.5270  1.9342
 6613TIP3    H241255   2.769   2.347   0.322 -0.1328  1.2922  0.7855
 6614TIP3   OH241256   2.594   4.561  14.409 -0.1671 -0.3646  0.0700
 6614TIP3    H141257   2.579   4.581  14.502 -2.4820 -0.6186 -0.1880
 6614TIP3    H241258   2.622   4.469  14.409 -0.1049 -0.3507  0.5259
 6615TIP3   OH241259   5.568   5.514   1.170  0.4969 -0.6606 -0.0422
 6615TIP3    H141260   5.660   5.485   1.173  0.0885 -2.0956 -0.6818
 6615TIP3    H241261   5.518   5.437   1.199 -0.5560 -0.1633 -0.5026
 6616TIP3   OH241262   2.926   3.242   5.127  0.8541  0.1285  0.5169
 6616TIP3    H141263   2.915   3.337   5.139 -0.4922  0.1234 -0.4829
 6616TIP3    H241264   2.839   3.205   5.143  1.3203 -0.9246  0.7063
 6617TIP3   OH241265   3.723   2.416   5.129 -0.1147 -0.2199 -0.0970
 6617TIP3    H141266   3.674   2.490   5.165 -0.2723 -0.5449  0.3837
 6617TIP3    H241267   3.811   2.450   5.113  0.3122 -0.3458  1.7422
 6618TIP3   OH241268   1.050   0.798   3.857 -0.0261  0.5601 -0.2454
 6618TIP3    H141269   1.068   0.889   3.881  1.0512  0.0519  1.0096
 6618TIP3    H241270   1.040   0.752   3.940  0.8161 -0.7155 -0.8003
 6619TIP3   OH241271   3.173   5.094   0.341 -0.0015  0.4080  0.2575
 6619TIP3    H141272   3.218   5.033   0.283 -0.6500 -0.0160  0.1919
 6619TIP3    H241273   3.143   5.164   0.283 -1.0028 -0.2166 -0.0013
 6620TIP3   OH241274   5.721   0.662   1.557 -0.6402 -0.1312  0.1538
 6620TIP3    H141275   5.649   0.691   1.612 -0.9392 -1.8316  0.7187
 6620TIP3    H241276   5.725   0.726   1.487 -2.1502  0.4667  0.5775
 6621TIP3   OH241277   6.230   4.225   3.085  0.7548 -0.6225  0.2185
 6621TIP3    H141278   6.191   4.142   3.114  2.7900 -2.0830 -0.8876
 6621TIP3    H241279   6.185   4.245   3.003 -0.4388 -0.0707  0.9951
 6622TIP3   OH241280   1.199   5.971  13.018  0.2846  0.2841 -0.1673
 6622TIP3    H141281   1.271   5.912  12.995 -0.3774  0.1166 -1.9334
 6622TIP3    H241282   1.173   5.943  13.106  1.7481 -0.2512  0.1348
 6623TIP3   OH241283   3.715   2.110  16.951 -0.1715 -0.4606 -0.3072
 6623TIP3    H141284   3.674   2.187  16.912  0.3341 -0.2228 -0.3760
 6623TIP3    H241285   3.651   2.078  17.015  0.4070  1.1729  1.1499
 6624TIP3   OH241286   5.727   6.444   4.954  0.0198 -0.3473 -0.2188
 6624TIP3    H141287   5.758   6.355   4.935 -0.8595 -1.1084  1.6270
 6624TIP3    H241288   5.804   6.489   4.987  0.0630 -1.0603  0.7115
 6625TIP3   OH241289   6.461   6.683  14.267  0.2678 -0.6559 -0.4985
 6625TIP3    H141290   6.530   6.671  14.333 -0.6533 -0.2418  0.5872
 6625TIP3    H241291   6.473   6.773  14.237  0.1628 -0.5575 -0.2519
 6626TIP3   OH241292   3.027   5.671   1.174  0.6398  0.0122  0.2605
 6626TIP3    H141293   3.062   5.599   1.122 -0.3295 -0.9590  0.8912
 6626TIP3    H241294   3.104   5.721   1.202  1.1397  1.3668 -3.0958
 6627TIP3   OH241295   3.675   5.387   1.517 -0.3502  0.2749 -0.0034
 6627TIP3    H141296   3.607   5.327   1.489 -1.3150  1.3905 -0.1297
 6627TIP3    H241297   3.671   5.459   1.454  2.1260 -0.4184 -1.0637
 6628TIP3   OH241298   3.372   5.607  16.131  0.0830 -0.3599 -0.3238
 6628TIP3    H141299   3.343   5.695  16.107  1.3148  0.0470 -0.3630
 6628TIP3    H241300   3.419   5.575  16.054  1.4038 -0.2393  0.4040
 6629TIP3   OH241301   5.674   4.038  13.470 -0.2474 -0.0740 -0.2286
 6629TIP3    H141302   5.658   3.978  13.397 -1.4099 -0.7811  0.5631
 6629TIP3    H241303   5.625   4.117  13.448  2.1315  1.1163 -1.7856
 6630TIP3   OH241304   5.441   6.474  14.194  0.3445 -0.2292 -0.2839
 6630TIP3    H141305   5.535   6.464  14.207  0.4111 -1.3829 -1.4458
 6630TIP3    H241306   5.407   6.384  14.196 -0.5681  0.0836 -0.9614
 6631TIP3   OH241307   2.869   5.634   6.062 -0.4184  0.0857 -0.2292
 6631TIP3    H141308   2.845   5.547   6.095 -1.8451 -0.1531 -1.7442
 6631TIP3    H241309   2.845   5.694   6.132 -0.5447 -0.6419  0.3639
 6632TIP3   OH241310   0.041   5.563   2.650  0.1202  0.1231 -0.6010
 6632TIP3    H141311   0.007   5.477   2.672 -1.9790  1.2490  1.0102
 6632TIP3    H241312  -0.026   5.602   2.593  1.3175  0.5076 -1.7930
 6633TIP3   OH241313   4.896   5.189  14.241  0.1288  0.4047  0.3278
 6633TIP3    H141314   4.940   5.105  14.258  1.9131  1.0574 -0.8880
 6633TIP3    H241315   4.885   5.228  14.328 -0.8456 -1.1045  0.9306
 6634TIP3   OH241316   1.421   5.115  14.601  0.0499  0.6908  0.0908
 6634TIP3    H141317   1.432   5.075  14.515 -0.9762 -0.5311  0.5128
 6634TIP3    H241318   1.510   5.120  14.636  0.1887 -1.8642  0.2904
 6635TIP3   OH241319   3.793   2.119   3.188  0.1816  0.1695  0.0558
 6635TIP3    H141320   3.827   2.032   3.168 -1.2614 -0.1041 -1.4698
 6635TIP3    H241321   3.744   2.145   3.109 -1.4166  1.3457  1.3389
 6636TIP3   OH241322   4.610   1.921   0.194  0.0516  0.1401 -0.0071
 6636TIP3    H141323   4.542   1.963   0.141  0.0392  0.1626  0.0267
 6636TIP3    H241324   4.638   1.846   0.142  1.3767  1.2211 -0.9422
 6637TIP3   OH241325   1.425   3.795  15.493 -0.2334  0.3306  0.3621
 6637TIP3    H141326   1.370   3.735  15.544  1.5325 -0.7739  1.0661
 6637TIP3    H241327   1.416   3.879  15.537 -2.9720  0.7549 -0.8000
 6638TIP3   OH241328   2.871   4.956  13.130  0.0262 -0.3472 -0.4307
 6638TIP3    H141329   2.854   4.949  13.036  0.1172 -0.9187 -0.4123
 6638TIP3    H241330   2.922   4.877  13.150 -0.4900 -0.5224  0.2063
 6639TIP3   OH241331   3.677   0.800  16.447 -0.1632  0.3711 -0.0329
 6639TIP3    H141332   3.666   0.799  16.352  0.7742 -0.4790 -0.1566
 6639TIP3    H241333   3.737   0.873  16.464 -0.2125  0.4302 -0.1181
 6640TIP3   OH241334   2.148   6.374  17.259 -0.5869  0.5840 -0.4040
 6640TIP3    H141335   2.175   6.445  17.317 -1.5888  0.4279  0.2745
 6640TIP3    H241336   2.069   6.406  17.216 -1.0789 -0.1280 -0.0569
 6641TIP3   OH241337   2.438   0.182  11.603  0.2430 -0.1734  0.5949
 6641TIP3    H141338   2.429   0.091  11.629  1.5526 -0.9287 -1.3365
 6641TIP3    H241339   2.444   0.230  11.685  1.1388 -2.0118  1.6663
 6642TIP3   OH241340   4.331   4.552  12.810 -0.2252 -0.0118 -0.2348
 6642TIP3    H141341   4.400   4.592  12.757 -0.2734  1.3773  0.6885
 6642TIP3    H241342   4.296   4.625  12.862 -0.8198 -1.1327  0.9933
 6643TIP3   OH241343   0.227   3.026   0.256  0.1900 -0.0966 -0.1502
 6643TIP3    H141344   0.217   3.013   0.162  0.4296  0.9145 -0.3341
 6643TIP3    H241345   0.182   3.109   0.273 -1.0680 -0.9747  0.8715
 6644TIP3   OH241346   3.162   0.787  12.533  0.0746  0.0520 -0.2035
 6644TIP3    H141347   3.206   0.851  12.476  0.9511  0.2340  0.6643
 6644TIP3    H241348   3.139   0.837  12.611  2.0250 -0.9805  1.0877
 6645TIP3   OH241349   0.255   6.196  14.574  0.6214  0.0237 -0.4015
 6645TIP3    H141350   0.265   6.107  14.542  5.0344  0.8630 -2.0531
 6645TIP3    H241351   0.211   6.243  14.503 -3.2071 -0.9043  1.0931
 6646TIP3   OH241352   3.183   3.912  13.187 -0.1886 -0.3519  0.1389
 6646TIP3    H141353   3.197   4.000  13.153 -1.3001  0.0449  0.6663
 6646TIP3    H241354   3.263   3.865  13.166  0.2219  0.6440 -0.5934
 6647TIP3   OH241355   1.706   5.565   0.806 -0.0222 -0.2561  0.3353
 6647TIP3    H141356   1.664   5.619   0.872  1.3284 -0.7393  1.6653
 6647TIP3    H241357   1.799   5.586   0.814  0.0684  1.0813 -2.7652
 6648TIP3   OH241358   0.744   4.007  16.299 -0.0565 -0.0107  0.0192
 6648TIP3    H141359   0.673   3.952  16.332 -0.8934  1.8601  1.4833
 6648TIP3    H241360   0.737   3.998  16.203 -1.5869 -0.6811  0.1550
 6649TIP3   OH241361   0.670   0.875   3.170 -0.3721  0.2278 -0.7521
 6649TIP3    H141362   0.599   0.835   3.220  1.5291 -1.9837  0.4003
 6649TIP3    H241363   0.689   0.957   3.216 -1.6331  0.4489 -0.6053
 6650TIP3   OH241364   5.576   0.503   2.232  0.0372 -0.1033 -0.2858
 6650TIP3    H141365   5.488   0.500   2.195 -0.5840  0.2856  1.0911
 6650TIP3    H241366   5.571   0.449   2.311  0.9116  0.2582  0.0387
 6651TIP3   OH241367   2.666   1.469   2.264 -0.1228  0.2468 -0.3619
 6651TIP3    H141368   2.627   1.382   2.256  0.9003 -0.1658 -0.9927
 6651TIP3    H241369   2.606   1.527   2.216 -0.7591 -0.1157 -0.0108
 6652TIP3   OH241370   3.914   2.804  16.014 -0.3566  0.6115  0.3027
 6652TIP3    H141371   3.961   2.821  15.932  2.5966  0.6066  1.8367
 6652TIP3    H241372   3.836   2.859  16.009  1.6332  3.5805 -0.9697
 6653TIP3   OH241373   3.034   3.216  13.263  1.0669 -0.4055 -0.0668
 6653TIP3    H141374   3.080   3.283  13.314  1.3046  0.4873 -1.3961
 6653TIP3    H241375   3.056   3.134  13.306 -0.2674  0.4221  2.4120
 6654TIP3   OH241376   1.160   6.629   5.020 -0.3877  0.1761  0.6475
 6654TIP3    H141377   1.109   6.549   5.009 -0.8254  0.5252  0.0910
 6654TIP3    H241378   1.198   6.644   4.933 -0.7476  0.8662  0.6073
 6655TIP3   OH241379   5.077   1.729   0.429  0.1451  0.1731  1.0876
 6655TIP3    H141380   5.155   1.785   0.433  0.6238 -0.3534 -0.1280
 6655TIP3    H241381   5.094   1.670   0.355 -0.8631 -0.7936  1.5955
 6656TIP3   OH241382   1.743   2.211  16.328 -0.4790  0.4470 -0.2043
 6656TIP3    H141383   1.674   2.238  16.388 -0.4684  0.0198 -0.0021
 6656TIP3    H241384   1.803   2.158  16.381 -1.0123 -0.8126 -0.8235
 6657TIP3   OH241385   1.840   6.569   4.964 -0.4790  0.5247  0.0693
 6657TIP3    H141386   1.864   6.661   4.968  0.6689  0.2343  0.4980
 6657TIP3    H241387   1.902   6.530   4.902 -1.5593  0.1980 -0.8401
 6658TIP3   OH241388   5.365   1.245   1.507 -0.3317  0.4531  0.5177
 6658TIP3    H141389   5.309   1.289   1.571 -2.1490 -0.9271 -0.0601
 6658TIP3    H241390   5.324   1.263   1.422  2.6543  3.2673 -0.5897
 6659TIP3   OH241391   2.242   3.494   5.249 -0.3016 -0.5501  0.0748
 6659TIP3    H141392   2.269   3.521   5.161  1.1060 -1.6936  0.1094
 6659TIP3    H241393   2.294   3.415   5.267  0.1620  0.1797  2.2970
 6660TIP3   OH241394   3.280   4.883  16.669  0.3982 -0.7398  0.4092
 6660TIP3    H141395   3.285   4.792  16.641  0.0241 -0.9340  0.9623
 6660TIP3    H241396   3.370   4.914  16.665  0.7590 -1.5804  1.6802
 6661TIP3   OH241397   2.432   1.990  16.652  0.4369  0.5438  0.1881
 6661TIP3    H141398   2.514   2.024  16.617  0.3101  0.6018 -0.0543
 6661TIP3    H241399   2.386   2.066  16.687  0.0500  0.6607 -0.5638
 6662TIP3   OH241400   0.760   6.229  11.151  0.1651 -0.2722  0.3356
 6662TIP3    H141401   0.769   6.281  11.231  0.1621 -0.4559  0.4563
 6662TIP3    H241402   0.849   6.216  11.120  0.2639 -1.2475  0.9866
 6663TIP3   OH241403   6.622   2.119  16.098 -0.8238 -0.6070 -0.4848
 6663TIP3    H141404   6.657   2.203  16.070  0.3193 -0.8009  0.3320
 6663TIP3    H241405   6.537   2.140  16.136  0.5889  0.5793  2.2352
 6664TIP3   OH241406   6.608   5.989   2.065 -0.0443 -0.1397 -0.1133
 6664TIP3    H141407   6.660   5.983   2.144  1.4840  2.2457 -0.8585
 6664TIP3    H241408   6.601   6.082   2.047 -1.6867 -0.5472 -1.9487
 6665TIP3   OH241409   4.975   2.004   4.131 -0.3206 -0.4427 -0.2902
 6665TIP3    H141410   4.964   2.018   4.037  0.7571 -2.2279 -0.7153
 6665TIP3    H241411   4.893   1.964   4.159 -2.2284  3.3877  0.3761
 6666TIP3   OH241412   4.241   3.885  10.840 -0.0048 -0.0911 -0.1152
 6666TIP3    H141413   4.247   3.844  10.753  0.4431 -1.8519  0.7042
 6666TIP3    H241414   4.181   3.828  10.889  1.6650 -0.5662  1.4801
 6667TIP3   OH241415   4.881   4.568  15.820 -0.1446  0.2546 -0.0159
 6667TIP3    H141416   4.938   4.623  15.767  0.9955  0.4787  1.3939
 6667TIP3    H241417   4.825   4.523  15.756  2.2557 -0.7349 -1.5657
 6668TIP3   OH241418   5.556   0.124  11.819 -0.4340 -0.1558 -0.1267
 6668TIP3    H141419   5.566   0.051  11.757  3.4074 -1.4373  1.6420
 6668TIP3    H241420   5.583   0.088  11.903 -2.6837  2.2635  1.8067
 6669TIP3   OH241421   3.838   2.212   2.317  0.1979 -0.2254  0.6622
 6669TIP3    H141422   3.768   2.147   2.320 -1.7737  1.7639  0.2963
 6669TIP3    H241423   3.843   2.239   2.226 -0.7825  1.8415  1.1443
 6670TIP3   OH241424   4.314   3.918  14.646  0.3407 -0.0393 -0.2976
 6670TIP3    H141425   4.278   3.830  14.655 -0.9006  0.3836 -0.9385
 6670TIP3    H241426   4.271   3.954  14.569  0.0949  1.4892  0.5155
 6671TIP3   OH241427   1.154   2.272   4.203 -0.4998  0.4157  0.3573
 6671TIP3    H141428   1.083   2.227   4.250 -0.6213 -1.4289 -1.4183
 6671TIP3    H241429   1.233   2.228   4.232 -0.3237  0.8730  0.5775
 6672TIP3   OH241430   0.495   6.471   5.303 -0.0155  0.6523 -0.5293
 6672TIP3    H141431   0.497   6.376   5.317  1.5013  0.4200 -1.9526
 6672TIP3    H241432   0.403   6.495   5.314 -0.2252 -0.7487  1.1933
 6673TIP3   OH241433   0.470   0.647   2.639  0.0575  0.6432  0.2355
 6673TIP3    H141434   0.543   0.708   2.643  2.0889 -1.6888  1.8159
 6673TIP3    H241435   0.432   0.650   2.727  1.3448 -1.5544  0.9433
 6674TIP3   OH241436   0.166   2.000   0.809 -0.0176  0.4849  0.1009
 6674TIP3    H141437   0.101   1.947   0.854  1.4906 -0.6300  1.0391
 6674TIP3    H241438   0.115   2.057   0.751 -1.8560  0.2947  1.4772
 6675TIP3   OH241439   1.213   4.395  16.164 -0.2289  0.2042 -0.7367
 6675TIP3    H141440   1.127   4.423  16.134  0.9253  1.3193 -3.3510
 6675TIP3    H241441   1.202   4.377  16.257 -2.9396  1.7245 -0.6718
 6676TIP3   OH241442   6.042   5.925  16.003  0.4160  0.1241 -0.0171
 6676TIP3    H141443   6.006   5.860  16.063  1.7123  1.1362  1.9731
 6676TIP3    H241444   6.132   5.896  15.987  1.5297  2.0335  2.0740
 6677TIP3   OH241445   6.271   4.797   3.467  0.2738 -0.0647 -0.1205
 6677TIP3    H141446   6.303   4.722   3.417 -3.8962 -3.0645  1.1645
 6677TIP3    H241447   6.342   4.816   3.529  1.4005 -3.2122 -0.2695
 6678TIP3   OH241448   5.681   4.164  16.811 -0.3716 -0.2312  0.6558
 6678TIP3    H141449   5.695   4.073  16.836  2.2937  0.6061  2.6986
 6678TIP3    H241450   5.684   4.163  16.715  2.2940 -2.0108  0.6479
 6679TIP3   OH241451   4.294   5.058   2.030 -0.5259 -0.2875  0.0005
 6679TIP3    H141452   4.277   5.142   1.988  0.1398 -0.1535 -0.0200
 6679TIP3    H241453   4.388   5.044   2.017 -1.0304 -2.2120 -2.1628
 6680TIP3   OH241454   1.479   6.396   1.987 -0.4541 -0.7733  0.1370
 6680TIP3    H141455   1.512   6.409   2.076 -0.4008 -3.3714  0.5625
 6680TIP3    H241456   1.550   6.428   1.931 -0.1009  0.0185  1.0012
 6681TIP3   OH241457   4.326   6.535  14.220 -0.0003  0.3166 -0.7453
 6681TIP3    H141458   4.335   6.629  14.234 -0.1482  0.1697  0.4297
 6681TIP3    H241459   4.254   6.509  14.278  2.4097 -1.1126  1.8676
 6682TIP3   OH241460   0.188   4.369  14.110  0.5301  0.1035  0.2473
 6682TIP3    H141461   0.122   4.335  14.170  0.0268  0.8202  0.1202
 6682TIP3    H241462   0.191   4.463  14.129  0.4107  0.3329 -0.7916
 6683TIP3   OH241463   6.242   5.610  15.940  0.0968 -0.1112  0.2608
 6683TIP3    H141464   6.281   5.694  15.962 -1.0574  0.3231  0.7049
 6683TIP3    H241465   6.296   5.577  15.868  0.8108  0.8148  0.3575
 6684TIP3   OH241466   3.037   6.102  17.211 -0.1817 -0.4922 -0.3254
 6684TIP3    H141467   2.969   6.168  17.229  0.3562  0.2245 -0.8571
 6684TIP3    H241468   3.035   6.045  17.287 -0.9153 -0.0777 -0.0191
 6685TIP3   OH241469   1.632   6.622  17.504 -0.7263 -0.0213  0.1733
 6685TIP3    H141470   1.596   6.571  17.577  2.0054 -2.0453  0.2738
 6685TIP3    H241471   1.608   6.571  17.426 -1.0940  0.5484 -0.0926
 6686TIP3   OH241472   4.895   2.025  16.759 -0.4951 -0.3318  0.2100
 6686TIP3    H141473   4.920   2.047  16.849 -0.9412 -0.4003  0.3521
 6686TIP3    H241474   4.820   2.081  16.740  1.2460  1.7243 -1.1097
 6687TIP3   OH241475   3.016   6.427  12.354 -0.2123  0.1645 -0.4545
 6687TIP3    H141476   2.949   6.478  12.309 -0.5514  0.3166  0.2138
 6687TIP3    H241477   3.062   6.382  12.284  0.8563  2.2491 -1.1674
 6688TIP3   OH241478   0.077   1.967   3.953  0.2288  0.0943  0.0028
 6688TIP3    H141479   0.022   1.907   3.903  0.7923  0.2055 -0.7744
 6688TIP3    H241480   0.016   2.018   4.006 -0.2791 -0.9115  0.4034
 6689TIP3   OH241481   5.849   2.756  11.433 -0.8001  0.3528 -0.2422
 6689TIP3    H141482   5.788   2.805  11.488  1.5203  2.6798  0.4479
 6689TIP3    H241483   5.806   2.751  11.348 -1.5825  2.8484 -0.0821
 6690TIP3   OH241484   0.128   2.684   1.024 -0.1650  0.1301  0.5965
 6690TIP3    H141485   0.085   2.708   0.941 -0.4217 -1.8160  0.1339
 6690TIP3    H241486   0.123   2.764   1.077 -0.2328  1.3511 -1.1433
 6691TIP3   OH241487   2.415   2.598  15.006 -0.1361 -0.0035  0.0600
 6691TIP3    H141488   2.322   2.596  14.982 -0.0486 -0.7925 -0.2455
 6691TIP3    H241489   2.431   2.688  15.032 -0.8574  0.2732 -0.4156
 6692TIP3   OH241490   0.949   0.221  12.997 -0.4580 -0.3566  0.0628
 6692TIP3    H141491   0.866   0.251  12.959 -0.0572  0.3898 -0.2498
 6692TIP3    H241492   0.927   0.197  13.087 -0.3956  3.4257  1.2906
 6693TIP3   OH241493   0.957   2.138  15.628  0.8254 -0.0388 -0.2383
 6693TIP3    H141494   1.002   2.101  15.552  0.5471  0.0925 -0.4689
 6693TIP3    H241495   0.978   2.078  15.700  1.8461  0.3360 -0.2078
 6694TIP3   OH241496   6.273   0.221   5.573  0.0894 -0.3585  0.7662
 6694TIP3    H141497   6.349   0.253   5.622  1.3612 -1.5334 -0.3674
 6694TIP3    H241498   6.295   0.131   5.550 -0.9071 -0.1948 -1.0288
 6695TIP3   OH241499   6.000   3.799   4.962 -0.1040 -0.2771  0.1514
 6695TIP3    H141500   6.084   3.821   5.001  0.0559 -0.9860  0.2143
 6695TIP3    H241501   5.999   3.703   4.958  0.8069 -0.3030 -3.5608
 6696TIP3   OH241502   5.588   4.808  13.930 -0.3834  0.6145 -0.6782
 6696TIP3    H141503   5.546   4.739  13.877  0.8564 -0.8265  0.1370
 6696TIP3    H241504   5.528   4.823  14.002  0.1177 -0.9646  0.1229
 6697TIP3   OH241505   6.165   3.525  12.278 -0.0883  0.5979  0.1625
 6697TIP3    H141506   6.171   3.572  12.195 -1.2987  0.6091  0.0696
 6697TIP3    H241507   6.149   3.434  12.254  0.5288  0.4225  0.3797
 6698TIP3   OH241508   5.728   1.699   3.444 -0.1775  0.0443 -0.0350
 6698TIP3    H141509   5.784   1.766   3.405  0.9764 -0.4535  0.6844
 6698TIP3    H241510   5.650   1.746   3.473  0.9007  1.2458  1.0829
 6699TIP3   OH241511   5.508   2.772  17.450 -0.2313 -0.1833 -0.3202
 6699TIP3    H141512   5.583   2.814  17.494 -0.6312  0.3557 -0.1385
 6699TIP3    H241513   5.538   2.760  17.360 -0.1814  0.7257 -0.4387
 6700TIP3   OH241514   0.626   3.940   6.381  0.1185 -0.3147 -0.3435
 6700TIP3    H141515   0.605   3.847   6.389 -1.6358  0.2179  2.3822
 6700TIP3    H241516   0.545   3.985   6.405  1.3683  1.9258 -0.0736
 6701TIP3   OH241517   3.024   4.176  13.764 -0.3052 -0.6669 -0.3838
 6701TIP3    H141518   3.059   4.219  13.841 -0.4990 -0.7273 -0.2608
 6701TIP3    H241519   3.096   4.122  13.731 -0.7149 -1.9122  0.6937
 6702TIP3   OH241520   3.283   3.306   3.229  0.6406  0.0869  0.3649
 6702TIP3    H141521   3.272   3.376   3.164 -0.9221  0.4195  0.9637
 6702TIP3    H241522   3.200   3.302   3.276  0.6731 -2.1846  0.3607
 6703TIP3   OH241523   4.429   4.518  14.445  0.3529 -0.4399 -0.0477
 6703TIP3    H141524   4.398   4.428  14.436 -1.0428 -0.0524  0.5414
 6703TIP3    H241525   4.470   4.521  14.531 -1.1650 -0.1305  0.7111
 6704TIP3   OH241526   4.074   2.859   0.961  1.0100 -0.7913  0.6440
 6704TIP3    H141527   3.986   2.824   0.975  1.2699 -1.3966  0.7992
 6704TIP3    H241528   4.076   2.885   0.869  0.7602 -1.0399  0.5692
 6705TIP3   OH241529   4.247   5.698  13.827  0.2890 -0.5539 -0.2972
 6705TIP3    H141530   4.301   5.646  13.768  0.7492 -1.0065  0.4989
 6705TIP3    H241531   4.194   5.634  13.874  0.8013 -0.3209  0.6357
 6706TIP3   OH241532   4.724   5.218  16.758 -0.6729 -0.5018  0.5762
 6706TIP3    H141533   4.802   5.210  16.812 -0.4205  1.8479  0.6697
 6706TIP3    H241534   4.758   5.226  16.669 -0.8884 -0.7295  0.4723
 6707TIP3   OH241535   3.731   0.366  16.926  0.1673 -0.4994 -0.0351
 6707TIP3    H141536   3.638   0.388  16.927  0.3903  0.5630  1.7969
 6707TIP3    H241537   3.733   0.270  16.931 -0.7976 -0.6766 -2.1176
 6708TIP3   OH241538   3.695   5.710  15.139  0.1541  0.5811  0.7460
 6708TIP3    H141539   3.767   5.663  15.098 -0.1769 -0.3921  1.2395
 6708TIP3    H241540   3.725   5.729  15.227  0.0584  0.7673  0.7393
 6709TIP3   OH241541   0.082   2.866   2.360 -0.3807 -0.4499 -0.0091
 6709TIP3    H141542   0.072   2.944   2.414  0.6785  0.0824 -0.5617
 6709TIP3    H241543   0.001   2.816   2.375 -1.4116  1.0928 -0.2243
 6710TIP3   OH241544   2.790   6.271   6.438 -0.2486 -0.3714  0.0724
 6710TIP3    H141545   2.738   6.320   6.374 -1.1832  0.1780  1.2159
 6710TIP3    H241546   2.726   6.218   6.485  0.3163 -0.1736  1.0799
 6711TIP3   OH241547   1.081   1.087   4.250 -0.5500 -0.2610  0.1794
 6711TIP3    H141548   1.092   0.997   4.219 -1.1605 -0.4978  0.6218
 6711TIP3    H241549   0.986   1.100   4.253 -0.4979  0.0098  1.1780
 6712TIP3   OH241550   6.185   0.722  12.721 -0.3336  0.2171  0.2349
 6712TIP3    H141551   6.243   0.708  12.646 -1.1261 -3.8270  0.2024
 6712TIP3    H241552   6.245   0.736  12.795  0.6005 -0.6346 -0.3405
 6713TIP3   OH241553   3.305   1.609   2.073  0.0450 -0.4725  0.0787
 6713TIP3    H141554   3.350   1.632   1.992  0.1976  2.0299  0.7857
 6713TIP3    H241555   3.222   1.657   2.070 -0.0647 -0.5427  1.2709
 6714TIP3   OH241556   0.069   1.527   2.553 -0.0794  0.6010 -0.2246
 6714TIP3    H141557   0.018   1.450   2.577  0.7923  0.3571  0.9495
 6714TIP3    H241558   0.006   1.587   2.515 -1.1321  0.0795  0.6565
 6715TIP3   OH241559   4.863   5.507   4.687  0.3103 -0.0344  0.0762
 6715TIP3    H141560   4.806   5.584   4.682  0.8533  0.4270  0.7218
 6715TIP3    H241561   4.922   5.516   4.612  0.4433  0.2449  0.2107
 6716TIP3   OH241562   2.331   6.660   2.381  0.0707  0.0460 -0.3442
 6716TIP3    H141563   2.336   6.701   2.467  0.1640  0.7900 -0.6919
 6716TIP3    H241564   2.419   6.667   2.345 -0.0271 -0.0207 -0.6056
 6717TIP3   OH241565   3.999   3.478  17.044 -0.2566 -0.0563  0.0394
 6717TIP3    H141566   4.051   3.488  17.123  1.3268 -0.5868 -0.8974
 6717TIP3    H241567   4.036   3.541  16.982 -2.5242  1.5329  0.1763
 6718TIP3   OH241568   5.295   5.448   2.823  0.6589  0.0606 -0.1813
 6718TIP3    H141569   5.282   5.525   2.767  0.1971  0.3692  0.3385
 6718TIP3    H241570   5.388   5.450   2.845  0.4505  1.0624  0.6653
 6719TIP3   OH241571   2.655   0.224   5.010 -0.2901  0.1462  0.5951
 6719TIP3    H141572   2.721   0.291   5.027 -1.1984  1.4299 -0.6909
 6719TIP3    H241573   2.591   0.235   5.080  0.4388 -0.5985  1.4059
 6720TIP3   OH241574   3.886   4.783   3.386  0.2057  0.2049  0.0883
 6720TIP3    H141575   3.951   4.768   3.455 -0.4712 -0.7251  0.5366
 6720TIP3    H241576   3.852   4.871   3.404  2.5478  1.4882 -1.1914
 6721TIP3   OH241577   4.271   0.929   6.494  0.2706 -0.1971 -0.1512
 6721TIP3    H141578   4.322   0.977   6.559 -1.4049 -1.0329  1.8743
 6721TIP3    H241579   4.272   0.838   6.524 -1.4965 -0.4115 -0.6074
 6722TIP3   OH241580   4.812   0.258   5.863 -0.5258 -0.0760  0.0016
 6722TIP3    H141581   4.795   0.242   5.770 -1.6869 -0.5657  0.2772
 6722TIP3    H241582   4.732   0.302   5.894  0.0291  0.4787  0.6724
 6723TIP3   OH241583   1.256   3.552  12.503 -0.3561  0.0619  0.3275
 6723TIP3    H141584   1.174   3.601  12.511 -0.1738  0.1453  2.3077
 6723TIP3    H241585   1.279   3.530  12.593  0.4712 -2.1970 -0.3721
 6724TIP3   OH241586   0.950   1.035  11.908 -0.6796 -0.7760  0.0788
 6724TIP3    H141587   0.878   1.062  11.965 -0.4209 -2.4401  1.2639
 6724TIP3    H241588   0.909   1.019  11.823 -1.6166 -1.2029  0.6048
 6725TIP3   OH241589   0.899   6.366   0.891  0.3728  0.8338 -0.2398
 6725TIP3    H141590   0.951   6.357   0.811  1.0665  1.9760  0.0582
 6725TIP3    H241591   0.955   6.414   0.951 -0.3724  0.5253  0.7277
 6726TIP3   OH241592   2.548   4.563  11.095  0.3480  0.1906  0.2874
 6726TIP3    H141593   2.631   4.561  11.047  0.4987  0.4209  0.5376
 6726TIP3    H241594   2.554   4.640  11.151  0.3491 -0.3219  1.0005
 6727TIP3   OH241595   2.218   0.783   6.417 -0.2226  0.7914  0.1525
 6727TIP3    H141596   2.203   0.711   6.357  0.8264  0.3126  0.4548
 6727TIP3    H241597   2.310   0.777   6.440  0.1672  2.8826 -0.6579
 6728TIP3   OH241598   4.994   6.272   5.132  0.1896  0.1475 -0.1391
 6728TIP3    H141599   5.069   6.332   5.125  2.1799 -2.2759 -1.3081
 6728TIP3    H241600   4.919   6.324   5.104  1.0670  3.1596  2.5263
 6729TIP3   OH241601   1.827   4.722  16.744  0.3797  0.3444 -0.0625
 6729TIP3    H141602   1.749   4.671  16.724 -0.2937  0.6085  1.7296
 6729TIP3    H241603   1.877   4.722  16.662 -1.4825  0.1899 -1.2634
 6730TIP3   OH241604   4.208   1.513   1.546  0.3308 -0.4179  0.5425
 6730TIP3    H141605   4.154   1.572   1.494  2.3352 -0.7590 -2.1610
 6730TIP3    H241606   4.164   1.428   1.540  0.2784 -0.3426 -0.2024
 6731TIP3   OH241607   0.775   2.011   0.073 -0.8506 -0.4478 -0.0638
 6731TIP3    H141608   0.694   1.972   0.042 -0.8096 -0.1052 -0.6246
 6731TIP3    H241609   0.844   1.970   0.020 -0.8293  0.5307 -0.8453
 6732TIP3   OH241610   3.498   1.542  16.329  0.1482  0.0685  0.3495
 6732TIP3    H141611   3.554   1.619  16.337 -0.1445  0.2416  0.7625
 6732TIP3    H241612   3.548   1.482  16.273  0.2211  0.6970 -0.2693
 6733TIP3   OH241613   4.564   2.463   1.719  0.3749 -0.0538  0.1842
 6733TIP3    H141614   4.484   2.499   1.759  1.4962 -0.2411  2.8300
 6733TIP3    H241615   4.585   2.524   1.648 -1.2919  0.8246  0.3845
 6734TIP3   OH241616   5.077   2.275   5.235 -0.0769 -0.1334  0.4720
 6734TIP3    H141617   5.042   2.363   5.221  0.9086  0.2039  0.0298
 6734TIP3    H241618   5.020   2.218   5.184 -0.0286  0.3926 -0.1759
 6735TIP3   OH241619   2.697   2.345   5.544 -0.0581 -0.5792  0.0282
 6735TIP3    H141620   2.766   2.290   5.579 -0.1695  0.3822  1.8516
 6735TIP3    H241621   2.698   2.424   5.598 -1.6049  0.1045 -0.8469
 6736TIP3   OH241622   3.531   3.314  12.621  0.2629  0.1454 -0.1518
 6736TIP3    H141623   3.536   3.339  12.529  0.0376 -2.2627 -0.9034
 6736TIP3    H241624   3.440   3.331  12.646  0.4732  1.3533 -0.1887
 6737TIP3   OH241625   6.198   4.299  17.128 -0.0545 -0.1946 -0.1255
 6737TIP3    H141626   6.142   4.375  17.137  0.9338  0.6434 -0.8007
 6737TIP3    H241627   6.260   4.322  17.058  0.2275 -1.6341 -0.3996
 6738TIP3   OH241628   2.924   3.271   2.390 -0.0567 -0.2213  0.1997
 6738TIP3    H141629   2.918   3.301   2.299  1.0796 -1.8210 -0.4385
 6738TIP3    H241630   2.891   3.345   2.442 -0.4966  0.8119 -1.4826
 6739TIP3   OH241631   0.978   1.945  15.816 -0.0626 -0.3341 -0.2818
 6739TIP3    H141632   1.046   1.881  15.836  0.1516  0.0953  0.3992
 6739TIP3    H241633   0.896   1.896  15.824  0.1673 -0.9883 -1.6178
 6740TIP3   OH241634   4.209   0.078  13.711  0.0225 -0.1091 -0.0027
 6740TIP3    H141635   4.202  -0.003  13.762 -1.8046 -1.1494 -1.7335
 6740TIP3    H241636   4.302   0.098  13.709  0.3124 -0.9179  2.3033
 6741TIP3   OH241637   2.038   5.990   2.835 -0.5032 -0.2869  0.2439
 6741TIP3    H141638   1.984   5.959   2.908  1.0228 -0.9995  1.1217
 6741TIP3    H241639   2.096   6.055   2.874 -0.6297  0.3865 -0.6574
 6742TIP3   OH241640   0.330   6.642  16.506  0.4773  0.3534 -0.4325
 6742TIP3    H141641   0.321   6.635  16.411 -0.0895  1.0554 -0.4382
 6742TIP3    H241642   0.403   6.703  16.519  2.9297 -2.4077 -0.3852
 6743TIP3   OH241643   0.025   0.810  11.323  0.3138 -0.2230  0.0247
 6743TIP3    H141644   0.052   0.830  11.413 -1.0928  1.2803  0.1614
 6743TIP3    H241645  -0.053   0.755  11.333 -0.8562  1.3283 -0.1977
 6744TIP3   OH241646   2.700   5.604  15.677  0.2549  0.5891 -0.0128
 6744TIP3    H141647   2.614   5.644  15.664 -0.6014 -0.8683  0.9012
 6744TIP3    H241648   2.715   5.553  15.598  0.6084  1.3642 -0.4619
 6745TIP3   OH241649   2.155   3.302  14.603  0.0013 -0.0694  0.1523
 6745TIP3    H141650   2.159   3.231  14.539  0.2052 -1.0952  1.2561
 6745TIP3    H241651   2.246   3.329  14.614 -0.0315  0.0933  0.0256
 6746TIP3   OH241652   1.087   4.321   0.005  0.4545 -0.0751  0.2647
 6746TIP3    H141653   1.031   4.371  -0.054 -0.6706 -2.2402 -0.5953
 6746TIP3    H241654   1.030   4.255   0.042  2.1374 -1.5545  0.3557
 6747TIP3   OH241655   5.059   5.094  12.172  0.2904  0.4135  0.0317
 6747TIP3    H141656   5.049   5.000  12.187 -0.5347  0.3374 -0.9045
 6747TIP3    H241657   5.025   5.134  12.252  1.0376 -0.0838  0.6121
 6748TIP3   OH241658   6.240   3.494   1.970  0.6109  0.0021 -0.5587
 6748TIP3    H141659   6.306   3.499   1.900 -0.0188 -2.8738 -1.4778
 6748TIP3    H241660   6.251   3.407   2.008 -0.7989  0.5331  1.1925
 6749TIP3   OH241661   1.174   4.535  15.212 -0.6677 -0.2103  0.2679
 6749TIP3    H141662   1.232   4.581  15.272 -1.5850  1.1439  0.1683
 6749TIP3    H241663   1.220   4.455  15.190  0.9068  0.5663  0.6253
 6750TIP3   OH241664   5.621   4.137   5.820  0.2861  0.2186 -0.6299
 6750TIP3    H141665   5.612   4.233   5.823  0.4238  0.2222 -0.1168
 6750TIP3    H241666   5.531   4.105   5.822  0.2393  0.3126  1.2041
 6751TIP3   OH241667   2.021   3.352   4.879 -0.4055  0.4532 -0.3029
 6751TIP3    H141668   2.031   3.435   4.927 -0.1982  0.5300 -0.4791
 6751TIP3    H241669   2.103   3.306   4.893  0.5854  1.4171 -2.3831
 6752TIP3   OH241670   0.983   1.798  13.943  0.1473  0.5114 -0.4436
 6752TIP3    H141671   0.942   1.712  13.945 -0.1303  0.6303 -0.9975
 6752TIP3    H241672   0.953   1.838  13.861  0.7314  0.9092 -0.4713
 6753TIP3   OH241673   0.412   2.429  11.322 -0.4878 -0.0200 -0.1458
 6753TIP3    H141674   0.501   2.438  11.288 -0.1515  0.2575  0.7631
 6753TIP3    H241675   0.418   2.459  11.413 -0.7822 -3.0307  0.9817
 6754TIP3   OH241676   6.182   1.166  11.399  0.0263 -0.1700 -0.1377
 6754TIP3    H141677   6.217   1.189  11.313  0.9068 -0.9294  0.0072
 6754TIP3    H241678   6.089   1.186  11.393  0.3260  1.1513 -0.7880
 6755TIP3   OH241679   6.635   3.874   5.593  0.3089 -0.4553 -0.0182
 6755TIP3    H141680   6.543   3.900   5.578  0.3167 -0.2025  0.3646
 6755TIP3    H241681   6.639   3.854   5.686  1.1574  1.6848  0.4672
 6756TIP3   OH241682   2.645   4.106  15.941 -0.0771  0.3400 -0.3739
 6756TIP3    H141683   2.695   4.187  15.934  0.4535  0.1040  0.5048
 6756TIP3    H241684   2.710   4.036  15.939 -0.5451 -0.0918 -1.3065
 6757TIP3   OH241685   2.890   5.334  14.772 -0.6664  0.2567 -0.1500
 6757TIP3    H141686   2.805   5.296  14.753 -1.0428  0.6372  0.7237
 6757TIP3    H241687   2.873   5.397  14.842  0.0401  1.5469 -1.0732
 6758TIP3   OH241688   0.424   2.317   6.302  0.2728 -0.2741 -0.0312
 6758TIP3    H141689   0.372   2.269   6.237  1.0444  0.5002 -1.2471
 6758TIP3    H241690   0.370   2.393   6.325 -0.4782 -1.1081  1.0950
 6759TIP3   OH241691   5.847   2.734  14.879 -0.4319 -0.2314  0.8969
 6759TIP3    H141692   5.768   2.711  14.831 -0.6548 -0.2687  1.2802
 6759TIP3    H241693   5.817   2.752  14.968 -0.1152  0.4785  0.8703
 6760TIP3   OH241694   6.442   1.121  17.620 -0.1197  0.4562 -0.5736
 6760TIP3    H141695   6.517   1.174  17.646  0.0137 -0.0873  0.1925
 6760TIP3    H241696   6.366   1.170  17.650  0.0051  0.2225  0.1548
 6761TIP3   OH241697   2.131   4.747   3.751 -0.1193 -0.3473 -0.1918
 6761TIP3    H141698   2.205   4.737   3.691 -1.1408 -1.2069 -1.3431
 6761TIP3    H241699   2.172   4.751   3.838  1.2460 -1.3551 -0.7522
 6762TIP3   OH241700   3.941   6.340   2.579  0.5834  0.0262 -0.1819
 6762TIP3    H141701   3.924   6.430   2.553  0.9445  0.4391  0.9684
 6762TIP3    H241702   3.856   6.307   2.610  0.9797  0.8728  1.9739
 6763TIP3   OH241703   3.847   0.835  12.116  0.2492  0.6339  0.3031
 6763TIP3    H141704   3.880   0.901  12.177  0.5909 -0.4370  1.3160
 6763TIP3    H241705   3.911   0.835  12.045  0.3182  1.2770  0.3534
 6764TIP3   OH241706   3.639   0.743  14.744 -0.6268 -0.0099 -0.2917
 6764TIP3    H141707   3.699   0.674  14.715 -1.6884 -1.0448 -0.1315
 6764TIP3    H241708   3.640   0.807  14.673  0.2766 -0.2537 -0.5147
 6765TIP3   OH241709   6.062   5.068  11.728 -0.0361  0.2941  0.4075
 6765TIP3    H141710   5.973   5.036  11.741  0.4568 -1.3135  0.0398
 6765TIP3    H241711   6.062   5.108  11.641  0.9340 -5.2239 -2.5735
 6766TIP3   OH241712   3.123   6.052  15.510  0.0709 -0.2661  0.4465
 6766TIP3    H141713   3.136   6.032  15.418  2.7890  0.9881  0.4598
 6766TIP3    H241714   3.168   5.983  15.558  1.1377  0.6013  0.7312
 6767TIP3   OH241715   1.702   0.808   2.835 -0.6850  0.3411  0.6301
 6767TIP3    H141716   1.610   0.789   2.817 -0.8535  0.6696  1.1367
 6767TIP3    H241717   1.708   0.903   2.830 -0.1602  0.2650 -0.3976
 6768TIP3   OH241718   5.924   2.064  14.602 -0.1368 -0.0317  0.0903
 6768TIP3    H141719   5.906   1.987  14.548 -0.5839  0.7801 -0.9528
 6768TIP3    H241720   5.925   2.138  14.540 -0.3378  0.8841  1.1381
 6769TIP3   OH241721   4.570   0.494  13.416  0.3426 -0.9756  0.1098
 6769TIP3    H141722   4.633   0.565  13.403 -1.4235  0.2147 -2.9408
 6769TIP3    H241723   4.495   0.518  13.361 -0.6841 -4.8082 -0.4270
 6770TIP3   OH241724   2.240   5.741  14.387  0.6130  0.2259 -0.6280
 6770TIP3    H141725   2.176   5.671  14.395  1.7798 -0.7155  1.1267
 6770TIP3    H241726   2.325   5.698  14.402  1.3621  1.9671  0.4669
 6771TIP3   OH241727   0.956   0.547  17.526 -0.2384 -0.1199  0.1535
 6771TIP3    H141728   1.043   0.530  17.488 -1.0197 -0.0425 -1.7772
 6771TIP3    H241729   0.974   0.564  17.618  1.8130 -0.0471 -0.1976
 6772TIP3   OH241730   6.047   2.508   4.971  0.0194  0.5186  0.3664
 6772TIP3    H141731   5.974   2.548   5.018  0.7681  0.5932  1.4885
 6772TIP3    H241732   6.121   2.513   5.031  0.4209 -1.5696  0.1124
 6773TIP3   OH241733   6.670   5.505   1.768 -0.0945 -0.1900 -0.1059
 6773TIP3    H141734   6.697   5.484   1.679 -1.2974  1.3452 -0.8806
 6773TIP3    H241735   6.727   5.577   1.794  0.6001 -0.9658  0.6001
 6774TIP3   OH241736   1.801   6.642   5.443 -0.8507 -0.6006  0.1159
 6774TIP3    H141737   1.772   6.586   5.371 -1.2603  0.4786 -0.5881
 6774TIP3    H241738   1.819   6.726   5.402 -2.1370  0.3603  1.4119
 6775TIP3   OH241739   2.624   5.508  11.950  0.0820 -0.0529 -0.0615
 6775TIP3    H141740   2.643   5.478  12.039 -2.2686 -2.0619 -0.1427
 6775TIP3    H241741   2.709   5.537  11.916  1.3807 -0.9900  2.1811
 6776TIP3   OH241742   4.897   0.790  12.523  0.3550  0.5008 -0.3713
 6776TIP3    H141743   4.919   0.716  12.579 -2.1662  0.4451  0.6833
 6776TIP3    H241744   4.973   0.848  12.529  2.1198 -1.6413 -0.7251
 6777TIP3   OH241745   2.839   1.731   3.982  0.3939  0.7137 -0.5961
 6777TIP3    H141746   2.865   1.731   3.890  1.0568  0.6827 -0.4103
 6777TIP3    H241747   2.804   1.819   3.997  1.0608  0.9969 -0.6646
 6778TIP3   OH241748   3.395   3.212  12.001  0.2926 -0.8039 -0.2610
 6778TIP3    H141749   3.479   3.257  12.005  1.2739 -2.5663  0.1035
 6778TIP3    H241750   3.360   3.232  11.914 -0.2051  2.0455  0.4777
 6779TIP3   OH241751   4.819   1.157   2.308  0.6539 -0.3435 -0.2430
 6779TIP3    H141752   4.762   1.234   2.316  0.1698 -0.6091 -0.9484
 6779TIP3    H241753   4.884   1.168   2.377  2.0827  1.9651 -1.7935
 6780TIP3   OH241754   3.465   4.085   1.205  0.0932 -0.2636 -0.6211
 6780TIP3    H141755   3.407   4.160   1.198  0.7133  0.5743  2.1217
 6780TIP3    H241756   3.436   4.026   1.135 -1.4974  1.7582 -1.7850
 6781TIP3   OH241757   1.773   4.445  17.188  0.1394 -0.3301  0.2026
 6781TIP3    H141758   1.705   4.512  17.178 -0.6029 -1.2123 -1.0117
 6781TIP3    H241759   1.844   4.489  17.233 -0.0617  1.4651 -1.1251
 6782TIP3   OH241760   6.035   4.376   3.259 -0.2064 -0.0065 -0.1819
 6782TIP3    H141761   5.998   4.319   3.326 -0.4358  0.5728  0.1968
 6782TIP3    H241762   6.099   4.322   3.213  1.4885  0.1657  1.8503
 6783TIP3   OH241763   5.000   0.234  15.900 -0.0121  0.1370  0.0494
 6783TIP3    H141764   5.093   0.225  15.920 -0.3532  0.4860  2.0256
 6783TIP3    H241765   4.965   0.288  15.971 -1.5507  0.8535 -1.1797
 6784TIP3   OH241766   0.010   0.837  14.974  0.0520  0.3420  0.4573
 6784TIP3    H141767  -0.036   0.823  15.056 -1.9224 -1.0638 -0.7969
 6784TIP3    H241768   0.076   0.768  14.970 -0.9047 -0.5830  0.1966
 6785TIP3   OH241769   2.519   1.402  16.527  0.0755 -0.0025 -0.2032
 6785TIP3    H141770   2.485   1.340  16.591 -1.1700  0.0000 -0.8253
 6785TIP3    H241771   2.510   1.356  16.443 -0.3353  0.8026 -0.6036
 6786TIP3   OH241772   0.524   0.602   6.060 -0.4176 -0.3596 -0.7105
 6786TIP3    H141773   0.572   0.555   6.128  0.0737 -0.2940 -1.0092
 6786TIP3    H241774   0.438   0.560   6.058 -1.0837  0.7548  1.1563
 6787TIP3   OH241775   2.110   3.570  14.574  0.2820 -0.2763 -0.1041
 6787TIP3    H141776   2.125   3.593  14.666  1.8963 -1.1707 -0.1180
 6787TIP3    H241777   2.097   3.475  14.575  0.3769 -0.2999 -0.8221
 6788TIP3   OH241778   6.283   2.808   3.336 -0.4240 -0.1056 -0.1729
 6788TIP3    H141779   6.282   2.892   3.291  1.3398 -0.0535 -0.1770
 6788TIP3    H241780   6.190   2.787   3.350 -0.9153  1.3180 -1.1030
 6789TIP3   OH241781   2.309   5.144  17.591 -1.0005 -0.4795  0.1033
 6789TIP3    H141782   2.263   5.228  17.592 -0.3986 -0.1482  1.0689
 6789TIP3    H241783   2.296   5.111  17.502 -0.0293  1.3231 -0.7844
 6790TIP3   OH241784   2.507   6.445  15.121 -0.4091  0.5175  0.1350
 6790TIP3    H141785   2.435   6.388  15.093  0.2141 -0.5381  0.6063
 6790TIP3    H241786   2.476   6.488  15.200 -0.5643  0.1412  0.2801
 6791TIP3   OH241787   2.685   2.774  11.783  0.3862 -0.4185 -0.5880
 6791TIP3    H141788   2.751   2.834  11.817  0.0237  0.1693 -0.8892
 6791TIP3    H241789   2.610   2.785  11.842  0.6936 -1.3787 -0.0100
 6792TIP3   OH241790   0.693   4.140  16.963 -0.4881 -0.3040  0.4837
 6792TIP3    H141791   0.641   4.090  17.026 -2.5157 -0.4898 -1.2039
 6792TIP3    H241792   0.765   4.081  16.939 -0.3423 -0.6688  1.7401
 6793TIP3   OH241793   2.019   4.405   1.898 -0.7236 -0.1179  0.3875
 6793TIP3    H141794   2.017   4.339   1.966 -0.1915  1.1098  1.6449
 6793TIP3    H241795   2.105   4.446   1.906 -0.9006  0.4917 -0.5860
 6794TIP3   OH241796   4.857   0.783   0.571  0.5961  0.3570  0.0599
 6794TIP3    H141797   4.773   0.828   0.577 -1.2499 -2.8338  0.1175
 6794TIP3    H241798   4.908   0.836   0.509 -1.4748  2.3255 -0.0923
 6795TIP3   OH241799   5.035   1.378  17.526 -0.2224  0.6990  0.2997
 6795TIP3    H141800   5.107   1.429  17.562  2.0551 -1.3882 -0.9831
 6795TIP3    H241801   5.075   1.295  17.500 -3.2458 -0.8489  0.1006
 6796TIP3   OH241802   6.266   0.160  17.000 -0.0352 -0.4333 -0.0508
 6796TIP3    H141803   6.264   0.247  17.039 -0.7141  0.0020 -1.0053
 6796TIP3    H241804   6.209   0.167  16.923  0.8218 -1.3933 -0.8151
 6797TIP3   OH241805   5.278   0.601   1.899 -0.4474 -0.2453  0.1868
 6797TIP3    H141806   5.301   0.635   1.812  2.2837  1.4910  1.4307
 6797TIP3    H241807   5.193   0.641   1.918  1.2420  3.8150  0.3268
 6798TIP3   OH241808   6.517   3.431   2.209  0.0706  0.4342  0.0625
 6798TIP3    H141809   6.511   3.525   2.227  2.1167  0.1973  2.5651
 6798TIP3    H241810   6.602   3.421   2.167  0.4297 -0.3841  0.9421
 6799TIP3   OH241811   0.187   5.277   5.686 -0.1727 -0.2256 -0.4195
 6799TIP3    H141812   0.203   5.312   5.774 -0.0204  1.7037 -1.1669
 6799TIP3    H241813   0.135   5.198   5.701  0.5744 -0.4127  1.4435
 6800TIP3   OH241814   3.521   4.918   6.656  0.8148 -0.4971  0.2785
 6800TIP3    H141815   3.483   4.891   6.572 -0.4682 -0.9367  0.9847
 6800TIP3    H241816   3.477   4.864   6.721 -3.2178  4.1788  2.0512
 6801TIP3   OH241817   0.876   1.303   3.553  0.0014 -0.3111  0.3479
 6801TIP3    H141818   0.855   1.337   3.640  1.1593 -2.0702  1.3733
 6801TIP3    H241819   0.834   1.365   3.492  0.4589  1.8370  2.0971
 6802TIP3   OH241820   0.103   0.379  17.340 -0.5360  0.2954  0.2647
 6802TIP3    H141821   0.113   0.431  17.420  0.5458 -0.7836  0.8710
 6802TIP3    H241822   0.058   0.300  17.369 -1.5181  0.5552 -0.5064
 6803TIP3   OH241823   0.543   0.139  14.400  0.2066  0.2522  0.3062
 6803TIP3    H141824   0.598   0.189  14.459 -0.6852  2.1476 -0.3742
 6803TIP3    H241825   0.454   0.165  14.422 -0.4592 -2.3851  1.0816
 6804TIP3   OH241826   4.750   0.413  12.510  0.2627 -0.2159  0.1331
 6804TIP3    H141827   4.777   0.379  12.425  0.5489  1.0834 -0.3013
 6804TIP3    H241828   4.826   0.401  12.567  1.3307  2.0781 -0.7071
 6805TIP3   OH241829   3.120   4.480  14.587  0.7861 -0.8711  0.4753
 6805TIP3    H141830   3.179   4.524  14.649  1.0917 -1.4526  0.6100
 6805TIP3    H241831   3.142   4.518  14.502  0.2016  0.1006  0.7532
 6806TIP3   OH241832   2.024   2.947  15.249 -0.3335  0.1749  0.1913
 6806TIP3    H141833   1.957   2.898  15.202 -0.7452  0.5691  0.3598
 6806TIP3    H241834   2.016   3.037  15.215  0.1354  0.2143  0.1804
 6807TIP3   OH241835   3.664   1.912  14.869 -0.3618  0.0258  1.0426
 6807TIP3    H141836   3.662   1.900  14.964 -2.1843 -0.1640  1.0254
 6807TIP3    H241837   3.710   1.835  14.836 -1.6114 -1.0345  1.6719
 6808TIP3   OH241838   4.609   3.688  13.631  0.2507 -0.5773  0.2426
 6808TIP3    H141839   4.696   3.676  13.667 -0.1944 -0.5459  1.3806
 6808TIP3    H241840   4.577   3.768  13.671  0.6828  0.9416 -2.2196
 6809TIP3   OH241841   5.137   0.519  14.381  0.0736 -0.3523 -0.3026
 6809TIP3    H141842   5.077   0.449  14.408  0.1820 -0.6045 -0.6990
 6809TIP3    H241843   5.211   0.472  14.342  0.1697 -0.0155 -0.5247
 6810TIP3   OH241844   3.058   5.387   6.484 -0.2625 -0.4246 -0.3261
 6810TIP3    H141845   3.066   5.331   6.407  1.0715 -0.5427 -0.1135
 6810TIP3    H241846   3.122   5.353   6.546  0.5362  1.2760 -0.1556
 6811TIP3   OH241847   5.204   4.621   2.975  0.5211  0.1999 -0.3132
 6811TIP3    H141848   5.206   4.676   2.896 -1.6716  0.4619 -0.2499
 6811TIP3    H241849   5.172   4.680   3.044 -1.0752 -0.9112 -0.0567
 6812TIP3   OH241850   2.266   5.170   0.325  0.6684  0.7254  0.3307
 6812TIP3    H141851   2.186   5.121   0.309  1.9514 -1.0798 -0.9933
 6812TIP3    H241852   2.241   5.261   0.309 -1.0450  0.1858 -0.3198
 6813TIP3   OH241853   3.733   4.022   3.157 -0.3655 -0.3744  0.3994
 6813TIP3    H141854   3.715   3.972   3.237  0.6302 -1.4849 -0.0452
 6813TIP3    H241855   3.693   3.971   3.087 -0.5871  0.2120  0.0931
 6814TIP3   OH241856   5.399   5.434  14.520  0.2035 -0.4013 -0.0867
 6814TIP3    H141857   5.453   5.361  14.548 -0.9532 -1.3912 -0.3360
 6814TIP3    H241858   5.324   5.393  14.477 -1.5039  0.8316  1.5342
 6815TIP3   OH241859   4.129   6.436  17.033  0.5466  0.0862 -0.2946
 6815TIP3    H141860   4.127   6.526  16.999 -1.2073  0.7178  1.2976
 6815TIP3    H241861   4.136   6.382  16.954  0.0331  1.5676 -1.4265
 6816TIP3   OH241862   1.357   4.529  15.808 -0.3994  0.1834 -0.2327
 6816TIP3    H141863   1.368   4.435  15.791 -1.6071  0.3277 -2.0309
 6816TIP3    H241864   1.286   4.556  15.750  0.3364  2.3514 -0.2104
 6817TIP3   OH241865   5.694   1.193   2.380 -0.3701  0.2690 -0.1429
 6817TIP3    H141866   5.788   1.198   2.400 -0.0010 -1.5856 -1.1401
 6817TIP3    H241867   5.659   1.137   2.449 -1.0011  1.8521  0.8734
 6818TIP3   OH241868   5.284   4.732  13.113  0.3087 -0.2475 -1.0024
 6818TIP3    H141869   5.377   4.715  13.127 -0.1548 -1.4799  1.0995
 6818TIP3    H241870   5.278   4.826  13.097  1.8170  0.0562  0.0201
 6819TIP3   OH241871   4.985   2.839   4.273  0.3401 -0.0784 -0.5584
 6819TIP3    H141872   4.916   2.773   4.279  0.0947  0.1595 -0.7533
 6819TIP3    H241873   4.949   2.916   4.317  1.5270 -0.7915  1.8914
 6820TIP3   OH241874   2.251   1.222  15.881  0.5720  0.1457  0.0960
 6820TIP3    H141875   2.334   1.180  15.904  0.9007 -0.0471 -1.3514
 6820TIP3    H241876   2.277   1.307  15.846  0.1273  0.2671  0.0599
 6821TIP3   OH241877   1.816   2.039   6.867  0.0960  0.1796 -0.0578
 6821TIP3    H141878   1.868   2.119   6.855 -0.1336  0.3003 -0.2704
 6821TIP3    H241879   1.851   1.978   6.802  0.7507 -0.1452  0.5817
 6822TIP3   OH241880   5.135   5.474  14.314 -0.2036 -0.0414 -0.1722
 6822TIP3    H141881   5.185   5.513  14.242 -0.9896  1.8766  0.2519
 6822TIP3    H241882   5.044   5.499  14.297 -0.9656 -2.6684 -0.4218
 6823TIP3   OH241883   3.588   2.973  14.958  0.3779 -0.3765  0.5524
 6823TIP3    H141884   3.523   2.995  15.024  0.1651 -1.8430  0.8672
 6823TIP3    H241885   3.593   3.050  14.902 -3.1042 -0.9060 -0.6962
 6824TIP3   OH241886   3.555   4.214   0.031 -0.6569 -0.5998 -0.4562
 6824TIP3    H141887   3.568   4.306   0.056 -3.6527  0.1598 -1.3464
 6824TIP3    H241888   3.512   4.219  -0.055 -2.6794 -2.7519  0.3514
 6825TIP3   OH241889   3.436   3.328  15.034 -0.4927  0.0405  0.4699
 6825TIP3    H141890   3.346   3.327  15.067 -1.2988 -0.6684 -1.6108
 6825TIP3    H241891   3.427   3.332  14.939  1.6234 -2.6209  0.0471
 6826TIP3   OH241892   3.861   6.363  14.320  0.5051 -0.2045  0.4853
 6826TIP3    H141893   3.931   6.429  14.315  1.2307 -0.8860  1.3308
 6826TIP3    H241894   3.885   6.299  14.252 -0.3199  0.4861 -0.4899
 6827TIP3   OH241895   5.492   2.453   5.316  0.4576  0.3869  0.5059
 6827TIP3    H141896   5.496   2.467   5.411  0.4411 -0.2014  0.5942
 6827TIP3    H241897   5.572   2.404   5.296  0.4239  0.4475  0.2271
 6828TIP3   OH241898   1.568   2.077   4.157  0.0936  0.6222  0.0601
 6828TIP3    H141899   1.617   2.111   4.083  0.0408  1.2257  0.2993
 6828TIP3    H241900   1.530   2.154   4.199  1.0861  0.4183  1.4084
 6829TIP3   OH241901   0.615   0.320   4.798 -0.7351 -0.6141 -0.1227
 6829TIP3    H141902   0.710   0.311   4.791 -0.7559 -0.1697 -1.2167
 6829TIP3    H241903   0.587   0.351   4.711 -1.5692  1.8566  0.9413
 6830TIP3   OH241904   5.387   0.324  17.215  0.0838  0.0362  0.3758
 6830TIP3    H141905   5.424   0.403  17.176  0.7824 -0.3570  0.2357
 6830TIP3    H241906   5.428   0.251  17.168 -1.0017 -0.4112  0.0900
 6831TIP3   OH241907   3.789   2.560   1.636 -0.2512 -0.0056 -0.5757
 6831TIP3    H141908   3.703   2.575   1.674 -0.5731  0.3751 -1.4314
 6831TIP3    H241909   3.851   2.590   1.702 -0.6721 -2.5910  1.1214
 6832TIP3   OH241910   5.766   0.268  12.745 -0.2393  0.3091  0.3285
 6832TIP3    H141911   5.775   0.173  12.747  1.3584  0.4382  0.0917
 6832TIP3    H241912   5.816   0.298  12.821  0.9571  1.0594 -0.7198
 6833TIP3   OH241913   1.337   2.375  14.393  0.4722  0.7725 -0.2243
 6833TIP3    H141914   1.419   2.407  14.431 -0.3765  1.2007  1.3073
 6833TIP3    H241915   1.295   2.454  14.358 -0.1820  0.8786  0.7659
 6834TIP3   OH241916   4.024   5.474   0.659  0.2548  0.9277 -0.7563
 6834TIP3    H141917   3.985   5.439   0.579 -0.0026  0.4201 -0.4082
 6834TIP3    H241918   4.110   5.431   0.665  0.5161  1.3970 -1.0615
 6835TIP3   OH241919   6.077   0.376  15.003  0.0563 -0.0492  0.4240
 6835TIP3    H141920   6.154   0.326  14.976 -0.1368  0.8399 -2.0043
 6835TIP3    H241921   6.004   0.314  14.994  0.1848 -0.2047  0.4495
 6836TIP3   OH241922   5.568   4.941   2.855 -0.1531 -0.0416 -0.5396
 6836TIP3    H141923   5.506   4.995   2.905 -0.4890 -0.4930 -0.4597
 6836TIP3    H241924   5.623   5.004   2.809  1.3062  0.4504  1.7311
 6837TIP3   OH241925   0.058   1.851  13.284 -0.1745  0.4232 -0.2360
 6837TIP3    H141926  -0.028   1.812  13.301  0.1229 -0.3460 -0.4516
 6837TIP3    H241927   0.098   1.858  13.370  1.3257 -3.4561 -0.4244
 6838TIP3   OH241928   2.766   6.050   2.910  0.0740 -0.2453  0.2514
 6838TIP3    H141929   2.673   6.038   2.930 -0.4202  0.8608 -1.2429
 6838TIP3    H241930   2.783   5.988   2.839  0.6261 -0.7646  0.8133
 6839TIP3   OH241931   6.542   4.055   0.954  0.2692  0.3720 -0.9316
 6839TIP3    H141932   6.502   4.141   0.966 -2.0185 -0.8293  0.6059
 6839TIP3    H241933   6.608   4.049   1.023  0.2670  0.7869 -0.8924
 6840TIP3   OH241934   0.121   2.635  16.071 -0.0237 -0.4414  0.8309
 6840TIP3    H141935   0.156   2.601  16.154  2.2010  0.8579  0.4793
 6840TIP3    H241936   0.026   2.630  16.083  0.2159 -0.6986  3.2966
 6841TIP3   OH241937   1.619   5.004  17.064  0.2081 -0.1154  0.0383
 6841TIP3    H141938   1.537   4.970  17.100  0.4109 -0.2505  0.3715
 6841TIP3    H241939   1.615   5.098  17.081  1.2921 -0.4417  2.4334
 6842TIP3   OH241940   3.148   6.043   4.889  0.1213 -0.2001  0.3960
 6842TIP3    H141941   3.187   6.118   4.935 -2.6562  2.6908 -1.5119
 6842TIP3    H241942   3.054   6.060   4.892 -0.5919 -3.2833 -0.8268
 6843TIP3   OH241943   3.520   2.457  17.375 -0.1448 -0.2527  0.5921
 6843TIP3    H141944   3.603   2.471  17.420  1.1961 -0.3131 -1.7225
 6843TIP3    H241945   3.480   2.544  17.371  1.1556  0.3202 -0.7147
 6844TIP3   OH241946   1.820   0.136  16.130  0.3338  0.2904  0.0446
 6844TIP3    H141947   1.771   0.057  16.152 -0.3438 -0.7554 -4.3371
 6844TIP3    H241948   1.910   0.105  16.115  0.0298  0.2132 -1.8596
 6845TIP3   OH241949   4.819   0.119   2.050 -0.1315 -0.7244 -0.1659
 6845TIP3    H141950   4.731   0.092   2.076 -0.7800  1.4041  0.0296
 6845TIP3    H241951   4.868   0.037   2.044 -2.0012 -1.9360  0.1225
 6846TIP3   OH241952   5.159   2.899   5.256 -0.2215  0.0619  0.4393
 6846TIP3    H141953   5.068   2.891   5.228 -0.0932 -2.0812  0.4453
 6846TIP3    H241954   5.195   2.811   5.245  1.7526  0.7689  0.8069
 6847TIP3   OH241955   0.810   5.279   1.417  0.3093 -0.2738 -0.3087
 6847TIP3    H141956   0.837   5.362   1.379  1.3900 -0.6534 -0.4103
 6847TIP3    H241957   0.776   5.302   1.504 -2.4082  0.6173 -1.5168
 6848TIP3   OH241958   2.394   0.373  13.364 -0.3318 -0.3342 -0.0639
 6848TIP3    H141959   2.411   0.287  13.401 -0.2385  0.3445  1.5671
 6848TIP3    H241960   2.472   0.395  13.314  0.8433 -0.0879  1.7710
 6849TIP3   OH241961   1.811   0.192  12.854 -0.4121 -0.0336  0.0380
 6849TIP3    H141962   1.812   0.282  12.887  0.3299  0.2656 -0.7664
 6849TIP3    H241963   1.903   0.166  12.854 -0.5411 -0.5000 -0.5186
 6850TIP3   OH241964   6.056   1.902   5.718 -0.0978 -0.2177  0.6217
 6850TIP3    H141965   5.984   1.901   5.656  2.1412  2.2263 -2.3173
 6850TIP3    H241966   6.126   1.852   5.674  1.0477  0.1769  1.9158
 6851TIP3   OH241967   0.672   3.233   5.468  0.1150  0.5926  0.4287
 6851TIP3    H141968   0.698   3.304   5.527  0.2227  0.2845  0.7476
 6851TIP3    H241969   0.576   3.242   5.461 -0.3513 -1.2768  3.1389
 6852TIP3   OH241970   5.476   6.658  13.522  0.0939  0.0638  0.4665
 6852TIP3    H141971   5.539   6.588  13.507 -0.9109 -1.0966  1.3924
 6852TIP3    H241972   5.443   6.681  13.435  1.4581  0.3967  0.0179
 6853TIP3   OH241973   4.656   0.968  16.916  0.8122  0.0716 -0.3142
 6853TIP3    H141974   4.626   0.947  17.005  2.3212  0.2372  0.2617
 6853TIP3    H241975   4.614   1.052  16.897  0.4097  0.0004  0.2206
 6854TIP3   OH241976   3.649   1.890  15.739  0.0843 -0.2588 -0.0894
 6854TIP3    H141977   3.582   1.847  15.792  0.6850  0.5449  1.3878
 6854TIP3    H241978   3.612   1.892  15.651 -1.1507 -1.2253  0.3724
 6855TIP3   OH241979   6.229   0.567   2.661 -0.4688  0.1144 -0.2551
 6855TIP3    H141980   6.145   0.614   2.661  0.2039  1.3749 -1.0390
 6855TIP3    H241981   6.255   0.564   2.569  0.4113 -0.1227 -0.0036
 6856TIP3   OH241982   4.188   2.885   3.670  0.8178 -0.8703  0.1378
 6856TIP3    H141983   4.245   2.918   3.601  1.4473  0.9774  1.4517
 6856TIP3    H241984   4.112   2.943   3.668 -0.2767 -2.2793 -0.5081
 6857TIP3   OH241985   5.048   3.101  17.537 -0.4092  0.1232 -0.1841
 6857TIP3    H141986   5.094   3.017  17.543 -0.2203  0.1387 -1.2866
 6857TIP3    H241987   5.114   3.162  17.505 -0.1794  1.0226  1.8391
 6858TIP3   OH241988   2.894   4.886  15.133  0.0598  0.4464 -0.8210
 6858TIP3    H141989   2.815   4.845  15.099 -0.1899  0.2571 -0.0279
 6858TIP3    H241990   2.965   4.827  15.109  0.0643  0.9501 -2.1360
 6859TIP3   OH241991   1.642   6.342  16.071 -0.1153 -0.2639  0.3073
 6859TIP3    H141992   1.661   6.267  16.015 -0.3638  0.3412 -0.6107
 6859TIP3    H241993   1.704   6.333  16.144 -1.8001 -2.7184  1.5860
 6860TIP3   OH241994   5.561   0.096  17.452 -0.0379 -0.3028  0.1885
 6860TIP3    H141995   5.478   0.142  17.464  0.4940  0.4393  1.1962
 6860TIP3    H241996   5.538   0.018  17.401 -0.8567  1.4353 -2.3264
 6861TIP3   OH241997   0.478   2.075  16.868  0.0097  0.4777 -0.2442
 6861TIP3    H141998   0.384   2.058  16.877 -0.1921  1.9935  0.8728
 6861TIP3    H241999   0.518   2.029  16.941 -0.1934  2.0189  0.8879
 6862TIP3   OH242000   0.168   6.278  16.926 -0.0477 -0.3558  0.4777
 6862TIP3    H142001   0.096   6.336  16.950 -0.8960 -1.1404 -0.0717
 6862TIP3    H242002   0.213   6.323  16.855  0.0280  0.1581  0.8485
 6863TIP3   OH242003   0.002   1.071   4.173 -0.4586 -0.1189 -0.1365
 6863TIP3    H142004   0.050   1.153   4.166  0.7825 -0.7568  0.6434
 6863TIP3    H242005  -0.028   1.067   4.264  0.6588 -1.1264  0.2224
 6864TIP3   OH242006   5.324   1.775   0.176 -0.3335  0.1415 -1.0567
 6864TIP3    H142007   5.268   1.727   0.237 -1.0139  1.3916 -0.6538
 6864TIP3    H242008   5.357   1.708   0.116 -2.2095 -0.6694 -1.2686
 6865TIP3   OH242009   6.630   2.195   2.904 -0.4995 -0.3733  0.6018
 6865TIP3    H142010   6.715   2.190   2.948  0.6081 -2.7274 -1.5544
 6865TIP3    H242011   6.623   2.287   2.877  0.4723  0.2749  2.3540
 6866TIP3   OH242012   2.418   4.346  16.483  0.0091  0.7212  0.2969
 6866TIP3    H142013   2.391   4.403  16.555 -0.2527 -0.6234  1.2860
 6866TIP3    H242014   2.501   4.309  16.511 -0.0971  0.1826 -0.0928
 6867TIP3   OH242015   5.278   2.901  17.524 -0.3048 -0.2270  0.1263
 6867TIP3    H142016   5.208   2.878  17.463  0.8988  0.1890 -1.4696
 6867TIP3    H242017   5.353   2.848  17.496  0.5649  0.7155  0.6033
 6868TIP3   OH242018   5.817   0.818  15.613  0.0031 -0.2937 -0.1396
 6868TIP3    H142019   5.838   0.910  15.627  0.9011 -0.6019  0.6085
 6868TIP3    H242020   5.743   0.802  15.672  1.1362 -0.5396  1.2632
 6869TIP3   OH242021   1.488   2.846  14.288  0.3022 -0.0492  0.2880
 6869TIP3    H142022   1.418   2.910  14.300 -0.5275 -0.9851  0.6313
 6869TIP3    H242023   1.471   2.809  14.201 -1.1368 -1.9912  1.3214
 6870TIP3   OH242024   5.273   0.807   6.014  0.4856 -0.2904  0.4569
 6870TIP3    H142025   5.347   0.772   6.064  1.0959  0.3695  0.0377
 6870TIP3    H242026   5.196   0.781   6.064  1.0132 -0.8084  1.0163
 6871TIP3   OH242027   1.979   3.907   5.607 -0.4843  0.2706  0.8251
 6871TIP3    H142028   2.004   3.998   5.591 -1.4482  0.2865 -0.8389
 6871TIP3    H242029   1.889   3.912   5.637 -0.4931 -0.1338  0.8680
 6872TIP3   OH242030   1.039   0.965  15.463  0.1252  0.0029  0.3091
 6872TIP3    H142031   1.119   1.017  15.472  0.0949  0.4606 -1.5362
 6872TIP3    H242032   1.062   0.880  15.500  0.5631  0.9168  2.2776
 6873TIP3   OH242033   4.373   0.643  12.479  0.1669 -0.0258 -0.0732
 6873TIP3    H142034   4.459   0.642  12.438  0.7108 -2.4353  0.9208
 6873TIP3    H242035   4.376   0.716  12.541  1.0827  0.5884 -0.8206
 6874TIP3   OH242036   2.852   4.918   4.545 -0.2032  0.5927 -0.1506
 6874TIP3    H142037   2.898   5.001   4.530 -0.1367  0.5429 -0.2253
 6874TIP3    H242038   2.922   4.853   4.548 -0.3921  0.2133 -2.3302
 6875TIP3   OH242039   1.052   6.289  13.299 -0.2818 -0.1723  0.6113
 6875TIP3    H142040   1.055   6.380  13.329  1.2770  1.1163 -2.8707
 6875TIP3    H242041   1.093   6.239  13.369  2.4232  2.4270  1.1051
 6876TIP3   OH242042   4.608   5.810  14.448 -0.0378 -0.5573  0.5311
 6876TIP3    H142043   4.646   5.876  14.391  0.1315 -1.5532 -0.5552
 6876TIP3    H242044   4.515   5.831  14.450 -0.0784 -0.6183 -0.2904
 6877TIP3   OH242045   6.703   1.978   5.378  0.5037  0.5192 -0.5956
 6877TIP3    H142046   6.618   2.008   5.344 -0.6454 -0.7754  0.9519
 6877TIP3    H242047   6.740   2.054   5.422  0.4883  1.2902 -1.8732
 6878TIP3   OH242048   3.362   2.718  11.966 -0.0210  0.6429 -0.2484
 6878TIP3    H142049   3.364   2.634  11.920  0.9440  0.5306 -0.0222
 6878TIP3    H242050   3.269   2.743  11.967 -0.1898  0.1204 -1.2859
 6879TIP3   OH242051   3.986   4.771  15.968  0.0799  0.5802  0.1198
 6879TIP3    H142052   3.949   4.685  15.990  0.3999  0.4670  0.2223
 6879TIP3    H242053   3.909   4.827  15.954 -0.1801 -0.1933 -1.8589
 6880TIP3   OH242054   2.058   2.404   1.756 -0.0741  0.0878  0.1516
 6880TIP3    H142055   1.964   2.398   1.773 -0.1643 -0.7174 -0.5256
 6880TIP3    H242056   2.077   2.327   1.702  1.1344 -0.2093  0.9605
 6881TIP3   OH242057   0.665   5.135   4.062 -0.3081  0.0882  0.2366
 6881TIP3    H142058   0.692   5.207   4.004 -0.0968  0.1511  0.4108
 6881TIP3    H242059   0.570   5.143   4.069 -0.1916  0.9255  1.0065
 6882TIP3   OH242060   3.690   5.047   3.619  0.4764 -0.3880 -0.0523
 6882TIP3    H142061   3.675   4.953   3.614 -2.0740 -0.2255  2.1377
 6882TIP3    H242062   3.783   5.058   3.598  0.4597 -3.1347 -2.1193
 6883TIP3   OH242063   0.953   4.837  11.201 -0.2195  0.2367  0.3108
 6883TIP3    H142064   0.905   4.761  11.233 -0.0240 -1.5849 -3.1886
 6883TIP3    H242065   0.914   4.912  11.245 -1.5596 -1.7242  2.6599
 6884TIP3   OH242066   3.661   4.396   1.051 -0.2340 -0.1546 -0.2499
 6884TIP3    H142067   3.670   4.343   1.130 -0.1270 -0.6006 -0.5571
 6884TIP3    H242068   3.641   4.484   1.083  1.0218 -0.0605  0.3189
 6885TIP3   OH242069   3.507   4.562   2.940 -0.6550 -0.5414  0.4505
 6885TIP3    H142070   3.570   4.501   2.977 -1.0223 -1.0595  0.2416
 6885TIP3    H242071   3.545   4.648   2.954  0.0501 -0.8431  0.4161
 6886TIP3   OH242072   4.435   3.138   6.204  0.1681  0.3812 -0.3595
 6886TIP3    H142073   4.529   3.148   6.192  0.1441  0.9297 -0.0960
 6886TIP3    H242074   4.421   3.043   6.208  0.4435  0.1885 -2.4910
 6887TIP3   OH242075   5.372   0.704   3.467 -0.1327 -0.3110 -0.0604
 6887TIP3    H142076   5.301   0.748   3.420  1.4030  0.4420 -1.7459
 6887TIP3    H242077   5.350   0.611   3.461 -0.6229 -0.1400 -1.1868
 6888TIP3   OH242078   5.123   1.087  16.346 -0.2455  0.0983  0.1131
 6888TIP3    H142079   5.122   1.052  16.256 -0.4236 -1.0083  0.5329
 6888TIP3    H242080   5.194   1.040  16.389 -1.3917 -0.7670  1.0893
 6889TIP3   OH242081   4.612   4.774  11.534  0.0209 -0.0666 -0.2707
 6889TIP3    H142082   4.618   4.723  11.453  1.4276  0.6983 -0.6759
 6889TIP3    H242083   4.559   4.850  11.510 -2.7957 -1.6251  0.5439
 6890TIP3   OH242084   3.334   2.958  15.410 -0.9357 -0.6334  0.0356
 6890TIP3    H142085   3.392   2.900  15.360 -0.3854  1.3161 -1.7285
 6890TIP3    H242086   3.345   2.931  15.501 -1.1126 -3.5882 -0.7320
 6891TIP3   OH242087   6.200   4.828  11.799 -0.9302 -0.3746  0.5244
 6891TIP3    H142088   6.208   4.912  11.755 -2.2898 -0.1921  0.5866
 6891TIP3    H242089   6.110   4.826  11.832 -0.2767 -0.9268  2.4245
 6892TIP3   OH242090   3.299   1.809  17.057 -0.0169  0.6322 -0.6434
 6892TIP3    H142091   3.293   1.905  17.058  0.7732  0.6895 -0.8567
 6892TIP3    H242092   3.247   1.781  17.132 -0.8079  1.1904 -0.9634
 6893TIP3   OH242093   5.600   1.411   0.864  0.4121  0.4802  0.4521
 6893TIP3    H142094   5.637   1.491   0.826  0.6671 -0.0886 -0.5307
 6893TIP3    H242095   5.612   1.422   0.959  2.0191  0.8448  0.2370
 6894TIP3   OH242096   0.470   4.487  12.477 -0.2191  0.1034  0.2483
 6894TIP3    H142097   0.477   4.398  12.512 -2.0927  0.2225  1.0303
 6894TIP3    H242098   0.400   4.482  12.412 -0.4763  1.0397  0.4436
 6895TIP3   OH242099   5.175   4.271   3.519  0.0574  0.0020 -0.4744
 6895TIP3    H142100   5.226   4.239   3.445 -0.1680 -0.3458 -0.4805
 6895TIP3    H242101   5.085   4.274   3.488 -0.2879 -1.7004  0.2685
 6896TIP3   OH242102   3.714   5.265   3.016 -1.0136 -0.4735 -0.3922
 6896TIP3    H142103   3.726   5.262   2.921  0.0478 -0.9968 -0.2578
 6896TIP3    H242104   3.774   5.334   3.045  1.2473 -2.5430  0.2161
 6897TIP3   OH242105   2.468   0.800   2.847  0.0210  0.1506 -0.3275
 6897TIP3    H142106   2.531   0.864   2.814  0.1104  0.2989  0.1198
 6897TIP3    H242107   2.396   0.853   2.881  0.0884  0.0180  0.0307
 6898TIP3   OH242108   3.512   4.893  16.005  0.1805 -0.2489  0.5564
 6898TIP3    H142109   3.547   4.907  16.092 -0.0727  0.8371  0.5020
 6898TIP3    H242110   3.418   4.882  16.018  0.1335 -0.0257  0.4184
 6899TIP3   OH242111   0.545   2.133  13.893 -0.1742  0.0509 -0.0799
 6899TIP3    H142112   0.625   2.092  13.925 -0.1466 -0.0139 -0.2308
 6899TIP3    H242113   0.496   2.062  13.852 -0.4799  0.0154  0.3382
 6900TIP3   OH242114   6.696   2.147   0.669 -0.4275  0.1304 -0.1004
 6900TIP3    H142115   6.684   2.194   0.752  2.1696  1.1936 -0.2447
 6900TIP3    H242116   6.691   2.215   0.602  0.4128 -0.2368 -0.5553
 6901TIP3   OH242117   0.257   4.318  16.232 -0.0273 -0.4297 -0.0041
 6901TIP3    H142118   0.250   4.395  16.176 -1.1686 -0.3234  0.2458
 6901TIP3    H242119   0.348   4.317  16.261  0.4074 -0.0788 -1.2593
 6902TIP3   OH242120   5.684   0.779  12.212 -0.4733  0.0973  0.3313
 6902TIP3    H142121   5.653   0.699  12.170 -2.7880  0.0012  2.0422
 6902TIP3    H242122   5.678   0.846  12.144 -3.1365 -0.2505  0.1386
 6903TIP3   OH242123   3.531   0.547  15.489  0.4004  0.3223 -0.5629
 6903TIP3    H142124   3.488   0.630  15.510  2.7397  1.4785 -0.0142
 6903TIP3    H242125   3.538   0.502  15.574 -0.2072 -0.1142 -0.7410
 6904TIP3   OH242126   3.198   0.790   3.646  0.4753 -0.0848  0.4864
 6904TIP3    H142127   3.160   0.820   3.729  0.0596 -0.6501  0.5044
 6904TIP3    H242128   3.130   0.737   3.606  1.3862 -1.4852  0.7177
 6905TIP3   OH242129   2.687   4.574   0.986 -0.2251 -0.5352 -0.2105
 6905TIP3    H142130   2.745   4.640   0.948  1.0073 -1.7579 -0.5354
 6905TIP3    H242131   2.706   4.494   0.936 -0.6619 -1.4746  1.0895
 6906TIP3   OH242132   3.742   3.287  12.787 -0.2266 -0.1343 -0.5740
 6906TIP3    H142133   3.681   3.323  12.723 -0.5871  1.0632  0.4043
 6906TIP3    H242134   3.829   3.311  12.754 -0.4179  0.6768 -0.4912
 6907TIP3   OH242135   0.015   3.069   5.247  0.0780  0.1305 -0.1771
 6907TIP3    H142136   0.086   3.125   5.276  0.6054  0.1530 -1.4468
 6907TIP3    H242137   0.056   2.984   5.232 -0.1108  0.1984 -1.1202
 6908TIP3   OH242138   1.425   0.184   2.019  0.2000 -0.1706 -0.3685
 6908TIP3    H142139   1.385   0.264   1.985 -1.4217 -0.4526  0.7225
 6908TIP3    H242140   1.374   0.164   2.098  1.9335 -1.1260  0.5675
 6909TIP3   OH242141   0.544   2.405  16.349 -0.5298 -0.5061  0.2767
 6909TIP3    H142142   0.581   2.365  16.270  0.6801  0.1265  0.5002
 6909TIP3    H242143   0.618   2.411  16.410 -0.7583  1.6164  0.4221
 6910TIP3   OH242144   3.260   4.040   5.395 -0.1325  0.4653  0.0688
 6910TIP3    H142145   3.295   4.050   5.306 -0.4322  0.2274 -0.0740
 6910TIP3    H242146   3.177   3.995   5.384 -0.6071  1.2399  0.3905
 6911TIP3   OH242147   1.683   3.093   4.554 -0.8722 -0.5048  0.4292
 6911TIP3    H142148   1.649   3.011   4.518 -0.2142 -0.5047 -0.1999
 6911TIP3    H242149   1.778   3.084   4.550 -0.7910  0.4651 -0.0439
 6912TIP3   OH242150   5.850   6.300  11.532 -0.2612  0.6514 -0.1491
 6912TIP3    H142151   5.934   6.260  11.553  0.9562  3.4126  0.6720
 6912TIP3    H242152   5.798   6.291  11.612 -0.4120 -0.1629 -0.3270
 6913TIP3   OH242153   6.340   5.046  11.615  0.0107 -0.2839 -0.0101
 6913TIP3    H142154   6.247   5.051  11.594  0.0246 -0.0946 -0.0312
 6913TIP3    H242155   6.384   5.064  11.532  0.0654 -0.3189  0.0114
 6914TIP3   OH242156   4.328   6.022   3.018  0.1730 -0.1263 -0.2750
 6914TIP3    H142157   4.251   6.047   2.967  1.1144  0.1231 -1.6187
 6914TIP3    H242158   4.382   5.971   2.958  0.7163 -0.9642  0.8776
 6915TIP3   OH242159   1.442   6.190  14.909 -0.5306 -0.1862  0.0078
 6915TIP3    H142160   1.492   6.271  14.905  0.0990 -0.5893 -0.5810
 6915TIP3    H242161   1.409   6.187  14.998  0.0570  0.3575  0.2565
 6916TIP3   OH242162   4.145   1.284   3.241  0.0651  0.0777  0.1838
 6916TIP3    H142163   4.059   1.266   3.203  0.7043 -1.6537 -0.5764
 6916TIP3    H242164   4.137   1.371   3.279 -1.4458  0.7817 -1.5752
 6917TIP3   OH242165   1.341   3.541   3.417  0.1869  0.2614 -0.0972
 6917TIP3    H142166   1.264   3.491   3.390  0.4776  0.0415 -0.5505
 6917TIP3    H242167   1.309   3.629   3.432 -0.5105 -0.2465  1.6056
 6918TIP3   OH242168   1.789   1.185   5.392 -0.3140  0.4834 -0.3354
 6918TIP3    H142169   1.882   1.191   5.370 -0.3132 -0.9760 -0.8680
 6918TIP3    H242170   1.755   1.116   5.335 -1.4851  0.2460  0.5960
 6919TIP3   OH242171   2.894   1.029  11.450  0.2628  0.4195  0.1245
 6919TIP3    H142172   2.976   1.078  11.440  0.0308  0.7661 -0.1052
 6919TIP3    H242173   2.826   1.095  11.441 -0.0442  0.1119  0.1963
 6920TIP3   OH242174   6.543   5.697   5.071 -0.1950  0.5280 -0.3543
 6920TIP3    H142175   6.474   5.764   5.072  1.2061  2.0350  0.3062
 6920TIP3    H242176   6.599   5.720   5.145  0.8636 -0.8200 -0.7051
 6921TIP3   OH242177   4.359   1.504  15.178  0.1205 -0.2880  0.0427
 6921TIP3    H142178   4.400   1.504  15.264  0.1388  0.1116  0.0377
 6921TIP3    H242179   4.422   1.461  15.121  0.0412 -0.6945  0.2569
 6922TIP3   OH242180   4.816   1.990  14.834 -0.3423  0.4061  0.4087
 6922TIP3    H142181   4.874   2.066  14.836 -0.9374  1.1368 -3.2756
 6922TIP3    H242182   4.772   1.994  14.749 -1.3814 -3.3930  0.5369
 6923TIP3   OH242183   3.844   3.373  17.263  0.2104  0.3817 -0.4786
 6923TIP3    H142184   3.762   3.380  17.214  0.0272  0.6269 -0.1477
 6923TIP3    H242185   3.846   3.453  17.316  0.6955  0.4039 -0.5328
 6924TIP3   OH242186   0.388   1.954   0.291  0.2375  0.9530  0.5050
 6924TIP3    H142187   0.345   2.026   0.245 -1.7309 -0.8098 -0.5841
 6924TIP3    H242188   0.360   1.963   0.382  0.4797  1.8700  0.4985
 6925TIP3   OH242189   1.798   1.613  16.284 -0.3915 -0.4768  0.1222
 6925TIP3    H142190   1.744   1.691  16.290 -0.4281 -0.3533 -1.3731
 6925TIP3    H242191   1.795   1.574  16.371 -1.8380  0.2155  0.4030
 6926TIP3   OH242192   4.769   1.592  13.706  0.1075  0.3649  0.1936
 6926TIP3    H142193   4.714   1.561  13.634  1.4642 -2.1939  0.1325
 6926TIP3    H242194   4.855   1.606  13.666  0.3232  1.1386  0.8949
 6927TIP3   OH242195   2.888   0.306  12.213 -0.0355 -0.2322  0.1793
 6927TIP3    H142196   2.934   0.382  12.177 -0.8346  0.7968  1.2600
 6927TIP3    H242197   2.940   0.231  12.186  0.8339  0.7087 -0.8223
 6928TIP3   OH242198   2.228   4.767  12.125 -0.5586 -0.2225 -0.2345
 6928TIP3    H142199   2.281   4.720  12.190  1.2789  1.7858 -0.1451
 6928TIP3    H242200   2.289   4.831  12.087 -2.7931  1.9145 -0.4873
 6929TIP3   OH242201   1.090   3.343  11.342  0.4273  0.1449  0.3421
 6929TIP3    H142202   1.067   3.270  11.286 -1.1670  0.3279  0.7136
 6929TIP3    H242203   1.122   3.411  11.282 -0.9926  0.2363 -0.3417
 6930TIP3   OH242204   0.202   3.319   0.524  0.1371  0.2714  0.1332
 6930TIP3    H142205   0.250   3.273   0.593 -0.0397  1.5739  1.1614
 6930TIP3    H242206   0.111   3.293   0.536  0.3115 -0.6982 -0.5944
 6931TIP3   OH242207   2.220   0.212   0.514 -0.0129  0.4354 -0.0089
 6931TIP3    H142208   2.234   0.281   0.579 -0.4524  0.2410  0.3020
 6931TIP3    H242209   2.297   0.216   0.457  0.6354  0.2894  0.8279
 6932TIP3   OH242210   0.639   6.306   0.956  0.0045  0.0116 -0.1124
 6932TIP3    H142211   0.592   6.382   0.922 -0.0623 -0.6403 -1.5389
 6932TIP3    H242212   0.732   6.328   0.945  0.0315 -1.0659 -2.9789
 6933TIP3   OH242213   2.087   6.171  11.618 -0.1203  1.1528 -0.2384
 6933TIP3    H142214   2.108   6.163  11.525 -0.5715 -1.7904 -0.1972
 6933TIP3    H242215   2.002   6.128  11.628  0.0069  1.2217  1.5585
 6934TIP3   OH242216   2.528   2.982   4.995 -0.8382  0.1374 -0.7731
 6934TIP3    H142217   2.585   2.915   5.033 -0.3311  0.2796 -1.2604
 6934TIP3    H242218   2.439   2.948   5.008 -0.5943 -0.5914 -0.9327
 6935TIP3   OH242219   0.479   6.280   2.958  0.0989  0.6680 -0.5971
 6935TIP3    H142220   0.491   6.329   2.876 -0.8256  1.0158 -0.5348
 6935TIP3    H242221   0.386   6.255   2.957  0.6854 -1.7531 -0.9957
 6936TIP3   OH242222   5.129   2.242   4.715 -0.1176  0.1737  0.1303
 6936TIP3    H142223   5.073   2.236   4.637 -0.5604 -0.8265  0.5062
 6936TIP3    H242224   5.110   2.163   4.764 -0.9487  1.4618  2.0113
 6937TIP3   OH242225   3.140   5.010  16.230  0.2410 -0.0169  0.2670
 6937TIP3    H142226   3.179   5.087  16.271 -1.1671  0.2123  1.2605
 6937TIP3    H242227   3.060   4.994  16.281  0.1221 -1.6888 -0.3861
 6938TIP3   OH242228   4.547   5.569  12.400  0.0707  0.6866  0.0686
 6938TIP3    H142229   4.502   5.506  12.344 -1.3968 -0.4392  2.3401
 6938TIP3    H242230   4.485   5.641  12.410 -0.3021  0.2242  1.3089
 6939TIP3   OH242231   2.133   0.587  13.912 -0.2911  0.6422  0.1203
 6939TIP3    H142232   2.094   0.615  13.995  0.7131 -1.8147  1.5330
 6939TIP3    H242233   2.222   0.622  13.915 -0.2808  0.6223  0.0443
 6940TIP3   OH242234   2.976   2.516   5.193  0.3091  0.2271 -0.1157
 6940TIP3    H142235   2.898   2.462   5.206 -1.8644  2.4430 -2.8402
 6940TIP3    H242236   2.971   2.583   5.261  1.1741 -0.8892  1.1181
 6941TIP3   OH242237   4.328   5.987   3.267 -0.5052 -0.4378  0.3743
 6941TIP3    H142238   4.337   5.987   3.171 -2.2930  4.3206 -0.0432
 6941TIP3    H242239   4.234   5.988   3.282 -0.2636  0.5702  2.0622
 6942TIP3   OH242240   6.290   2.045  13.970 -0.1751  0.2337 -0.4045
 6942TIP3    H142241   6.317   2.107  13.902 -0.3769  0.8972  0.1178
 6942TIP3    H242242   6.373   2.012  14.006 -0.0499 -0.9610 -1.7084
 6943TIP3   OH242243   4.644   4.967   3.686 -0.0357 -0.3253 -0.4970
 6943TIP3    H142244   4.578   4.955   3.618 -2.0356  0.0255  1.2812
 6943TIP3    H242245   4.605   5.030   3.746  1.6320 -0.6804  1.0364
 6944TIP3   OH242246   6.104   5.516  17.512  0.6084 -0.2231 -0.4671
 6944TIP3    H142247   6.146   5.539  17.429  1.3913  4.5179  0.9400
 6944TIP3    H242248   6.175   5.512  17.575 -0.3235  1.1202  0.7459
 6945TIP3   OH242249   0.867   5.576  17.587  0.2550 -0.3459  0.0563
 6945TIP3    H142250   0.884   5.595  17.680  0.8837 -3.2062  0.6461
 6945TIP3    H242251   0.948   5.538  17.555 -0.2786 -0.3158 -1.4010
 6946TIP3   OH242252   3.104   5.871  14.984 -1.1528  0.2393  0.1954
 6946TIP3    H142253   3.187   5.887  14.940 -0.8247  0.1580  0.7711
 6946TIP3    H242254   3.124   5.882  15.077 -1.4756 -1.1085  0.4342
 6947TIP3   OH242255   3.614   6.045  13.843  0.7573  0.2040  0.1627
 6947TIP3    H142256   3.690   6.092  13.809  1.3810 -1.3867 -0.7766
 6947TIP3    H242257   3.644   5.954  13.852 -1.0920 -0.5222 -0.4689
 6948TIP3   OH242258   6.038   6.471   0.756 -0.2067  0.2057 -0.1348
 6948TIP3    H142259   6.035   6.404   0.688  3.5937 -0.5543  0.2571
 6948TIP3    H242260   6.015   6.552   0.711 -1.3223 -0.7757 -1.4319
 6949TIP3   OH242261   0.316   0.442   0.394 -0.1243 -0.0365 -0.0945
 6949TIP3    H142262   0.346   0.477   0.311 -0.8831  0.8721 -0.0058
 6949TIP3    H242263   0.237   0.392   0.371  0.2290 -0.6144 -0.0513
 6950TIP3   OH242264   3.335   2.694  16.046  0.0415 -0.4750 -0.2791
 6950TIP3    H142265   3.312   2.605  16.072 -0.5031  0.0899  1.3128
 6950TIP3    H242266   3.278   2.712  15.971 -2.1096 -0.4569  1.2410
 6951TIP3   OH242267   5.505   0.845   3.669 -0.1139  0.1032 -0.0510
 6951TIP3    H142268   5.497   0.822   3.761  1.6203 -0.6774 -0.0492
 6951TIP3    H242269   5.419   0.827   3.632 -0.7486  0.1501  1.3390
 6952TIP3   OH242270   3.273   2.011  12.109  0.5514  0.1279 -0.3505
 6952TIP3    H142271   3.349   1.996  12.165  0.7576  2.4248  0.1014
 6952TIP3    H242272   3.201   1.967  12.153  0.9418  0.9135  1.1455
 6953TIP3   OH242273   1.774   4.218   3.024 -0.2288 -0.4998  0.0229
 6953TIP3    H142274   1.695   4.184   2.981  0.0388  0.3299 -1.1904
 6953TIP3    H242275   1.763   4.313   3.022  0.9987 -0.3500 -0.6042
 6954TIP3   OH242276   3.344   3.302  15.595 -0.8491  0.1588  0.4095
 6954TIP3    H142277   3.435   3.322  15.615 -0.6567 -1.3589  1.1350
 6954TIP3    H242278   3.326   3.353  15.516  0.9705 -0.3812 -0.4147
 6955TIP3   OH242279   4.374   2.122   4.414  0.1250  0.4404  0.2558
 6955TIP3    H142280   4.358   2.176   4.336  2.9470 -0.4151 -1.0193
 6955TIP3    H242281   4.405   2.038   4.380 -0.5145 -0.7072  2.3027
 6956TIP3   OH242282   0.029   2.534   6.229 -0.4756 -0.4764  0.1905
 6956TIP3    H142283   0.004   2.457   6.178  3.8468 -1.9127 -0.1914
 6956TIP3    H242284   0.073   2.591   6.165  0.9106 -0.1523  1.3793
 6957TIP3   OH242285   6.515   5.219  14.455  0.0021 -0.2213  0.0503
 6957TIP3    H142286   6.550   5.152  14.514  2.7132  0.9916 -0.0240
 6957TIP3    H242287   6.505   5.297  14.510 -1.5992 -0.1921 -0.2185
 6958TIP3   OH242288   1.882   0.575  14.997  0.0740  0.2271 -0.4646
 6958TIP3    H142289   1.970   0.545  14.976  0.2547  0.1905  0.3464
 6958TIP3    H242290   1.862   0.640  14.929  1.6245  1.9600  0.6577
 6959TIP3   OH242291   1.129   5.060  11.897  0.5915  0.5105 -0.2710
 6959TIP3    H142292   1.169   5.146  11.910  1.5607  0.2935 -1.5961
 6959TIP3    H242293   1.051   5.077  11.845 -0.5172  0.8098  1.4015
 6960TIP3   OH242294   1.763   5.700  13.877  0.6444 -0.6470 -0.2952
 6960TIP3    H142295   1.826   5.770  13.860  0.0119 -0.2778 -1.2052
 6960TIP3    H242296   1.806   5.644  13.941  0.6407  1.2815  1.4949
 6961TIP3   OH242297   1.252   4.817  13.812 -0.1345  0.4066 -0.0510
 6961TIP3    H142298   1.316   4.808  13.883 -0.4728 -0.2181  0.1838
 6961TIP3    H242299   1.293   4.877  13.750  0.2227  0.8598  0.6088
 6962TIP3   OH242300   3.211   5.202   4.710 -0.0981  0.3332  0.0168
 6962TIP3    H142301   3.219   5.213   4.805 -1.0033  2.2259 -0.0815
 6962TIP3    H242302   3.180   5.287   4.679 -2.1090 -0.9384 -1.6840
 6963TIP3   OH242303   3.210   1.080  14.529  0.3150  0.4728 -0.6246
 6963TIP3    H142304   3.195   1.116  14.616  0.9892  0.2416 -0.4113
 6963TIP3    H242305   3.244   0.992  14.544  1.9243  0.9921 -1.0761
 6964TIP3   OH242306   5.619   1.331   0.564  0.6813  0.3227 -0.5487
 6964TIP3    H142307   5.681   1.314   0.493 -0.3228 -0.4497 -1.2844
 6964TIP3    H242308   5.572   1.410   0.536 -0.8871 -0.9384 -1.6278
 6965TIP3   OH242309   6.502   2.234  15.071  0.6725 -0.2132 -0.7007
 6965TIP3    H142310   6.494   2.312  15.017 -0.1824 -0.0463 -0.3453
 6965TIP3    H242311   6.412   2.209  15.091  0.9053  0.9242  2.3125
 6966TIP3   OH242312   4.713   0.086   2.899 -0.0649 -0.2068  0.7363
 6966TIP3    H142313   4.795   0.037   2.887 -0.3213 -0.1096 -2.0198
 6966TIP3    H242314   4.644   0.021   2.883 -0.5079  0.0900  1.4066
 6967TIP3   OH242315   3.747   2.954  14.176  0.3727  0.3668  0.2936
 6967TIP3    H142316   3.659   2.918  14.187  0.6773 -0.3039  0.6119
 6967TIP3    H242317   3.800   2.880  14.148  0.6944  0.9306 -0.6169
 6968TIP3   OH242318   5.157   5.467   4.840 -0.6203  0.0994 -0.0130
 6968TIP3    H142319   5.217   5.541   4.839  0.7731 -0.9741 -1.2018
 6968TIP3    H242320   5.099   5.482   4.765 -0.9563  0.4407  0.3096
 6969TIP3   OH242321   6.005   1.033  12.985  0.0605 -0.1666  0.0469
 6969TIP3    H142322   6.001   1.117  13.031  2.4775  0.2123 -0.2959
 6969TIP3    H242323   6.044   1.053  12.900  1.0370 -1.6540  0.0952
 6970TIP3   OH242324   4.754   0.881   0.093 -0.2969  0.0848  0.3700
 6970TIP3    H142325   4.759   0.972   0.066  0.0197  0.1289  0.5772
 6970TIP3    H242326   4.663   0.856   0.076 -0.0205 -0.0198 -1.1472
 6971TIP3   OH242327   3.563   0.899   3.041 -0.4407  0.5244 -0.0623
 6971TIP3    H142328   3.550   0.814   2.999  0.7344 -0.4044  1.3304
 6971TIP3    H242329   3.520   0.890   3.126  1.5380  0.5060  0.9945
 6972TIP3   OH242330   3.618   6.554  15.213  0.5009 -0.2604 -0.5366
 6972TIP3    H142331   3.543   6.592  15.260  1.4994  0.0665  0.8818
 6972TIP3    H242332   3.679   6.627  15.203  0.9524 -0.6918 -0.9627
 6973TIP3   OH242333   0.942   3.508  16.730 -0.0315 -0.0655  0.0090
 6973TIP3    H142334   1.006   3.442  16.755 -0.9203 -0.2726  1.9145
 6973TIP3    H242335   0.868   3.458  16.694  0.6880  0.1530 -1.8800
 6974TIP3   OH242336   3.062   1.833   0.952 -0.4534  0.2446  0.8530
 6974TIP3    H142337   2.997   1.762   0.952 -0.0161 -0.1627  0.3241
 6974TIP3    H242338   3.033   1.891   0.881 -1.2727  1.0379  1.8123
 6975TIP3   OH242339   4.096   2.940   0.668  0.0492 -0.1040 -0.6193
 6975TIP3    H142340   4.162   2.871   0.678 -0.3231 -0.2416  1.2581
 6975TIP3    H242341   4.069   2.934   0.576  0.2752 -2.2322 -0.5923
 6976TIP3   OH242342   4.359   5.893  14.495 -0.2255  0.1834 -0.4874
 6976TIP3    H142343   4.317   5.898  14.581  0.6954  2.3533 -0.1086
 6976TIP3    H242344   4.354   5.982  14.460  0.4463 -0.4069 -2.2014
 6977TIP3   OH242345   0.156   2.765  17.154 -0.7185  0.2105 -0.4997
 6977TIP3    H142346   0.223   2.807  17.207 -0.2496 -0.9460 -0.1502
 6977TIP3    H242347   0.114   2.837  17.106  1.2177  0.8856 -1.2580
 6978TIP3   OH242348   4.733   4.336   3.856  0.0546 -0.4343 -0.3370
 6978TIP3    H142349   4.695   4.280   3.924  1.1668  0.9803  1.5399
 6978TIP3    H242350   4.750   4.277   3.784 -0.3428 -2.2006  0.9425
 6979TIP3   OH242351   0.676   6.594  14.353 -0.3181  0.0381  0.2918
 6979TIP3    H142352   0.692   6.588  14.259 -1.1484 -0.4545  0.1766
 6979TIP3    H242353   0.632   6.678  14.365 -0.4715 -0.0287  0.1986
 6980TIP3   OH242354   1.392   1.329  13.909  0.1155 -0.3288  0.1210
 6980TIP3    H142355   1.344   1.317  13.991  1.0487  0.2575  0.7643
 6980TIP3    H242356   1.354   1.263  13.850 -0.8941 -0.4388  0.8597
 6981TIP3   OH242357   5.586   3.395  17.428 -0.5084 -0.1359  0.2291
 6981TIP3    H142358   5.575   3.462  17.361  0.7724  1.4769  1.5530
 6981TIP3    H242359   5.651   3.431  17.488  0.0882 -2.4972  1.1167
 6982TIP3   OH242360   3.688   2.149  14.223 -0.2735  0.2570 -0.4700
 6982TIP3    H142361   3.703   2.059  14.196  1.0726  0.5759 -0.8665
 6982TIP3    H242362   3.775   2.183  14.244 -0.4876  1.9974 -2.0914
 6983TIP3   OH242363   5.820   6.218   1.619 -0.6228  0.3612 -0.3684
 6983TIP3    H142364   5.910   6.191   1.605 -1.0967 -1.4099 -0.2980
 6983TIP3    H242365   5.808   6.214   1.714  0.0236  3.5059 -0.0710
 6984TIP3   OH242366   2.139   1.726   0.649  0.4026  0.1353 -0.0024
 6984TIP3    H142367   2.182   1.664   0.590  0.2248 -1.4632  1.4650
 6984TIP3    H242368   2.047   1.699   0.649 -0.1369  1.8540 -1.0658
 6985TIP3   OH242369   2.126   1.067  14.185  0.0002  0.2273  0.1501
 6985TIP3    H142370   2.203   1.024  14.148 -0.0412  2.1860 -2.5224
 6985TIP3    H242371   2.052   1.019  14.149 -0.0543 -0.2480  0.8788
 6986TIP3   OH242372   5.986   1.302  17.515 -0.2315  0.4586  1.0072
 6986TIP3    H142373   5.950   1.246  17.446  0.7792 -1.2820  1.8242
 6986TIP3    H242374   5.916   1.364  17.535 -1.9022 -1.3206  0.9479
 6987TIP3   OH242375   3.943   3.947  17.202  0.2554  0.2155 -0.1714
 6987TIP3    H142376   3.880   3.981  17.266  0.6608 -0.7000  0.7528
 6987TIP3    H242377   3.893   3.939  17.121 -0.1585  1.7942 -0.0918
 6988TIP3   OH242378   5.605   3.006   0.966 -0.1564 -0.0015  0.0250
 6988TIP3    H142379   5.659   3.075   1.003  0.7922 -0.0366 -1.2291
 6988TIP3    H242380   5.532   3.052   0.925 -1.2811  0.0308  1.9470
 6989TIP3   OH242381   6.532   2.452   3.663  0.1259 -0.3482  0.1491
 6989TIP3    H142382   6.454   2.438   3.716 -0.4140 -3.1309 -1.1656
 6989TIP3    H242383   6.602   2.469   3.726 -1.0716 -0.3625  1.5223
 6990TIP3   OH242384   3.772   1.140  13.846 -0.5602 -0.0871 -0.0446
 6990TIP3    H142385   3.689   1.115  13.805 -0.6035  0.3008 -0.2031
 6990TIP3    H242386   3.824   1.060  13.848 -0.9529 -0.3428  0.0899
 6991TIP3   OH242387   4.303   6.062   2.329 -0.1038  0.0791 -0.0587
 6991TIP3    H142388   4.236   6.028   2.389  0.2647 -1.4646 -0.4663
 6991TIP3    H242389   4.386   6.040   2.371  0.1565 -0.7125 -0.9457
 6992TIP3   OH242390   1.818   1.643   0.680 -0.9373  0.4118 -0.0608
 6992TIP3    H142391   1.862   1.588   0.745  0.7735  0.4352 -1.1373
 6992TIP3    H242392   1.770   1.582   0.625  1.0812 -0.1150 -1.3510
 6993TIP3   OH242393   2.572   0.610  15.946  0.2619  0.1265 -0.0908
 6993TIP3    H142394   2.531   0.652  16.022  1.7831 -0.7839  1.2952
 6993TIP3    H242395   2.556   0.671  15.874 -1.3142  0.9777  0.9086
 6994TIP3   OH242396   6.623   2.995  15.323 -0.2997  0.6574  0.1464
 6994TIP3    H142397   6.692   3.024  15.383  0.5700  0.5697 -0.7878
 6994TIP3    H242398   6.592   3.076  15.281  0.4715  0.5195 -0.7171
 6995TIP3   OH242399   3.448   5.652   6.350 -0.4986  0.3285 -0.3084
 6995TIP3    H142400   3.419   5.649   6.441  0.0606 -0.0645 -0.1405
 6995TIP3    H242401   3.516   5.720   6.348  1.4824 -1.5284  0.1708
 6996TIP3   OH242402   4.841   0.738   2.157  0.1282  0.2235  0.1751
 6996TIP3    H142403   4.850   0.658   2.209 -0.4764 -0.1655 -0.3031
 6996TIP3    H242404   4.922   0.742   2.106  0.5170  0.3557  0.7851
 6997TIP3   OH242405   5.956   4.655   5.775 -0.1878  0.1137  0.0930
 6997TIP3    H142406   5.940   4.561   5.768 -2.4154  0.5091 -0.7339
 6997TIP3    H242407   5.869   4.695   5.782  0.5261  2.2877 -1.8861
 6998TIP3   OH242408   1.335   4.445  13.876 -0.1625  0.0696  0.0261
 6998TIP3    H142409   1.282   4.518  13.909 -0.2800  0.2699 -0.5875
 6998TIP3    H242410   1.382   4.412  13.953 -1.4709 -0.3672  0.6699
 6999TIP3   OH242411   1.397   5.575  15.272 -0.1315 -0.2781 -0.0874
 6999TIP3    H142412   1.335   5.627  15.323 -0.0868 -0.3923  0.0853
 6999TIP3    H242413   1.343   5.535  15.204 -0.0280  0.6370 -0.7196
 7000TIP3   OH242414   1.013   2.825   4.576 -0.6736 -0.6450 -0.1223
 7000TIP3    H142415   1.039   2.855   4.489  1.6235 -0.8316  0.4461
 7000TIP3    H242416   1.022   2.903   4.631 -2.2862 -0.4850 -0.0492
 7001TIP3   OH242417   0.575   5.141  17.256  0.5825  0.7627 -0.5853
 7001TIP3    H142418   0.610   5.159  17.169 -0.1536  0.5230 -0.9441
 7001TIP3    H242419   0.484   5.172  17.251  0.0907 -0.5843 -0.3727
 7002TIP3   OH242420   6.485   6.570  11.559 -0.3328  0.0014 -0.4121
 7002TIP3    H142421   6.573   6.589  11.527 -0.6977 -0.7153 -1.9589
 7002TIP3    H242422   6.460   6.648  11.609  2.1811 -0.8580  2.4635
 7003TIP3   OH242423   5.181   4.754   2.263  0.2474  0.3882 -0.4989
 7003TIP3    H142424   5.264   4.706   2.265 -0.1974 -0.5917 -2.3841
 7003TIP3    H242425   5.120   4.697   2.309 -0.1756 -0.7737 -2.3493
 7004TIP3   OH242426   3.360   3.100   4.134 -0.1862  1.3221 -0.4596
 7004TIP3    H142427   3.405   3.148   4.203  0.0794 -0.3702  0.5827
 7004TIP3    H242428   3.429   3.072   4.074  0.4605 -1.9954  1.5711
 7005TIP3   OH242429   3.638   3.113   2.182 -0.5791  0.4067 -0.7433
 7005TIP3    H142430   3.569   3.055   2.151 -1.1088  0.8996 -0.4935
 7005TIP3    H242431   3.647   3.093   2.275 -0.7764  0.7366 -0.6525
 7006TIP3   OH242432   6.685   0.403  12.732  0.6710  0.3654 -0.2914
 7006TIP3    H142433   6.613   0.386  12.793  0.5199 -1.0736 -0.8343
 7006TIP3    H242434   6.664   0.351  12.655  2.1903  0.0835 -0.5399
 7007TIP3   OH242435   5.662   5.578  11.169 -0.1251  0.1979 -0.0023
 7007TIP3    H142436   5.645   5.519  11.096  1.2509  1.6707 -1.6027
 7007TIP3    H242437   5.605   5.653  11.152  1.5232  1.3639 -0.6629
 7008TIP3   OH242438   0.970   4.575   2.023  0.0156 -0.2266  0.2015
 7008TIP3    H142439   1.000   4.666   2.033 -1.3950  0.1120  2.1576
 7008TIP3    H242440   0.889   4.582   1.974 -0.0944 -0.4210  0.3540
 7009TIP3   OH242441   3.218   3.388   5.327 -0.2368  0.2300 -0.1782
 7009TIP3    H142442   3.214   3.469   5.276 -0.9427  0.1624 -0.2336
 7009TIP3    H242443   3.171   3.409   5.408  2.0170  0.7703  1.0760
 7010TIP3   OH242444   6.543   2.715   5.792  0.3637 -0.1341  0.1239
 7010TIP3    H142445   6.528   2.624   5.820 -0.2476 -0.6618 -1.7062
 7010TIP3    H242446   6.565   2.707   5.699 -0.9319  1.6656 -0.4035
 7011TIP3   OH242447   2.923   2.043   4.446  0.1936  0.2447  0.5111
 7011TIP3    H142448   2.898   1.959   4.407  1.8804  0.5892 -1.4961
 7011TIP3    H242449   2.849   2.066   4.502 -2.5254 -0.3096 -2.5316
 7012TIP3   OH242450   5.043   3.048   2.198 -0.1275  0.2392 -0.1001
 7012TIP3    H142451   5.077   2.959   2.189  0.2059  0.3312  0.2307
 7012TIP3    H242452   5.005   3.051   2.285 -0.2469  0.3850 -0.1573
 7013TIP3   OH242453   3.118   4.319  13.123 -0.1755 -0.1779 -0.3191
 7013TIP3    H142454   3.050   4.336  13.187 -0.1244 -0.1876 -0.2618
 7013TIP3    H242455   3.095   4.235  13.084 -1.7716  1.0573 -2.2984
 7014TIP3   OH242456   3.210   2.940  11.171 -0.1702  0.1526 -0.3089
 7014TIP3    H142457   3.119   2.963  11.151  0.7806  2.1028 -2.9111
 7014TIP3    H242458   3.211   2.844  11.170 -1.9642  0.1019 -1.3622
 7015TIP3   OH242459   1.597   6.297  11.482  0.5594 -0.0549  0.0022
 7015TIP3    H142460   1.541   6.274  11.408 -0.9790  1.4194  0.6577
 7015TIP3    H242461   1.679   6.250  11.465 -0.3165 -1.0419 -1.7795
 7016TIP3   OH242462   0.210   4.639  11.805  0.2875 -0.5208 -0.1744
 7016TIP3    H142463   0.204   4.733  11.822  1.6043 -0.4965  0.2818
 7016TIP3    H242464   0.180   4.598  11.886 -1.4681 -0.5380 -0.7954
 7017TIP3   OH242465   3.843   2.382   6.088  0.1868  0.6364  0.0948
 7017TIP3    H142466   3.900   2.427   6.150  0.4783  1.8884 -1.0263
 7017TIP3    H242467   3.792   2.452   6.047 -4.8491 -0.5614  3.4218
 7018TIP3   OH242468   3.336   1.843  11.665  0.4967  0.5694 -0.4133
 7018TIP3    H142469   3.319   1.846  11.571  0.6075 -0.0871 -0.4601
 7018TIP3    H242470   3.371   1.930  11.686  0.8501  0.5905 -1.0518
 7019TIP3   OH242471   6.027   1.051  16.357 -0.1189  0.2352  0.1119
 7019TIP3    H142472   6.108   1.019  16.397  1.1564  2.3788 -0.5996
 7019TIP3    H242473   5.997   0.978  16.302  1.5079 -0.4802  0.1184
 7020TIP3   OH242474   4.713   1.852   5.314  1.0193 -0.1930 -0.2589
 7020TIP3    H142475   4.740   1.854   5.223  2.1839 -2.9076 -0.0682
 7020TIP3    H242476   4.623   1.821   5.313  0.7164  0.6773 -0.5057
 7021TIP3   OH242477   1.881   0.467  12.906  0.0552 -0.0130  0.5294
 7021TIP3    H142478   1.836   0.542  12.866 -0.7647 -0.0124  1.3917
 7021TIP3    H242479   1.932   0.428  12.836 -2.6108 -1.0322 -0.9919
 7022TIP3   OH242480   3.094   1.050   5.702  0.5134 -0.0121 -0.4518
 7022TIP3    H142481   3.059   1.044   5.791 -1.5384 -1.0566 -1.2531
 7022TIP3    H242482   3.044   1.121   5.661  0.7073 -0.2151 -1.0629
 7023TIP3   OH242483   5.329   0.186  16.407 -0.1749 -0.2292  0.0459
 7023TIP3    H142484   5.420   0.214  16.402 -0.5340  1.2580  0.9854
 7023TIP3    H242485   5.326   0.103  16.360  1.1381  0.9647 -2.3266
 7024TIP3   OH242486   5.954   2.297  15.307 -0.2270 -0.0349 -0.1784
 7024TIP3    H142487   5.998   2.377  15.336  1.1731  0.2097 -2.7170
 7024TIP3    H242488   6.024   2.243  15.269 -1.5749 -1.1983 -1.1410
 7025TIP3   OH242489   4.518   4.966   0.854 -0.2587 -0.5641 -0.1881
 7025TIP3    H142490   4.502   5.020   0.931 -0.4796 -1.0001  0.0797
 7025TIP3    H242491   4.545   4.881   0.891 -1.6184 -1.1876 -0.5555
 7026TIP3   OH242492   1.864   2.152  15.038 -0.5125  0.4627  0.4084
 7026TIP3    H142493   1.938   2.112  14.994 -1.4497 -1.9379  0.8926
 7026TIP3    H242494   1.855   2.104  15.120 -1.9836  1.3905  0.8440
 7027TIP3   OH242495   5.011   6.424  10.981  0.3277  0.0313 -0.1564
 7027TIP3    H142496   4.933   6.421  11.036 -0.4990 -1.4425 -1.3292
 7027TIP3    H242497   5.050   6.337  10.988 -0.3941 -0.5902 -2.6174
 7028TIP3   OH242498   0.852   6.605   4.483 -0.4861  0.2193 -0.0961
 7028TIP3    H142499   0.929   6.659   4.469 -1.1974  1.3205  0.1701
 7028TIP3    H242500   0.872   6.557   4.564  0.6713 -0.9285 -0.9931
 7029TIP3   OH242501   0.587   0.160   2.081  0.0740  0.1852  0.7590
 7029TIP3    H142502   0.580   0.090   2.145 -0.1610  0.0839  0.6235
 7029TIP3    H242503   0.549   0.236   2.125 -0.8333 -0.0774  0.4550
 7030TIP3   OH242504   0.739   0.691  15.676  0.1741 -0.0538  0.2125
 7030TIP3    H142505   0.652   0.661  15.703 -0.4899 -0.6778 -2.3114
 7030TIP3    H242506   0.779   0.726  15.755 -1.5734 -1.6680  1.8985
 7031TIP3   OH242507   3.805   2.895  13.648  0.2242  0.1387  0.1536
 7031TIP3    H142508   3.802   2.990  13.637 -0.2947 -0.0527 -1.6254
 7031TIP3    H242509   3.899   2.874  13.649  0.3518  0.4801 -1.5998
 7032TIP3   OH242510   4.694   2.641   2.757  0.4186  1.0159 -0.0138
 7032TIP3    H142511   4.612   2.686   2.777  0.8206  0.8357  2.3252
 7032TIP3    H242512   4.671   2.548   2.762  0.0539  0.8464 -2.8342
 7033TIP3   OH242513   1.790   0.720   1.044 -0.5566  0.5712 -0.4051
 7033TIP3    H142514   1.841   0.642   1.023 -0.6958  0.0029  1.2299
 7033TIP3    H242515   1.749   0.745   0.961  2.9613  1.5724 -2.0702
 7034TIP3   OH242516   1.765   3.238  12.475  0.3890 -0.4901  0.4408
 7034TIP3    H142517   1.790   3.327  12.500  0.1695 -0.1072 -0.6681
 7034TIP3    H242518   1.844   3.186  12.493  0.5276 -0.0785  1.0768
 7035TIP3   OH242519   5.719   1.811   5.862 -0.2649  0.1106 -0.4429
 7035TIP3    H142520   5.763   1.883   5.817  1.8380 -0.1549  1.0409
 7035TIP3    H242521   5.684   1.757   5.792 -1.6704  2.3611 -1.6123
 7036TIP3   OH242522   4.825   1.841   2.004 -0.1954  0.0721 -0.3507
 7036TIP3    H142523   4.803   1.894   1.928  1.7726  0.6826 -0.5301
 7036TIP3    H242524   4.903   1.793   1.979 -0.5929 -1.1506  0.6466
 7037TIP3   OH242525   4.356   3.788   4.456  0.3619 -0.7858  0.8008
 7037TIP3    H142526   4.410   3.745   4.389  0.3694  1.2740 -0.6050
 7037TIP3    H242527   4.370   3.882   4.441 -1.7692 -0.2288  1.9546
 7038TIP3   OH242528   6.261   5.870   5.362  0.3595 -0.2930 -0.1067
 7038TIP3    H142529   6.294   5.831   5.443  0.7546  0.6463  0.1931
 7038TIP3    H242530   6.317   5.946   5.347  1.1188 -1.1549 -1.9433
 7039TIP3   OH242531   2.498   4.065   1.786  0.1035  0.0345 -0.1173
 7039TIP3    H142532   2.575   4.121   1.783 -0.8669  1.3942 -0.1558
 7039TIP3    H242533   2.429   4.119   1.825 -1.4944 -0.3472 -2.2051
 7040TIP3   OH242534   4.244   2.534   2.376  0.1931 -0.2421  0.1246
 7040TIP3    H142535   4.154   2.567   2.383 -0.2874 -1.5071  0.0951
 7040TIP3    H242536   4.263   2.499   2.463  0.7876  0.3059  0.2244
 7041TIP3   OH242537   0.944   5.806  16.612  0.2025 -0.1036  0.0032
 7041TIP3    H142538   0.984   5.760  16.538 -0.1081 -1.9645  0.9172
 7041TIP3    H242539   0.987   5.891  16.614  0.9090 -0.3709 -1.7021
 7042TIP3   OH242540   5.539   5.204  14.609 -0.4890 -0.1046 -0.7415
 7042TIP3    H142541   5.510   5.166  14.692 -1.9284 -1.4209 -1.7909
 7042TIP3    H242542   5.519   5.137  14.544 -1.5258  1.7658 -2.4551
 7043TIP3   OH242543   2.637   5.017   5.658 -0.5116 -0.0718  0.2284
 7043TIP3    H142544   2.731   5.032   5.659 -0.7497  1.8709 -1.4269
 7043TIP3    H242545   2.609   5.032   5.748  0.6515  0.1204  0.5709
 7044TIP3   OH242546   5.420   0.321   4.556 -0.0621  0.1071  0.5582
 7044TIP3    H142547   5.500   0.270   4.558 -0.1975 -0.3247 -1.9860
 7044TIP3    H242548   5.357   0.269   4.606  0.4808 -0.9854  0.1399
 7045TIP3   OH242549   4.661   3.825   3.612  1.2983 -0.6324  0.0916
 7045TIP3    H142550   4.648   3.919   3.617 -2.4185 -0.9302 -0.7704
 7045TIP3    H242551   4.685   3.799   3.702 -0.3304  0.8681  1.0097
 7046TIP3   OH242552   5.730   5.312   0.644 -0.9844  0.3445  0.3736
 7046TIP3    H142553   5.781   5.235   0.670  0.6309  0.4890 -1.9864
 7046TIP3    H242554   5.780   5.386   0.677 -1.5282  0.4381  1.0037
 7047TIP3   OH242555   2.470   0.825   5.104 -0.4747 -0.0599 -0.0950
 7047TIP3    H142556   2.548   0.818   5.159 -0.3564  1.1313 -0.0822
 7047TIP3    H242557   2.442   0.735   5.091  1.1920 -0.5514 -0.5210
 7048TIP3   OH242558   0.384   2.849  17.306 -0.7963 -0.0369 -1.0160
 7048TIP3    H142559   0.479   2.859  17.306 -0.7700  2.4053  3.4947
 7048TIP3    H242560   0.369   2.766  17.352 -0.8074  0.2566 -0.4825
 7049TIP3   OH242561   0.855   5.351  15.792 -0.3625  0.2079 -0.5451
 7049TIP3    H142562   0.867   5.371  15.884 -1.0213 -0.5846 -0.2768
 7049TIP3    H242563   0.859   5.436  15.748  0.3731  0.5482  0.1517
 7050TIP3   OH242564   2.930   1.768   2.914 -0.0469  0.1486 -0.6952
 7050TIP3    H142565   2.868   1.722   2.971 -0.2200 -0.9930 -1.7651
 7050TIP3    H242566   3.005   1.709   2.908  0.3629  0.6873 -0.8912
 7051TIP3   OH242567   2.480   4.511  14.917 -0.2602  0.6030 -0.0394
 7051TIP3    H142568   2.390   4.515  14.886 -0.7021  1.2058  1.2873
 7051TIP3    H242569   2.497   4.418  14.928 -0.4651  0.4433 -0.9910
 7052TIP3   OH242570   1.081   2.571   3.452  0.2197  0.6471 -0.3378
 7052TIP3    H142571   1.138   2.536   3.383  1.0439  0.5566  0.3798
 7052TIP3    H242572   1.057   2.494   3.504 -0.2435  0.7456 -0.3983
 7053TIP3   OH242573   1.568   2.130  11.972 -0.2804 -0.3875 -0.2203
 7053TIP3    H142574   1.550   2.198  11.906 -1.4483 -0.0092  0.4489
 7053TIP3    H242575   1.492   2.133  12.030  0.4578 -1.1066  0.8174
 7054TIP3   OH242576   0.524   0.077   6.830 -0.2243 -0.6765 -0.1692
 7054TIP3    H142577   0.468   0.063   6.753 -0.9577  1.0858  0.0038
 7054TIP3    H242578   0.477   0.033   6.901 -2.1232  1.7946  0.2290
 7055TIP3   OH242579   2.842   1.439  16.575  0.2672  0.3141  0.4198
 7055TIP3    H142580   2.760   1.457  16.529 -0.3710 -0.4483  1.2416
 7055TIP3    H242581   2.840   1.498  16.651  0.8709  0.8822  0.0040
 7056TIP3   OH242582   2.547   1.128   2.963  0.1039  0.3418  0.1257
 7056TIP3    H142583   2.558   1.110   2.870 -0.6406  0.7975 -0.0628
 7056TIP3    H242584   2.603   1.064   3.007  0.6141  0.2535 -0.6386
 7057TIP3   OH242585   1.277   0.328  17.155 -0.6602  0.1845 -0.2386
 7057TIP3    H142586   1.368   0.298  17.150 -0.4482  0.6557  0.6819
 7057TIP3    H242587   1.283   0.422  17.168 -1.3033  0.3615 -1.0691
 7058TIP3   OH242588   3.735   1.428   5.462  0.2961  1.0135 -0.7940
 7058TIP3    H142589   3.658   1.442   5.517  0.4882 -0.2185 -0.1778
 7058TIP3    H242590   3.762   1.516   5.436  0.4250  1.6972  1.4125
 7059TIP3   OH242591   3.846   4.563   4.644 -0.1453 -0.5638  0.0081
 7059TIP3    H142592   3.899   4.544   4.566  1.5018  3.1387 -0.0013
 7059TIP3    H242593   3.755   4.553   4.614  0.4766 -1.1658 -1.8254
 7060TIP3   OH242594   1.227   0.387  17.431  0.4276  0.3024  0.5291
 7060TIP3    H142595   1.322   0.397  17.428  0.2912  1.7677  0.2220
 7060TIP3    H242596   1.209   0.309  17.378  1.4511 -0.0813  0.7155
 7061TIP3   OH242597   1.035   4.301   1.364  0.7237  0.3425 -0.1390
 7061TIP3    H142598   1.087   4.358   1.307 -0.4542  0.0530 -1.5735
 7061TIP3    H242599   0.971   4.262   1.305  0.0757 -0.7352  1.2423
 7062TIP3   OH242600   0.940   4.692   6.135 -0.2223  0.3350 -0.1217
 7062TIP3    H142601   0.854   4.702   6.176 -1.3871  0.3142 -2.4508
 7062TIP3    H242602   0.944   4.599   6.111 -1.3049  1.0548 -3.5268
 7063TIP3   OH242603   5.220   4.610  13.529  0.4927  0.9109  0.5197
 7063TIP3    H142604   5.154   4.583  13.466  1.3169  0.0184  0.0028
 7063TIP3    H242605   5.270   4.678  13.483  1.1875  0.1565  0.1094
 7064TIP3   OH242606   5.851   6.629   3.386  0.0927 -0.3511  0.2340
 7064TIP3    H142607   5.828   6.686   3.460 -2.4925 -2.7517  1.4872
 7064TIP3    H242608   5.909   6.563   3.424  1.2479  0.1200 -0.6666
 7065TIP3   OH242609   3.488   0.173  16.619 -0.1264 -0.1552  0.6033
 7065TIP3    H142610   3.467   0.187  16.712  0.2576  0.8364  0.5429
 7065TIP3    H242611   3.405   0.190  16.574 -0.6864 -1.9562  0.8487
 7066TIP3   OH242612   2.750   0.531  14.107  0.1109  0.0366  0.2833
 7066TIP3    H142613   2.686   0.574  14.164 -1.1391 -0.7612 -0.4723
 7066TIP3    H242614   2.768   0.597  14.039 -1.1639 -0.2707 -0.4013
 7067TIP3   OH242615   0.564   4.911   4.635 -0.5331 -0.0015  0.1097
 7067TIP3    H142616   0.474   4.915   4.605 -0.7569  0.3844  0.7997
 7067TIP3    H242617   0.573   4.985   4.695  0.7298  0.9586 -1.1988
 7068TIP3   OH242618   1.979   1.591  13.497 -0.4278 -0.4405 -0.0288
 7068TIP3    H142619   2.066   1.600  13.459 -0.3738 -2.8850 -0.6624
 7068TIP3    H242620   1.989   1.617  13.588  1.0150 -0.8551 -0.0496
 7069TIP3   OH242621   5.010   5.483  16.143  0.0427 -0.0101 -0.3388
 7069TIP3    H142622   5.106   5.491  16.145  0.1918 -1.0928 -1.7209
 7069TIP3    H242623   4.982   5.509  16.231  1.5730  0.6221 -0.0034
 7070TIP3   OH242624   4.926   5.541   2.741  0.2697 -0.5317 -0.2921
 7070TIP3    H142625   4.979   5.528   2.820  0.1988 -0.3730 -0.2169
 7070TIP3    H242626   4.989   5.565   2.674  0.1452  1.3393  0.1945
 7071TIP3   OH242627   4.695   2.200  16.813  0.6713 -0.3132  0.2105
 7071TIP3    H142628   4.662   2.176  16.900  0.1215 -3.3071 -0.6844
 7071TIP3    H242629   4.638   2.271  16.784  0.8254  0.7098  2.2193
 7072TIP3   OH242630   2.292   2.561   4.445 -0.1128  0.1170  0.0373
 7072TIP3    H142631   2.294   2.634   4.506  0.6208  0.8797 -0.8704
 7072TIP3    H242632   2.199   2.542   4.432 -0.2793  0.0164  1.2770
 7073TIP3   OH242633   5.140   2.314  12.358 -0.0212  0.2648  0.2211
 7073TIP3    H142634   5.189   2.244  12.399 -0.0810 -0.4370 -0.8632
 7073TIP3    H242635   5.159   2.392  12.411  1.3523 -0.2243  0.4750
 7074TIP3   OH242636   1.898   3.747  13.945 -0.3552 -0.1613  0.0141
 7074TIP3    H142637   1.905   3.751  13.850  1.2128 -0.1939  0.1016
 7074TIP3    H242638   1.878   3.655  13.964  1.6935 -0.6849 -0.1945
 7075TIP3   OH242639   1.110   0.605   3.328  0.1127 -0.3472  0.1911
 7075TIP3    H142640   1.067   0.687   3.304  0.1306  0.7263  3.3700
 7075TIP3    H242641   1.189   0.633   3.375  0.8557 -2.2450  0.1562
 7076TIP3   OH242642   1.386   0.021   5.184  0.6413  0.7570  0.4414
 7076TIP3    H142643   1.410   0.002   5.094  1.0953 -0.0095  0.7152
 7076TIP3    H242644   1.295   0.051   5.178  0.0640 -0.9652 -0.1078
 7077TIP3   OH242645   5.854   4.780   4.303 -0.7541  0.0128  0.3298
 7077TIP3    H142646   5.853   4.827   4.386 -1.8146  2.2950 -0.8854
 7077TIP3    H242647   5.907   4.702   4.320 -1.5354  0.0271  3.3093
 7078TIP3   OH242648   6.509   2.841   4.444 -0.6624  0.0774  0.3556
 7078TIP3    H142649   6.516   2.779   4.372  1.0932  1.2877 -0.5725
 7078TIP3    H242650   6.460   2.915   4.408  0.1442  0.6526  0.4267
 7079TIP3   OH242651   0.185   2.735   4.667  0.4417  0.1945  0.2327
 7079TIP3    H142652   0.186   2.719   4.573  1.2853 -0.7732  0.3817
 7079TIP3    H242653   0.268   2.698   4.698 -0.7570 -1.4367  1.6537
 7080TIP3   OH242654   1.813   3.789   6.165  0.0891 -0.5175 -0.1754
 7080TIP3    H142655   1.780   3.720   6.223  0.8262 -0.4929  0.2945
 7080TIP3    H242656   1.823   3.866   6.222  1.5440 -0.7026 -0.1273
 7081TIP3   OH242657   4.330   0.480   0.673  0.2102  0.0323 -0.3735
 7081TIP3    H142658   4.294   0.398   0.639 -0.7779 -0.4249  1.5881
 7081TIP3    H242659   4.260   0.515   0.728  1.7638  0.5735  1.3451
 7082TIP3   OH242660   0.658   0.952   4.466  0.2192 -0.1001  0.2509
 7082TIP3    H142661   0.574   0.914   4.491  0.3284  0.2665  1.2480
 7082TIP3    H242662   0.680   0.911   4.382 -0.2756 -1.2695  0.6682
 7083TIP3   OH242663   1.004   4.561  15.716  0.1157  0.0941 -0.1892
 7083TIP3    H142664   1.066   4.523  15.655 -0.9809  0.8587 -1.8793
 7083TIP3    H242665   0.965   4.635  15.668 -2.9574 -1.0636  0.2699
 7084TIP3   OH242666   6.459   5.073   2.018 -0.4036  0.8199  0.0974
 7084TIP3    H142667   6.386   5.127   2.048  0.0774  0.6420  1.7386
 7084TIP3    H242668   6.516   5.066   2.095 -1.0410 -3.0005  0.4618
 7085TIP3   OH242669   3.604   3.613  13.766 -0.3266 -0.0691  0.3440
 7085TIP3    H142670   3.677   3.551  13.761  2.1860  2.5794  1.6505
 7085TIP3    H242671   3.607   3.659  13.682 -2.8512 -2.1592 -1.0707
 7086TIP3   OH242672   2.286   6.244  16.927  0.4020 -0.4578  0.2673
 7086TIP3    H142673   2.260   6.309  16.862 -0.2263 -0.7922  0.1808
 7086TIP3    H242674   2.237   6.165  16.903  0.6914 -0.7817  0.7358
 7087TIP3   OH242675   3.509   2.198   2.042  0.3094 -0.3177  0.1462
 7087TIP3    H142676   3.550   2.272   2.088  0.3733  0.6975 -1.4390
 7087TIP3    H242677   3.433   2.237   1.999  0.2953 -1.1971 -0.6470
 7088TIP3   OH242678   2.175   2.908   4.657 -0.0875  0.0628  0.1499
 7088TIP3    H142679   2.235   2.883   4.587  1.6748  1.7010  0.9839
 7088TIP3    H242680   2.165   2.829   4.710 -1.6136 -1.2711 -1.9765
 7089TIP3   OH242681   1.924   2.410  11.788 -0.0182 -0.1272 -0.1183
 7089TIP3    H142682   1.985   2.366  11.729 -0.3108  2.2896 -2.3622
 7089TIP3    H242683   1.846   2.428  11.735 -1.7469 -0.8472  1.9734
 7090TIP3   OH242684   4.020   3.206   4.266  0.0469  0.3001  0.2140
 7090TIP3    H142685   3.952   3.239   4.208  0.0767 -1.0633 -0.6504
 7090TIP3    H242686   3.986   3.121   4.296  0.4608  0.5529  1.4317
 7091TIP3   OH242687   6.076   6.225  16.801 -0.0676 -0.1091 -0.1318
 7091TIP3    H142688   6.045   6.221  16.711  0.5913 -0.1378 -0.3613
 7091TIP3    H242689   6.026   6.296  16.841  1.0170  1.2403 -1.0703
 7092TIP3   OH242690   4.321   4.078   0.038  0.1838 -0.1131 -0.5754
 7092TIP3    H142691   4.300   4.121  -0.045 -2.1686 -1.3071 -0.6554
 7092TIP3    H242692   4.253   4.108   0.099  2.2128  1.2358  1.1871
 7093TIP3   OH242693   2.170   4.663   2.190  0.7304 -0.0476 -0.3245
 7093TIP3    H142694   2.202   4.578   2.221 -1.8819 -0.7809  0.6236
 7093TIP3    H242695   2.192   4.664   2.097  1.4530 -1.4413 -0.1944
 7094TIP3   OH242696   3.710   0.321   5.470  0.1789  0.1475  0.2865
 7094TIP3    H142697   3.737   0.310   5.561  0.3409 -0.5688  0.1545
 7094TIP3    H242698   3.789   0.302   5.419 -0.3858 -1.3024 -0.0777
 7095TIP3   OH242699   2.464   0.819  17.219  0.0241  0.2863  0.3903
 7095TIP3    H142700   2.416   0.744  17.184 -1.4065  1.3695 -0.0314
 7095TIP3    H242701   2.414   0.847  17.295 -0.0246  1.4118 -0.0317
 7096TIP3   OH242702   6.437   4.359  13.191  0.3924  0.3094  0.0877
 7096TIP3    H142703   6.441   4.263  13.192  1.1624  0.3176 -0.5619
 7096TIP3    H242704   6.527   4.386  13.210  0.3504  0.8859 -0.5025
 7097TIP3   OH242705   2.624   5.800   2.335  0.1269 -0.2379  0.0267
 7097TIP3    H142706   2.680   5.756   2.398 -1.0909 -0.2871  1.1039
 7097TIP3    H242707   2.600   5.732   2.272  2.7199  0.1871 -1.5469
 7098TIP3   OH242708   3.493   2.097   5.450  0.2866 -0.2787  0.0546
 7098TIP3    H142709   3.541   2.020   5.423  0.3690 -0.7355  1.4146
 7098TIP3    H242710   3.519   2.111   5.542  0.2168  1.3130 -0.1361
 7099TIP3   OH242711   1.153   2.188   1.269 -0.2828  0.3185  0.1256
 7099TIP3    H142712   1.168   2.094   1.263  0.4066  0.4831 -1.0518
 7099TIP3    H242713   1.151   2.218   1.178  1.9545  1.7682  0.4610
 7100TIP3   OH242714   4.321   4.230   4.057 -0.8387 -0.6561 -0.2320
 7100TIP3    H142715   4.329   4.297   3.989 -0.9671  0.0580  0.4427
 7100TIP3    H242716   4.389   4.166   4.036 -0.1849  0.0943 -0.4222
 7101TIP3   OH242717   5.948   3.977  14.505 -0.0452 -0.3234  0.1401
 7101TIP3    H142718   5.888   3.902  14.509 -1.6158  0.9211  1.6597
 7101TIP3    H242719   5.911   4.040  14.566  1.3695  1.6117 -0.8925
 7102TIP3   OH242720   3.429   0.136  14.046 -0.3080 -0.2668  0.0981
 7102TIP3    H142721   3.393   0.098  13.966 -0.0471 -0.2606 -0.0235
 7102TIP3    H242722   3.524   0.132  14.033 -0.2754  0.2715  0.1525
 7103TIP3   OH242723   3.380   1.031  16.881  0.2037 -0.1610  0.3089
 7103TIP3    H142724   3.405   0.984  16.802  2.4224  0.1607  0.7367
 7103TIP3    H242725   3.461   1.074  16.910 -0.5948 -0.0269  2.5882
 7104TIP3   OH242726   1.222   4.534  17.037 -0.0134 -0.3904 -0.3271
 7104TIP3    H142727   1.159   4.558  16.970 -2.8061 -3.2919  0.9764
 7104TIP3    H242728   1.197   4.586  17.113 -0.5834 -1.1674  0.0379
 7105TIP3   OH242729   0.086   6.168   1.616 -0.0413 -0.4341  0.5518
 7105TIP3    H142730   0.018   6.218   1.660 -0.8688 -1.0232 -0.0137
 7105TIP3    H242731   0.144   6.234   1.578  0.6204  0.0873  2.3569
 7106TIP3   OH242732   4.428   4.542  17.124 -0.1542  0.2145 -0.1549
 7106TIP3    H142733   4.435   4.456  17.165  0.1302  0.0826 -0.4744
 7106TIP3    H242734   4.378   4.595  17.186  0.0584 -0.0538  0.2427
 7107TIP3   OH242735   6.031   4.574   0.994 -0.2931 -0.0975 -0.0466
 7107TIP3    H142736   6.023   4.641   1.062  2.4400  0.6268 -0.3180
 7107TIP3    H242737   6.038   4.623   0.912  2.5851 -0.5637 -0.1700
 7108TIP3   OH242738   0.773   0.932  12.361  0.7267  0.1152  0.0500
 7108TIP3    H142739   0.712   0.965  12.427  0.6136  0.5327 -0.2598
 7108TIP3    H242740   0.847   0.993  12.365  1.4131 -0.7344  0.8537
 7109TIP3   OH242741   0.317   6.410  17.142 -0.1546  0.2663 -0.2779
 7109TIP3    H142742   0.310   6.340  17.077 -0.8109  0.7855 -0.7822
 7109TIP3    H242743   0.253   6.476  17.114  0.7225  1.2535 -0.0451
 7110TIP3   OH242744   4.532   6.567   3.118  0.1965  0.5690 -0.3841
 7110TIP3    H142745   4.472   6.582   3.191 -0.9114  0.0186 -1.1590
 7110TIP3    H242746   4.494   6.615   3.044 -0.8428 -1.9830 -1.6296
 7111TIP3   OH242747   6.552   0.617   2.660  0.6325 -0.1795  0.3896
 7111TIP3    H142748   6.537   0.549   2.593 -1.1273 -0.0954  0.6488
 7111TIP3    H242749   6.645   0.612   2.678  1.0613 -0.5928 -1.6619
 7112TIP3   OH242750   2.995   0.686   3.992 -0.0694  0.2717 -0.0285
 7112TIP3    H142751   3.086   0.658   3.988  0.3757  1.5011  0.7215
 7112TIP3    H242752   2.946   0.607   4.013  0.8557 -0.3564 -0.1754
 7113TIP3   OH242753   0.817   4.133  14.416 -0.6059  0.1359 -0.5512
 7113TIP3    H142754   0.829   4.072  14.343  0.4015  1.2254 -1.3251
 7113TIP3    H242755   0.892   4.117  14.473 -1.5852 -0.9795  0.4946
 7114TIP3   OH242756   4.199   2.918  14.521 -0.0720 -0.6398 -0.3564
 7114TIP3    H142757   4.278   2.865  14.529  0.4604  0.1074 -0.4995
 7114TIP3    H242758   4.213   2.992  14.580 -0.2011  0.0364 -1.1467
 7115TIP3   OH242759   5.315   3.733  15.759 -0.1234  0.0367 -0.1663
 7115TIP3    H142760   5.324   3.803  15.695  0.7759  0.3787  0.3113
 7115TIP3    H242761   5.265   3.772  15.831 -1.1053 -0.3368 -0.6410
 7116TIP3   OH242762   3.085   1.431  11.980  0.7301 -0.1068  0.1460
 7116TIP3    H142763   3.149   1.367  11.947  1.7551 -0.0833  1.9428
 7116TIP3    H242764   3.072   1.492  11.908  2.0197 -0.6621 -0.5890
 7117TIP3   OH242765   3.299   1.516  13.678  0.3917  0.2657  0.1706
 7117TIP3    H142766   3.331   1.523  13.768 -0.5891  0.6106  0.5057
 7117TIP3    H242767   3.293   1.607  13.648 -0.4704  0.2175  0.1909
 7118TIP3   OH242768   3.094   2.735  17.536  0.1190  0.3018 -0.1596
 7118TIP3    H142769   3.040   2.716  17.612 -1.1319 -0.5669 -1.2103
 7118TIP3    H242770   3.103   2.830  17.534  1.9029  0.2655  2.1814
 7119TIP3   OH242771   0.172   5.042   4.778  0.4198 -0.5029 -0.3396
 7119TIP3    H142772   0.138   4.959   4.746 -0.1075 -0.4775  0.1378
 7119TIP3    H242773   0.189   5.026   4.871  1.1007 -0.3219 -0.4310
 7120TIP3   OH242774   0.346   5.924   3.402 -0.0348  0.6033  0.6660
 7120TIP3    H142775   0.258   5.891   3.384  0.0143 -0.3491  2.0153
 7120TIP3    H242776   0.393   5.849   3.440  1.1876  1.2521  0.5030
 7121TIP3   OH242777   5.901   4.117   4.123  0.4236 -0.2007 -0.1881
 7121TIP3    H142778   5.991   4.147   4.135  0.8695 -1.8482  0.8911
 7121TIP3    H242779   5.877   4.147   4.035  2.5147 -0.8871 -1.0633
 7122TIP3   OH242780   3.575   2.305   2.539  0.2404 -0.2397 -0.3075
 7122TIP3    H142781   3.575   2.251   2.459  0.4704  0.0692 -0.5214
 7122TIP3    H242782   3.484   2.329   2.552  0.0033 -1.3707  0.2691
 7123TIP3   OH242783   3.369   3.011   1.852  0.3707 -0.3490 -0.3829
 7123TIP3    H142784   3.453   2.967   1.838 -0.0679 -1.5774  0.6279
 7123TIP3    H242785   3.307   2.962   1.798  0.4336  1.2036 -1.9663
 7124TIP3   OH242786   4.572   0.632   5.311 -0.2862 -0.6887 -0.3101
 7124TIP3    H142787   4.482   0.615   5.281 -0.1770 -0.3867 -0.8183
 7124TIP3    H242788   4.600   0.549   5.349 -0.4895 -1.0374 -0.9070
 7125TIP3   OH242789   3.334   6.247   5.815 -0.6362 -0.4581  0.0604
 7125TIP3    H142790   3.343   6.185   5.742  0.7561  1.3632 -1.4137
 7125TIP3    H242791   3.400   6.220   5.878 -0.3623 -0.7746 -0.3552
 7126TIP3   OH242792   4.337   3.488  16.534  0.0695 -0.1393 -0.5456
 7126TIP3    H142793   4.369   3.547  16.602  0.4682  1.2972 -1.9225
 7126TIP3    H242794   4.268   3.437  16.577  1.6388 -0.7007  1.4636
 7127TIP3   OH242795   2.450   6.355  14.803 -0.6605  0.0530  0.2926
 7127TIP3    H142796   2.457   6.281  14.743  3.1577 -0.7653  1.4709
 7127TIP3    H242797   2.432   6.315  14.888 -0.0640  0.5936  0.6817
 7128TIP3   OH242798   3.690   6.301  14.540 -0.0793 -0.2344  0.3434
 7128TIP3    H142799   3.763   6.320  14.480  0.0870 -0.6424  0.4087
 7128TIP3    H242800   3.628   6.372  14.526  1.0078  0.9740  1.3927
 7129TIP3   OH242801   3.592   3.128  13.700 -0.5451 -0.3162  0.3026
 7129TIP3    H142802   3.635   3.113  13.785  1.4873 -1.4900 -0.8448
 7129TIP3    H242803   3.661   3.166  13.646 -0.6898 -2.7955 -1.8079
 7130TIP3   OH242804   4.835   1.408   1.867 -0.3931  0.7499  0.3034
 7130TIP3    H142805   4.863   1.317   1.870 -0.2581  0.7839  0.1361
 7130TIP3    H242806   4.897   1.454   1.924 -1.7579  0.4216  2.1369
 7131TIP3   OH242807   6.324   3.858  12.283  0.5097  0.6156 -0.3911
 7131TIP3    H142808   6.320   3.949  12.311 -0.1208  1.0593 -1.8706
 7131TIP3    H242809   6.342   3.809  12.364  3.6365  2.2481  0.0410
 7132TIP3   OH242810   2.801   4.149   5.718 -0.1380  0.4129 -0.3018
 7132TIP3    H142811   2.770   4.143   5.628 -1.4686 -1.4325  0.2094
 7132TIP3    H242812   2.774   4.235   5.748 -0.9131  0.5087 -1.2439
 7133TIP3   OH242813   3.029   5.019  17.608 -0.3751  0.3452  1.0630
 7133TIP3    H142814   3.098   4.967  17.567  0.6910  2.1609  0.4168
 7133TIP3    H242815   2.973   4.955  17.652  0.5988 -1.3486 -0.0547
 7134TIP3   OH242816   0.730   6.048  12.421  0.3129 -0.0612  0.4185
 7134TIP3    H142817   0.708   5.975  12.363  0.0122 -0.0883  0.5659
 7134TIP3    H242818   0.727   6.010  12.509  1.8849 -0.3008  0.3876
 7135TIP3   OH242819   4.423   5.768   5.295  0.3214  0.0380 -0.7570
 7135TIP3    H142820   4.411   5.836   5.228  0.0785  0.3051 -0.4432
 7135TIP3    H242821   4.453   5.816   5.372  4.1376 -0.5904 -1.6094
 7136TIP3   OH242822   5.880   2.051  15.494  0.4581 -0.3352  0.6694
 7136TIP3    H142823   5.824   2.071  15.419  1.1074  1.9090  0.6999
 7136TIP3    H242824   5.959   2.012  15.455  0.7750  0.7771  0.1607
 7137TIP3   OH242825   1.700   6.651  12.623 -0.1117 -0.4496 -0.4952
 7137TIP3    H142826   1.755   6.686  12.693 -1.8150  1.8560 -0.2044
 7137TIP3    H242827   1.629   6.605  12.669 -1.0810  0.8283 -0.6736
 7138TIP3   OH242828   2.026   2.866  13.387 -0.9425  0.4198 -0.0390
 7138TIP3    H142829   2.064   2.849  13.473  0.0212  2.4038 -0.0028
 7138TIP3    H242830   1.957   2.930  13.405 -0.9972  0.5403 -0.6841
 7139TIP3   OH242831   0.841   3.020   5.555  0.6587  0.5373  0.2936
 7139TIP3    H142832   0.777   3.087   5.533  0.9899  1.1610  1.1488
 7139TIP3    H242833   0.906   3.025   5.485  0.7767  1.2529  0.4422
 7140TIP3   OH242834   1.491   3.453   2.389 -0.1716  0.1523 -0.3649
 7140TIP3    H142835   1.415   3.487   2.343 -0.6366  0.1241  0.3675
 7140TIP3    H242836   1.489   3.496   2.475 -0.4383 -1.2413  0.3664
 7141TIP3   OH242837   4.926   2.048  17.076 -0.0891  0.4932 -0.0539
 7141TIP3    H142838   4.860   2.117  17.079  0.3371  0.8887  0.2163
 7141TIP3    H242839   4.876   1.967  17.087 -0.4935  0.8163  0.5308
 7142TIP3   OH242840   4.229   3.996  15.242 -0.2826 -0.1949 -0.0682
 7142TIP3    H142841   4.283   3.928  15.282 -1.1143 -0.7567  0.1358
 7142TIP3    H242842   4.285   4.036  15.176  0.1149 -1.3020 -0.4205
 7143TIP3   OH242843   3.399   4.724   4.509 -0.0117 -0.0999  0.4405
 7143TIP3    H142844   3.418   4.630   4.515 -0.6940 -0.1907  1.2950
 7143TIP3    H242845   3.303   4.729   4.502  0.1231  0.3825 -2.9511
 7144TIP3   OH242846   2.582   1.413  11.389 -0.1413  0.4137 -0.0033
 7144TIP3    H142847   2.543   1.388  11.305  2.5940 -1.2339 -0.9274
 7144TIP3    H242848   2.527   1.485  11.420 -3.5801 -1.3928 -1.2763
 7145TIP3   OH242849   5.723   6.452  16.701 -0.6828 -0.1028 -0.3562
 7145TIP3    H142850   5.672   6.532  16.717 -0.3890 -0.0557  0.3837
 7145TIP3    H242851   5.810   6.484  16.676 -0.1673 -0.1666  1.2433
 7146TIP3   OH242852   3.988   2.691   6.725 -0.4587 -0.1493  0.5991
 7146TIP3    H142853   4.043   2.726   6.795  0.1242 -0.9032  0.5300
 7146TIP3    H242854   3.901   2.729   6.742 -0.5214 -0.8826  2.1666
 7147TIP3   OH242855   2.483   0.492  11.603 -0.1658 -0.5819 -0.3967
 7147TIP3    H142856   2.527   0.559  11.656  1.5199 -1.7887 -0.1876
 7147TIP3    H242857   2.409   0.537  11.563  0.4540  1.1922  0.3777
 7148TIP3   OH242858   6.503   2.702  14.501  0.0484 -0.5452 -0.1783
 7148TIP3    H142859   6.464   2.636  14.558 -1.1041  0.3445  0.0952
 7148TIP3    H242860   6.456   2.783  14.522  1.0083  0.2399 -0.9390
 7149TIP3   OH242861   5.145   0.813   4.878  0.4973 -0.0461  0.3173
 7149TIP3    H142862   5.054   0.842   4.887  0.2994 -0.9082  1.4658
 7149TIP3    H242863   5.165   0.772   4.963  2.1235  0.5717  0.2694
 7150TIP3   OH242864   1.675   4.134   1.740 -0.3867  0.1604  0.2801
 7150TIP3    H142865   1.764   4.133   1.704 -0.0804 -0.4124  1.0143
 7150TIP3    H242866   1.659   4.043   1.765 -1.4789  0.1182 -0.5306
 7151TIP3   OH242867   6.204   5.683  17.292  0.5506 -0.0658  0.1783
 7151TIP3    H142868   6.257   5.749  17.338  0.2846  1.0711 -1.0834
 7151TIP3    H242869   6.124   5.730  17.269  0.2261 -0.9306 -0.4830
 7152TIP3   OH242870   0.090   5.204   2.900 -0.0944  0.0276 -0.2849
 7152TIP3    H142871   0.157   5.164   2.845  0.7744 -1.6342  1.8422
 7152TIP3    H242872   0.007   5.179   2.858  0.4737 -2.7155  0.0466
 7153TIP3   OH242873   3.043   2.733  15.385 -0.0045  0.3496  0.8130
 7153TIP3    H142874   3.124   2.693  15.417 -0.0883 -2.3003 -1.9060
 7153TIP3    H242875   2.974   2.679  15.423 -0.4040  1.0607  1.1153
 7154TIP3   OH242876   4.187   3.861  15.826 -0.2413 -0.4638  0.0846
 7154TIP3    H142877   4.235   3.932  15.868 -1.7560  0.6361  0.0389
 7154TIP3    H242878   4.254   3.797  15.803  1.0341  0.4570  1.0873
 7155TIP3   OH242879   1.848   2.918  12.395  0.0092  0.2452 -0.2759
 7155TIP3    H142880   1.802   2.873  12.466  1.9106  0.5940  1.2681
 7155TIP3    H242881   1.805   2.887  12.315 -2.5973  0.2807  1.0074
 7156TIP3   OH242882   3.513   5.652   1.219 -0.3410 -0.2544 -0.1690
 7156TIP3    H142883   3.426   5.618   1.198 -0.3093 -0.8471  0.6075
 7156TIP3    H242884   3.574   5.594   1.172 -0.2846 -1.3661  1.1927
 7157TIP3   OH242885   0.052   0.952  12.707 -0.2376 -0.1785  0.3082
 7157TIP3    H142886   0.011   0.903  12.778  0.3052  0.8546  1.3630
 7157TIP3    H242887   0.141   0.968  12.737  0.0478  0.1462 -0.6735
 7158TIP3   OH242888   4.260   0.242  13.175  0.2307 -0.8821 -0.3808
 7158TIP3    H142889   4.247   0.153  13.209 -0.3932 -1.1163 -1.1759
 7158TIP3    H242890   4.238   0.300  13.248 -2.3862 -1.3306 -0.7124
 7159TIP3   OH242891   0.119   4.316  16.591 -0.5789  0.0034  0.2954
 7159TIP3    H142892   0.200   4.365  16.577  0.3771 -1.7057 -0.4059
 7159TIP3    H242893   0.056   4.356  16.531  0.2503  0.2139 -0.4593
 7160TIP3   OH242894   6.490   3.164  14.224 -0.5436  0.3367 -0.1224
 7160TIP3    H142895   6.519   3.218  14.151  0.5316  1.1198  0.8533
 7160TIP3    H242896   6.432   3.099  14.184 -1.3402  1.7745 -1.4279
 7161TIP3   OH242897   6.203   5.575  15.058 -0.2012 -0.1234  0.0833
 7161TIP3    H142898   6.192   5.617  15.143  0.3136  0.4236 -0.1133
 7161TIP3    H242899   6.175   5.485  15.072 -0.2526 -0.0018  0.7949
 7162TIP3   OH242900   3.494   2.054  12.325  0.2787 -0.2742  0.9040
 7162TIP3    H142901   3.478   2.144  12.295 -0.3815 -0.3799  0.9449
 7162TIP3    H242902   3.561   2.064  12.393  0.6117  0.1301  0.5240
 7163TIP3   OH242903   0.378   3.671   4.323  0.3928 -0.1531 -0.1351
 7163TIP3    H142904   0.426   3.669   4.241  2.0300 -0.0504  0.7650
 7163TIP3    H242905   0.343   3.760   4.328  2.1494  0.5772  0.2363
 7164TIP3   OH242906   1.900   6.188   5.785 -0.5645  0.5214 -0.9336
 7164TIP3    H142907   1.868   6.269   5.746  1.4651  1.5702 -0.5813
 7164TIP3    H242908   1.832   6.161   5.847 -2.0027  1.0282 -2.2503
 7165TIP3   OH242909   3.581   3.061  17.077 -0.5323  0.1135  0.0485
 7165TIP3    H142910   3.654   3.058  17.014 -0.7367 -1.2461 -0.1701
 7165TIP3    H242911   3.574   2.970  17.108  0.2344  0.9228  2.8314
 7166TIP3   OH242912   4.818   0.580   1.271  0.0267 -0.4571 -0.5179
 7166TIP3    H142913   4.893   0.550   1.219  0.2529 -1.5595  0.3912
 7166TIP3    H242914   4.742   0.559   1.217  0.3371  0.0972 -1.1825
 7167TIP3   OH242915   4.125   0.435  12.241  0.0168 -0.2485  0.8310
 7167TIP3    H142916   4.167   0.478  12.166  0.0625  0.6062  1.3252
 7167TIP3    H242917   4.197   0.400  12.292  0.0722  0.2151  1.0829
 7168TIP3   OH242918   4.509   2.671  14.062 -0.2758  0.6875 -0.0603
 7168TIP3    H142919   4.463   2.739  14.110 -1.8241 -0.8516  0.7367
 7168TIP3    H242920   4.584   2.649  14.117  0.4688  1.9861 -0.5187
 7169TIP3   OH242921   1.258   5.694   0.651  0.5765  0.4575 -0.0584
 7169TIP3    H142922   1.277   5.787   0.663  0.7255  0.7666 -2.2835
 7169TIP3    H242923   1.164   5.689   0.638  0.5766  0.2814 -0.0038
 7170TIP3   OH242924   4.233   1.796   1.183 -0.1527  0.5710  0.4700
 7170TIP3    H142925   4.327   1.777   1.183 -0.0314  1.1448  1.3646
 7170TIP3    H242926   4.225   1.877   1.233 -1.1793  0.2679  0.8117
 7171TIP3   OH242927   5.626   1.422   3.519  0.4323 -0.4125 -0.0655
 7171TIP3    H142928   5.634   1.376   3.603  0.3406 -0.5120 -0.1103
 7171TIP3    H242929   5.667   1.507   3.534 -1.6205  0.4895  0.7659
 7172TIP3   OH242930   6.371   1.446   3.973 -0.3174  0.3581  0.6644
 7172TIP3    H142931   6.288   1.445   3.927 -0.3559 -1.4000  0.7120
 7172TIP3    H242932   6.349   1.470   4.063 -0.8281 -0.3870  0.7445
 7173TIP3   OH242933   3.688   0.190   5.106  0.1246  0.4425 -0.3830
 7173TIP3    H142934   3.608   0.184   5.159  0.2029  0.7849 -0.2256
 7173TIP3    H242935   3.668   0.258   5.041  0.6819  1.3342  0.3508
 7174TIP3   OH242936   2.969   4.170   1.751  0.5235 -0.3872 -0.3173
 7174TIP3    H142937   3.058   4.134   1.749  0.0627 -1.5122 -0.9377
 7174TIP3    H242938   2.971   4.241   1.687  0.6897 -1.1313 -1.1612
 7175TIP3   OH242939   5.753   2.750   4.156 -0.2549 -0.5574 -0.1839
 7175TIP3    H142940   5.706   2.675   4.192  0.7379 -0.9322  0.3937
 7175TIP3    H242941   5.776   2.803   4.232  1.3424 -1.0440 -0.2935
 7176TIP3   OH242942   0.880   3.888   6.048 -0.1202 -0.6023  0.3742
 7176TIP3    H142943   0.867   3.963   6.106  0.4344  1.0802 -1.5603
 7176TIP3    H242944   0.941   3.920   5.982  1.4789 -3.3241  0.4049
 7177TIP3   OH242945   2.505   1.279   3.830  0.7114 -0.0213 -0.2082
 7177TIP3    H142946   2.521   1.237   3.746 -1.2819  0.2507 -0.7774
 7177TIP3    H242947   2.481   1.207   3.888 -1.4386  0.1177 -0.8494
 7178TIP3   OH242948   0.426   0.768   4.164  0.1217 -0.5726  0.0137
 7178TIP3    H142949   0.374   0.751   4.243  1.6118 -0.8370  0.9637
 7178TIP3    H242950   0.371   0.827   4.112 -0.8641 -0.3516  1.2618
 7179TIP3   OH242951   1.789   0.608   1.806  0.2589 -0.3200  0.3896
 7179TIP3    H142952   1.858   0.651   1.856  2.0445 -0.1012 -2.0850
 7179TIP3    H242953   1.734   0.680   1.775 -0.4120 -0.3969  1.3573
 7180TIP3   OH242954   1.711   5.245   3.452 -0.2500 -0.0216  0.1596
 7180TIP3    H142955   1.770   5.307   3.494  0.1082 -0.5985  0.5302
 7180TIP3    H242956   1.634   5.297   3.427  0.8494  0.9752 -1.3322
 7181TIP3   OH242957   5.144   3.702  16.437  0.6039 -0.1609  0.6348
 7181TIP3    H142958   5.114   3.615  16.464  2.4509 -0.7034  1.1029
 7181TIP3    H242959   5.099   3.762  16.495 -0.1239 -0.8661  0.8198
 7182TIP3   OH242960   4.662   6.678   2.318  0.4477 -0.9562 -0.1676
 7182TIP3    H142961   4.599   6.617   2.280  1.3758 -3.0203  1.4479
 7182TIP3    H242962   4.745   6.630   2.319  1.2312  0.3379  1.1001
 7183TIP3   OH242963   0.966   4.619   1.466 -0.2152  0.4695  0.4858
 7183TIP3    H142964   0.978   4.531   1.504 -1.0375  0.2687  0.2920
 7183TIP3    H242965   1.022   4.675   1.519 -1.6956  0.2840  2.3448
 7184TIP3   OH242966   6.349   2.478  13.876 -0.2001 -0.6926 -0.0986
 7184TIP3    H142967   6.358   2.482  13.972 -0.1008 -2.1626 -0.0352
 7184TIP3    H242968   6.372   2.388  13.853  1.9628  0.1998 -1.7543
 7185TIP3   OH242969   3.654   2.632  11.068 -0.0258  1.1636  0.0220
 7185TIP3    H142970   3.643   2.727  11.060 -0.4248  1.3472  2.1275
 7185TIP3    H242971   3.566   2.596  11.053  0.2079  1.0565 -1.2101
 7186TIP3   OH242972   1.731   4.253   5.995  0.0556 -0.6717 -0.4178
 7186TIP3    H142973   1.735   4.279   6.087 -0.8840  1.3463 -0.8792
 7186TIP3    H242974   1.638   4.259   5.973  0.5304  2.1496 -2.2646
 7187TIP3   OH242975   6.355   2.890   6.169 -0.1282  0.2933 -0.4689
 7187TIP3    H142976   6.407   2.810   6.172  0.1227  0.4154 -1.4300
 7187TIP3    H242977   6.401   2.947   6.108 -1.3902  0.3864 -1.3658
 7188TIP3   OH242978   3.019   5.118   4.513  0.3658  0.2982  0.0423
 7188TIP3    H142979   3.078   5.071   4.455  1.0506 -1.3469  1.9645
 7188TIP3    H242980   3.071   5.191   4.547  0.3225  0.5800 -0.4771
 7189TIP3   OH242981   6.194   3.998  17.104 -0.4276  0.4856  0.8495
 7189TIP3    H142982   6.233   4.084  17.087  0.5873  0.5146  3.0193
 7189TIP3    H242983   6.110   4.017  17.144 -0.2656  0.4695  1.1990
 7190TIP3   OH242984   0.243   3.027   3.232  0.5527 -0.9587 -0.1961
 7190TIP3    H142985   0.317   3.069   3.188 -0.6822 -0.2609 -1.7203
 7190TIP3    H242986   0.212   2.962   3.169 -0.7318 -0.5526  0.0008
 7191TIP3   OH242987   1.797   2.838   3.986 -0.2921  0.3745 -0.4670
 7191TIP3    H142988   1.739   2.764   3.966 -1.9451  1.2977  0.6459
 7191TIP3    H242989   1.800   2.889   3.906  1.7631 -1.3810 -1.6302
 7192TIP3   OH242990   5.207   6.094   2.236  0.7951  0.2743 -0.2116
 7192TIP3    H142991   5.129   6.042   2.260  0.5508  0.6693 -0.1447
 7192TIP3    H242992   5.278   6.030   2.235  0.6146  0.0478  0.5268
 7193TIP3   OH242993   0.103   2.375  10.881  0.2315  0.2766  0.2297
 7193TIP3    H142994   0.100   2.470  10.875 -0.6154  0.2578  0.1730
 7193TIP3    H242995   0.174   2.349  10.823 -0.1388  0.8238 -0.4775
 7194TIP3   OH242996   3.952   6.557   5.183  0.7250 -0.1009 -0.7923
 7194TIP3    H142997   4.002   6.488   5.139  0.1159 -1.1750  0.1321
 7194TIP3    H242998   4.005   6.579   5.260  1.1768  0.8684 -1.3644
 7195TIP3   OH242999   5.084   3.273  17.053 -0.2442  0.1472 -0.1972
 7195TIP3    H143000   5.051   3.279  16.963  0.1503  1.3177 -0.2849
 7195TIP3    H243001   5.087   3.364  17.083  0.0594 -0.1934  0.8502
 7196TIP3   OH243002   1.332   4.309   3.846  0.4318  0.4934 -0.9346
 7196TIP3    H143003   1.258   4.370   3.845  1.0668  1.3006 -1.9604
 7196TIP3    H243004   1.299   4.231   3.801 -0.3993  0.0407  0.4161
 7197TIP3   OH243005   1.763   0.030   2.609  0.1692 -0.1609  0.3938
 7197TIP3    H143006   1.677   0.057   2.576  0.4273  0.4536  0.2010
 7197TIP3    H243007   1.798  -0.025   2.539 -0.4808 -1.2682  0.9133
 7198TIP3   OH243008   5.741   2.306  14.889 -0.5841  0.1166  0.0371
 7198TIP3    H143009   5.738   2.254  14.969  1.4702  0.0773  0.1410
 7198TIP3    H243010   5.778   2.390  14.916 -2.0051  0.9390 -0.4900
 7199TIP3   OH243011   5.024   1.677   2.951 -0.5002  0.5495 -0.3130
 7199TIP3    H143012   4.945   1.678   3.005 -0.1409 -0.1868  0.2336
 7199TIP3    H243013   5.048   1.585   2.944 -1.1876  0.4762 -2.7213
 7200TIP3   OH243014   5.116   2.765  12.586 -0.0335  0.1911  0.5074
 7200TIP3    H143015   5.192   2.708  12.570  0.9354  1.9066 -1.4780
 7200TIP3    H243016   5.139   2.813  12.665  0.8368  0.4480  0.1170
 7201TIP3   OH243017   1.187   4.070  14.278  0.1338 -0.0527 -0.5316
 7201TIP3    H143018   1.141   4.021  14.346  0.3047  0.9683  0.3470
 7201TIP3    H243019   1.279   4.046  14.290  0.1721  0.1785 -0.3444
 7202TIP3   OH243020   3.464   1.419   3.057  0.0042 -0.2402 -0.6712
 7202TIP3    H143021   3.441   1.429   2.964  0.9776 -0.2918 -0.9259
 7202TIP3    H243022   3.508   1.335   3.062  2.5852  1.0260 -0.7214
 7203TIP3   OH243023   0.555   6.344   4.077 -0.2401 -0.3327 -0.3869
 7203TIP3    H143024   0.540   6.430   4.116  1.9056  1.0200 -2.3271
 7203TIP3    H243025   0.600   6.294   4.145  1.0820  1.0786 -0.1687
 7204TIP3   OH243026   4.209   2.115  14.136  0.2276  0.1353  0.3066
 7204TIP3    H143027   4.230   2.170  14.212  2.0108 -0.6259  0.4051
 7204TIP3    H243028   4.157   2.172  14.079  0.8938  1.4947  1.0087
 7205TIP3   OH243029   5.649   2.578  11.758  0.1575  0.7812  0.1294
 7205TIP3    H143030   5.740   2.595  11.782  0.5766 -1.8296  0.7024
 7205TIP3    H243031   5.610   2.542  11.837 -1.4731  1.9934 -0.0642
 7206TIP3   OH243032   2.403   3.640  11.282  0.1146 -0.0201  0.3883
 7206TIP3    H143033   2.368   3.726  11.261 -1.5024 -0.5397  0.8553
 7206TIP3    H243034   2.397   3.591  11.199 -0.4934 -0.1819  0.5271
 7207TIP3   OH243035   4.046   2.433   2.632  0.0982 -0.1667 -0.4808
 7207TIP3    H143036   4.040   2.338   2.639 -0.3098 -0.1129 -0.0959
 7207TIP3    H243037   3.956   2.461   2.610 -0.0169  0.2204  0.4581
 7208TIP3   OH243038   3.566   6.561   5.066 -0.5470  0.4576 -0.3248
 7208TIP3    H143039   3.601   6.570   5.155 -0.5934  0.0345 -0.2647
 7208TIP3    H243040   3.501   6.491   5.073 -0.1453  0.0344 -0.8178
 7209TIP3   OH243041   6.461   6.026   4.920  0.4620 -0.3044  0.0302
 7209TIP3    H143042   6.481   6.090   4.989 -0.9347  0.4953 -0.2728
 7209TIP3    H243043   6.391   5.972   4.957 -0.3145  0.1439 -0.7424
 7210TIP3   OH243044   4.204   5.257   1.887  0.4329 -0.0424 -0.2101
 7210TIP3    H143045   4.125   5.302   1.919 -0.7902 -1.6509 -0.8315
 7210TIP3    H243046   4.214   5.288   1.797 -0.7771 -1.3815 -0.8528
 7211TIP3   OH243047   6.290   3.458  12.537  0.2912  0.3667  0.1204
 7211TIP3    H143048   6.281   3.504  12.454  0.0771  0.7968  0.3746
 7211TIP3    H243049   6.209   3.407  12.545 -0.1844  1.1492  0.5478
 7212TIP3   OH243050   3.964   1.772   1.632  0.0343 -0.4431 -0.3074
 7212TIP3    H143051   3.932   1.789   1.721 -2.5332 -0.9360 -1.0540
 7212TIP3    H243052   3.965   1.676   1.626  0.1054 -0.4088 -0.8451
 7213TIP3   OH243053   0.903   2.387  12.908 -0.0676 -0.0691 -0.1258
 7213TIP3    H143054   0.948   2.313  12.950  0.2021 -0.0176 -0.3243
 7213TIP3    H243055   0.861   2.348  12.832 -0.6233 -0.1778  0.2301
 7214TIP3   OH243056   2.215   1.464  16.727 -0.3185  0.5210 -0.0548
 7214TIP3    H143057   2.262   1.406  16.787  0.4785  2.2045  1.0332
 7214TIP3    H243058   2.122   1.445  16.743 -0.0836 -0.0470  0.6994
 7215TIP3   OH243059   6.416   5.606   3.702  0.2141 -0.2069  0.2886
 7215TIP3    H143060   6.437   5.549   3.629  0.2419  0.9538 -0.6475
 7215TIP3    H243061   6.324   5.588   3.721 -0.2708  0.6093 -1.1163
 7216TIP3   OH243062   5.431   4.971  14.751  0.4549 -0.1872  0.6041
 7216TIP3    H143063   5.404   4.919  14.675  0.9065  0.2160  0.1559
 7216TIP3    H243064   5.408   4.917  14.826 -0.2028 -0.5049  0.1930
 7217TIP3   OH243065   5.456   2.074  16.771  0.6774 -0.9800  0.2267
 7217TIP3    H143066   5.416   1.994  16.803 -1.0104 -0.1035  0.4313
 7217TIP3    H243067   5.382   2.134  16.757  1.5717 -0.3785 -2.6331
 7218TIP3   OH243068   4.787   6.110  16.063  0.2438  0.4124 -0.1529
 7218TIP3    H143069   4.857   6.068  16.114 -0.0241  1.5893  1.2587
 7218TIP3    H243070   4.787   6.063  15.980 -0.9859 -3.3847  1.7595
 7219TIP3   OH243071   5.524   0.921   2.255  0.6062  0.9981 -0.1926
 7219TIP3    H143072   5.447   0.976   2.269 -0.9040 -0.8958 -0.6596
 7219TIP3    H243073   5.571   0.923   2.338 -0.2192  1.7632  0.2729
 7220TIP3   OH243074   1.588   4.667   0.829  0.0656  0.1003  0.5482
 7220TIP3    H143075   1.515   4.729   0.834 -2.0367 -2.2570  1.1932
 7220TIP3    H243076   1.624   4.679   0.742 -0.8866  1.5379  0.3230
 7221TIP3   OH243077   2.354   1.736  17.572 -0.3439 -0.1486 -0.3906
 7221TIP3    H143078   2.423   1.670  17.583 -1.0873 -0.7542  0.7362
 7221TIP3    H243079   2.400   1.820  17.581  0.8308 -0.4049 -3.0110
 7222TIP3   OH243080   4.223   1.946   5.786 -0.2210 -0.3252 -1.1459
 7222TIP3    H143081   4.315   1.922   5.779 -0.1768  0.2994 -3.4188
 7222TIP3    H243082   4.213   1.976   5.876  2.1108  0.8547 -1.2082
 7223TIP3   OH243083   6.338   3.195   0.577  0.1766  0.2463 -0.1258
 7223TIP3    H143084   6.347   3.225   0.668 -1.0261 -0.7657  0.3576
 7223TIP3    H243085   6.351   3.101   0.581  0.1162  0.1887 -1.0084
 7224TIP3   OH243086   5.025   1.186   6.037  0.5469 -0.1644  0.2322
 7224TIP3    H143087   5.022   1.205   6.130  2.0292  0.7017  0.1353
 7224TIP3    H243088   4.940   1.215   6.004  0.0707 -0.3290  1.2749
 7225TIP3   OH243089   6.379   1.114  15.067  0.6527 -0.1853 -0.1217
 7225TIP3    H143090   6.377   1.118  14.972 -1.6740 -2.6311 -0.3005
 7225TIP3    H243091   6.312   1.175  15.095  1.7831  1.0214  0.0292
 7226TIP3   OH243092   3.464   6.212   5.498 -0.6145  0.5490 -0.1856
 7226TIP3    H143093   3.456   6.308   5.502 -0.3425  0.5693 -0.1371
 7226TIP3    H243094   3.524   6.196   5.425 -0.3816  0.4300  0.0303
 7227TIP3   OH243095   1.411   0.087   1.097  0.1215 -0.2140 -0.2102
 7227TIP3    H143096   1.354   0.125   1.030 -0.2042  1.3069  0.8757
 7227TIP3    H243097   1.499   0.118   1.073  0.1500 -0.5247 -0.5093
 7228TIP3   OH243098   0.746   2.027  11.867 -0.0605 -0.2689 -0.3237
 7228TIP3    H143099   0.720   1.936  11.855 -0.9559 -0.0473 -0.1559
 7228TIP3    H243100   0.663   2.075  11.874  0.3904  0.3276  1.4147
 7229TIP3   OH243101   5.219   6.349   4.273  0.0293 -0.0009 -0.1353
 7229TIP3    H143102   5.185   6.263   4.298 -0.2876 -0.2619 -1.4106
 7229TIP3    H243103   5.151   6.411   4.301  0.3493 -0.1281  0.9688
 7230TIP3   OH243104   6.245   0.022   0.743  0.0844  0.1096 -0.7322
 7230TIP3    H143105   6.187   0.094   0.722 -0.0514 -0.2367 -1.5783
 7230TIP3    H243106   6.282  -0.005   0.659  0.3608 -0.6139 -0.3898
 7231TIP3   OH243107   5.710   6.528   6.608  0.5240  0.4124  0.0486
 7231TIP3    H143108   5.776   6.545   6.541  2.0732 -2.7193  0.5734
 7231TIP3    H243109   5.757   6.540   6.691 -0.4520  1.1113  0.5208
 7232TIP3   OH243110   0.115   1.106  14.987  0.8292 -0.0488  0.4626
 7232TIP3    H143111   0.075   1.021  14.968  0.3190  0.4307 -0.6658
 7232TIP3    H243112   0.146   1.138  14.903 -0.5965  1.6997  0.5563
 7233TIP3   OH243113   2.928   4.750   6.364  0.4450 -0.0489 -0.2092
 7233TIP3    H143114   2.952   4.838   6.393  1.0700 -0.9573  2.3452
 7233TIP3    H243115   2.985   4.692   6.414 -1.0180 -1.9563 -0.6248
 7234TIP3   OH243116   2.816   0.445  10.888  0.1298  0.7188  0.3100
 7234TIP3    H143117   2.783   0.362  10.856 -2.1847  1.3470  0.8762
 7234TIP3    H243118   2.885   0.421  10.950  2.9003 -0.5704 -2.9632
 7235TIP3   OH243119   1.999   5.596   0.925 -0.4190  0.0429  0.3653
 7235TIP3    H143120   2.073   5.633   0.876 -1.6403  0.6186 -1.1221
 7235TIP3    H243121   2.006   5.635   1.012  1.1980 -0.1677  0.3607
 7236TIP3   OH243122   3.855   1.623   2.200 -0.3688 -0.0761  0.2292
 7236TIP3    H143123   3.778   1.568   2.186 -0.6442  0.3287  0.1378
 7236TIP3    H243124   3.900   1.582   2.274 -0.2703 -0.7435 -0.1899
 7237TIP3   OH243125   6.176   4.686   5.249 -0.1292  0.1282 -0.2090
 7237TIP3    H143126   6.129   4.644   5.177  0.0181  2.3470 -1.6773
 7237TIP3    H243127   6.176   4.779   5.227  1.7652  0.6292  1.6116
 7238TIP3   OH243128   2.288   1.284   3.358 -0.7819 -0.1682 -0.7408
 7238TIP3    H143129   2.207   1.249   3.397 -0.9912  0.1596 -0.8724
 7238TIP3    H243130   2.271   1.283   3.264 -0.7332  0.1436 -0.7539
 7239TIP3   OH243131   4.207   0.271   4.634 -0.1135  0.0508  0.0515
 7239TIP3    H143132   4.296   0.239   4.648  0.2211  1.4208  1.2826
 7239TIP3    H243133   4.150   0.198   4.658  0.6646 -0.5307  0.1367
 7240TIP3   OH243134   0.895   3.880   4.456 -0.0632  0.2048  0.1625
 7240TIP3    H143135   0.878   3.786   4.447 -1.4175  0.1660  2.3854
 7240TIP3    H243136   0.970   3.886   4.514  1.5454  0.5391 -1.8347
 7241TIP3   OH243137   3.710   5.527  13.751  0.0757  0.4937 -0.0976
 7241TIP3    H143138   3.800   5.494  13.741 -0.0765  0.5458 -2.2748
 7241TIP3    H243139   3.668   5.507  13.667 -2.1777 -0.1272  1.1062
 7242TIP3   OH243140   3.269   6.313   0.992  0.3171 -0.4322  0.0077
 7242TIP3    H143141   3.313   6.231   0.968  1.3834 -0.2881  1.3264
 7242TIP3    H243142   3.264   6.310   1.088  0.4955  1.0963  0.0923
 7243TIP3   OH243143   5.586   5.856  16.123 -0.4445 -0.4047 -0.0460
 7243TIP3    H143144   5.634   5.864  16.041 -0.5116  0.7636  0.0127
 7243TIP3    H243145   5.572   5.947  16.152 -0.8870 -0.7825  0.9795
 7244TIP3   OH243146   3.189   2.963  16.039 -0.4106 -0.0490 -0.1555
 7244TIP3    H143147   3.199   2.926  15.951  0.1091  0.5820 -0.3777
 7244TIP3    H243148   3.277   2.996  16.060 -0.7847  0.7603  0.1586
 7245TIP3   OH243149   4.411   5.413  16.556 -0.0664 -0.2451  0.0810
 7245TIP3    H143150   4.334   5.358  16.570  0.2548 -0.2689  1.9576
 7245TIP3    H243151   4.463   5.364  16.492  0.0805 -2.0233  1.4709
 7246TIP3   OH243152   4.263   5.282  16.199  0.3399 -0.3980  0.3545
 7246TIP3    H143153   4.316   5.276  16.120  0.5435 -0.8904  0.5263
 7246TIP3    H243154   4.180   5.318  16.169  1.2901  1.9502  0.3299
 7247TIP3   OH243155   4.611   0.887   1.846 -0.4661 -0.0188 -0.3414
 7247TIP3    H143156   4.592   0.976   1.875  0.3532 -0.2538  1.0109
 7247TIP3    H243157   4.557   0.831   1.902 -0.5181 -0.4024 -0.7663
 7248TIP3   OH243158   0.306   5.426   0.811 -0.3909  0.1015 -0.3909
 7248TIP3    H143159   0.356   5.352   0.845  0.6935  1.0290  0.0935
 7248TIP3    H243160   0.223   5.388   0.782  0.7390 -1.5727 -1.6222
 7249TIP3   OH243161   5.189   5.433  15.103  0.7061  0.2613  0.2279
 7249TIP3    H143162   5.243   5.356  15.119  0.1733 -0.3828 -0.8860
 7249TIP3    H243163   5.194   5.446  15.008 -0.6363  0.5076  0.1714
 7250TIP3   OH243164   5.026   5.698  15.222  0.7314  0.4232  0.5567
 7250TIP3    H143165   4.997   5.787  15.243  1.1476  0.6658  0.0985
 7250TIP3    H243166   5.069   5.706  15.137  0.5005 -0.2726  0.3741
 7251TIP3   OH243167   6.390   1.748  14.765  0.1265 -0.6410 -0.3455
 7251TIP3    H143168   6.457   1.711  14.707  0.1204 -0.4101 -0.5008
 7251TIP3    H243169   6.437   1.816  14.815 -0.4675  1.0907 -2.0226
 7252TIP3   OH243170   0.365   3.019   3.599  0.5816  0.2707 -0.5561
 7252TIP3    H143171   0.459   3.020   3.617  1.1491 -1.0800 -2.9577
 7252TIP3    H243172   0.325   2.982   3.678  2.2021 -0.2299  0.0634
 7253TIP3   OH243173   4.115   5.488  10.977 -0.4222  0.6807  0.8201
 7253TIP3    H143174   4.192   5.510  10.924  0.0936  1.0909  1.7093
 7253TIP3    H243175   4.041   5.505  10.920  0.0342  2.8730  0.8013
 7254TIP3   OH243176   4.111   0.139   5.450  0.4036  0.2949  0.5288
 7254TIP3    H143177   4.156   0.214   5.489 -0.3771  1.6781 -1.1139
 7254TIP3    H243178   4.032   0.175   5.411 -0.1547 -1.4373 -0.0594
 7255TIP3   OH243179   1.901   2.920  12.752  0.4007 -0.0624 -0.3265
 7255TIP3    H143180   1.961   2.979  12.798  1.0800  0.8007 -2.2194
 7255TIP3    H243181   1.825   2.975  12.731  0.1062 -0.4399 -0.2680
 7256TIP3   OH243182   2.008   4.213  17.600 -0.0132 -0.0354  0.1784
 7256TIP3    H143183   2.044   4.250  17.680  2.4979  0.5967 -1.1540
 7256TIP3    H243184   2.000   4.119  17.619  0.9142  0.0422  1.0606
 7257TIP3   OH243185   6.337   5.936  12.073 -0.2381 -0.1091  0.1045
 7257TIP3    H143186   6.361   6.000  12.005 -0.1493  1.4020  1.4874
 7257TIP3    H243187   6.242   5.937  12.075 -0.2311  0.3422  0.4277
 7258TIP3   OH243188   6.428   2.309  11.960  0.1784 -0.0943  0.4505
 7258TIP3    H143189   6.407   2.338  12.049  1.8425  1.8477  0.2696
 7258TIP3    H243190   6.492   2.238  11.972  0.2768  0.0540  0.8045
 7259TIP3   OH243191   0.662   6.602  12.418 -0.5090  0.2627  0.4470
 7259TIP3    H143192   0.698   6.660  12.485  2.3876  0.6914 -1.2875
 7259TIP3    H243193   0.680   6.514  12.451  0.9604  0.4724  0.2844
 7260TIP3   OH243194   1.768   4.585  12.980 -0.3045  0.1022 -0.0238
 7260TIP3    H143195   1.853   4.570  13.022 -0.5212  0.5925  0.6081
 7260TIP3    H243196   1.719   4.505  12.996 -0.3991  0.2977  0.7110
 7261TIP3   OH243197   0.421   1.532   3.881 -0.0592 -0.2772 -0.0387
 7261TIP3    H143198   0.485   1.556   3.815 -0.8718  0.5896 -0.5383
 7261TIP3    H243199   0.381   1.615   3.907 -0.0934 -0.6559  1.1931
 7262TIP3   OH243200   2.085   2.332   3.013  0.1008  0.2675  0.0690
 7262TIP3    H143201   2.140   2.288   3.077 -0.0582 -0.3275 -0.2010
 7262TIP3    H243202   2.131   2.414   2.994 -0.4011  1.0018  1.7754
 7263TIP3   OH243203   4.086   1.529  13.056  0.4627 -0.1085  0.1309
 7263TIP3    H143204   4.088   1.551  12.963  1.2615 -3.0752 -0.6813
 7263TIP3    H243205   4.176   1.545  13.087  0.4746 -0.1350  0.1099
 7264TIP3   OH243206   3.616   6.460  14.910 -0.1358  0.2171  0.4003
 7264TIP3    H143207   3.597   6.485  15.001  0.9292  0.2478  0.6271
 7264TIP3    H243208   3.642   6.368  14.916 -3.3296 -0.8497 -0.3374
 7265TIP3   OH243209   3.256   1.006  16.457  0.5165 -0.2042  0.0046
 7265TIP3    H143210   3.339   1.014  16.503 -0.0120  2.5740  0.6460
 7265TIP3    H243211   3.221   0.922  16.486  1.7141 -0.0414  2.1391
 7266TIP3   OH243212   3.210   4.341  11.769 -0.0469  0.5339  0.4898
 7266TIP3    H143213   3.145   4.339  11.839 -1.9694 -2.3707 -1.1853
 7266TIP3    H243214   3.274   4.274  11.793  0.3404  0.8479  0.3526
 7267TIP3   OH243215   0.632   2.468  17.354 -0.0650  0.0220  0.4171
 7267TIP3    H143216   0.626   2.384  17.308 -1.8402  0.3362 -0.0076
 7267TIP3    H243217   0.665   2.530  17.289  2.1452 -0.4708  0.9812
 7268TIP3   OH243218   0.804   0.639   0.921  0.3845 -0.0502  0.0641
 7268TIP3    H143219   0.859   0.717   0.912  0.4957 -0.2936 -1.8116
 7268TIP3    H243220   0.814   0.593   0.838 -2.5502 -0.1760 -0.3119
 7269TIP3   OH243221   1.325   4.472   5.595  0.2098  0.1625  0.7326
 7269TIP3    H143222   1.348   4.419   5.518  0.8125  0.5696  0.6320
 7269TIP3    H243223   1.269   4.542   5.560  0.5114  0.3668  0.6604
 7270TIP3   OH243224   0.542   0.602   3.624 -0.4274  0.1206  0.4167
 7270TIP3    H143225   0.570   0.532   3.684 -1.1440 -1.0721 -0.5793
 7270TIP3    H243226   0.470   0.646   3.669 -0.0298  0.1712  1.0182
 7271TIP3   OH243227   2.044   2.705   2.602 -0.0709 -0.3764  0.3365
 7271TIP3    H143228   1.959   2.711   2.559  0.2191  0.6266 -0.1144
 7271TIP3    H243229   2.053   2.787   2.649  0.4605 -0.6624  0.7385
 7272TIP3   OH243230   2.918   2.938  13.891 -0.3578 -0.1759  0.3937
 7272TIP3    H143231   2.993   2.966  13.943  0.3365 -0.2319 -0.5357
 7272TIP3    H243232   2.891   2.855  13.930  0.4834 -0.4812  0.3504
 7273TIP3   OH243233   5.842   0.049   2.739 -0.4190  0.8817  0.6944
 7273TIP3    H143234   5.853  -0.043   2.716 -2.0590  0.5317  1.1655
 7273TIP3    H243235   5.912   0.095   2.692  0.9242 -0.6745  1.0818
 7274TIP3   OH243236   5.733   1.455   5.430 -0.2645 -0.5956  0.0608
 7274TIP3    H143237   5.690   1.509   5.496 -0.0073  0.2633 -0.4491
 7274TIP3    H243238   5.818   1.497   5.417 -0.4054 -0.6069 -0.9765
 7275TIP3   OH243239   1.273   6.381  17.386 -0.2777 -0.2373  0.1293
 7275TIP3    H143240   1.284   6.296  17.427  1.1273  0.2560  0.8680
 7275TIP3    H243241   1.361   6.418  17.384 -0.7845  1.0015 -0.6040
 7276TIP3   OH243242   4.986   1.158   2.533  0.1379  0.2236  0.2285
 7276TIP3    H143243   4.929   1.188   2.604 -0.9023 -0.6477 -0.1977
 7276TIP3    H243244   4.967   1.064   2.527  2.1494 -0.2465  0.5238
 7277TIP3   OH243245   2.761   3.734  15.519 -0.1309 -0.2289  0.1136
 7277TIP3    H143246   2.803   3.655  15.553 -1.4621 -1.0624 -0.1434
 7277TIP3    H243247   2.695   3.757  15.585 -1.0390 -0.4272 -0.7129
 7278TIP3   OH243248   2.353   6.313  16.101 -0.6076 -0.1480 -0.1353
 7278TIP3    H143249   2.400   6.358  16.031  0.5385 -0.0418  0.6766
 7278TIP3    H243250   2.345   6.223  16.071 -1.4716  0.2145 -1.0523
 7279TIP3   OH243251   3.645   6.185   5.271 -0.5951 -0.2454 -0.5176
 7279TIP3    H143252   3.610   6.263   5.229 -1.8260 -1.0383 -1.0205
 7279TIP3    H243253   3.740   6.197   5.269 -0.7766  1.8302  0.6093
 7280TIP3   OH243254   6.423   2.181  15.388  0.3116  0.1708 -0.0917
 7280TIP3    H143255   6.518   2.183  15.382  0.2882  1.0013 -0.3881
 7280TIP3    H243256   6.400   2.088  15.386  1.0917 -0.0208 -0.4125
 7281TIP3   OH243257   4.947   3.044  14.192  0.3545  0.0492 -0.0175
 7281TIP3    H143258   5.005   3.093  14.134  0.5026  0.6456  0.6172
 7281TIP3    H243259   4.862   3.086  14.182 -0.1850 -1.3175 -1.5390
 7282TIP3   OH243260   5.420   3.391  11.649  0.5102  0.1395 -0.1001
 7282TIP3    H143261   5.361   3.338  11.594  0.5785 -0.2141  0.1624
 7282TIP3    H243262   5.500   3.399  11.597  0.5573 -0.1537 -0.0785
 7283TIP3   OH243263   1.105   5.586  11.476  0.2137  0.3588  0.7595
 7283TIP3    H143264   1.092   5.573  11.382 -1.6545 -1.0086  1.1507
 7283TIP3    H243265   1.185   5.639  11.482  0.7030 -0.0068 -1.5540
 7284TIP3   OH243266   3.747   3.878   4.963 -0.2025 -0.2903 -0.1932
 7284TIP3    H143267   3.776   3.799   5.010 -1.6019 -1.2683 -0.8992
 7284TIP3    H243268   3.804   3.882   4.886  1.0467  0.4217  0.7300
 7285TIP3   OH243269   6.180   0.446  12.938  0.0001 -0.1605  0.1086
 7285TIP3    H143270   6.226   0.420  13.017 -0.0697  0.7918  0.4755
 7285TIP3    H243271   6.210   0.536  12.921  2.5516 -1.3624 -2.7959
 7286TIP3   OH243272   3.240   2.397   1.264  0.0580 -0.2808 -0.0435
 7286TIP3    H143273   3.194   2.326   1.308  0.7426 -0.6332  0.1224
 7286TIP3    H243274   3.319   2.356   1.228 -1.0673 -0.3000 -2.7291
 7287TIP3   OH243275   4.492   2.514  11.360 -0.8067 -0.1528 -0.0633
 7287TIP3    H143276   4.537   2.449  11.413 -0.8279 -1.0091 -1.0577
 7287TIP3    H243277   4.479   2.471  11.275  0.0498  1.4819 -1.0772
 7288TIP3   OH243278   6.294   5.411   5.803 -0.5480 -0.0051  0.3136
 7288TIP3    H143279   6.211   5.408   5.757 -0.1071  1.5323 -0.6591
 7288TIP3    H243280   6.359   5.430   5.735  0.3345  0.7293  1.3290
 7289TIP3   OH243281   4.674   6.114   5.834  0.0533  0.3277  0.3749
 7289TIP3    H143282   4.632   6.200   5.832  0.5567  0.5716 -0.6490
 7289TIP3    H243283   4.754   6.125   5.782 -0.2336 -0.9337 -0.3937
 7290TIP3   OH243284   5.899   6.443   5.403  0.4204  0.2388  0.1368
 7290TIP3    H143285   5.910   6.527   5.449 -2.8855  0.2919  1.1331
 7290TIP3    H243286   5.931   6.378   5.465 -0.9518  0.5460  1.2259
 7291TIP3   OH243287   2.513   3.369  12.226 -0.2601  0.1930  0.4538
 7291TIP3    H143288   2.521   3.459  12.194 -0.1140  0.1009  0.2268
 7291TIP3    H243289   2.419   3.358  12.241 -0.2999  0.3245  0.3117
 7292TIP3   OH243290   5.577   2.043  12.516  0.2882  0.2623 -0.1475
 7292TIP3    H143291   5.657   2.058  12.465  0.5952 -0.2810  0.1779
 7292TIP3    H243292   5.561   2.127  12.559  0.1875  0.6436 -0.9040
 7293TIP3   OH243293   3.686   6.490  15.483 -0.2808  0.3708  0.0713
 7293TIP3    H143294   3.676   6.583  15.499 -1.1048  0.0338  1.7034
 7293TIP3    H243295   3.666   6.479  15.390 -3.5446  1.4010  0.5297
 7294TIP3   OH243296   1.282   3.626  12.222  0.2075 -0.4591 -0.1422
 7294TIP3    H143297   1.271   3.605  12.315 -1.5199 -1.0407 -0.4435
 7294TIP3    H243298   1.352   3.691  12.220  0.4510 -0.6265  1.5358
 7295TIP3   OH243299   6.329   0.393  15.208 -0.2940  0.2033 -0.0317
 7295TIP3    H143300   6.408   0.400  15.154  0.2504  1.4796  0.8646
 7295TIP3    H243301   6.343   0.315  15.261  1.3119  1.4526  1.4950
 7296TIP3   OH243302   2.540   5.344   3.760 -0.1120  0.4122 -0.2641
 7296TIP3    H143303   2.501   5.256   3.761  1.2587 -0.2480  1.5730
 7296TIP3    H243304   2.527   5.375   3.671  0.2027 -2.0533 -1.2527
 7297TIP3   OH243305   3.510   4.681  16.963 -0.2843 -0.0755  0.4334
 7297TIP3    H143306   3.560   4.677  17.044 -0.8460  0.8778  0.8381
 7297TIP3    H243307   3.554   4.619  16.905  0.9739  0.2678  0.9822
 7298TIP3   OH243308   3.201   6.024   3.827 -0.1685  0.4769  0.1540
 7298TIP3    H143309   3.250   6.054   3.903 -0.9613  0.9088  0.5120
 7298TIP3    H243310   3.236   5.937   3.807 -0.5267 -0.0139  1.5418
 7299TIP3   OH243311   0.598   2.673   2.482  0.4122 -0.4809 -0.9136
 7299TIP3    H143312   0.557   2.717   2.557  0.7602 -1.1452 -0.3273
 7299TIP3    H243313   0.589   2.736   2.410 -2.6241 -0.9947 -1.1178
 7300TIP3   OH243314   1.337   2.478  16.531  1.0400  0.0494 -0.2147
 7300TIP3    H143315   1.346   2.539  16.458 -0.5096 -0.8696 -1.2359
 7300TIP3    H243316   1.252   2.497  16.569  1.0908 -0.6208  0.2644
 7301TIP3   OH243317   1.754   3.398   2.065  0.1747 -0.4784  0.3966
 7301TIP3    H143318   1.842   3.377   2.097 -0.6671  1.3345  4.7423
 7301TIP3    H243319   1.698   3.330   2.101 -0.4239 -0.7674 -1.0228
 7302TIP3   OH243320   1.775   5.541   4.609  0.1689  0.4414 -0.0319
 7302TIP3    H143321   1.850   5.483   4.615 -0.9716 -1.1833 -0.6687
 7302TIP3    H243322   1.735   5.538   4.696  0.1754  0.3741 -0.0314
 7303TIP3   OH243323   1.859   4.989   6.196  0.4196 -0.1765 -0.4303
 7303TIP3    H143324   1.877   4.897   6.215  0.9009 -0.1496 -0.7306
 7303TIP3    H243325   1.945   5.030   6.191  0.2357  0.1715 -0.8836
 7304TIP3   OH243326   0.944   5.850   0.533 -0.3588  0.4942  0.5006
 7304TIP3    H143327   0.858   5.868   0.570 -1.5288 -1.3764 -1.0672
 7304TIP3    H243328   1.005   5.871   0.603 -2.3906 -3.1290  3.7544
 7305TIP3   OH243329   6.461   4.518   6.137  0.5378  0.3977 -0.2467
 7305TIP3    H143330   6.484   4.602   6.178  2.0519  0.7534 -1.7022
 7305TIP3    H243331   6.397   4.541   6.070 -0.0825  0.1775  0.2657
 7306TIP3   OH243332   0.299   0.307  15.017 -0.3577  0.4875  0.0248
 7306TIP3    H143333   0.368   0.249  14.985 -1.4129 -0.0458 -1.4254
 7306TIP3    H243334   0.248   0.254  15.078 -0.9528  0.0434 -0.8311
 7307TIP3   OH243335   1.936   2.757   0.268 -0.4646  0.1451 -0.3022
 7307TIP3    H143336   1.916   2.784   0.357  1.6005 -0.9101  0.5447
 7307TIP3    H243337   1.987   2.830   0.232  0.6746 -0.3930  0.1946
 7308TIP3   OH243338   5.766   0.809   5.967  0.8060  0.5815 -0.1059
 7308TIP3    H143339   5.849   0.854   5.950  0.9662 -0.6676 -3.4648
 7308TIP3    H243340   5.791   0.719   5.986  0.2557  0.4441 -0.0254
 7309TIP3   OH243341   2.889   5.009  10.694  0.2631  0.3077  0.2415
 7309TIP3    H143342   2.836   4.954  10.751 -0.5463  1.1883  0.3486
 7309TIP3    H243343   2.827   5.050  10.634  0.9544  0.4396 -0.4132
 7310TIP3   OH243344   5.205   5.572  12.825  0.3519 -0.0439 -0.4165
 7310TIP3    H143345   5.189   5.666  12.818  0.5992 -0.0867 -1.9156
 7310TIP3    H243346   5.292   5.566  12.866 -0.1556  0.3360  0.7511
 7311TIP3   OH243347   1.027   2.911   1.846 -0.9110 -0.2754  0.2268
 7311TIP3    H143348   0.975   2.929   1.925 -1.6123 -1.1166 -0.0242
 7311TIP3    H243349   1.096   2.851   1.876 -0.1602  0.7214  0.5298
 7312TIP3   OH243350   4.130   3.534  17.598 -0.2542 -0.1223 -0.7761
 7312TIP3    H143351   4.215   3.509  17.634 -0.3952 -0.3851 -0.6210
 7312TIP3    H243352   4.081   3.567  17.674 -0.7419 -1.1795 -0.6141
 7313TIP3   OH243353   5.600   6.002   4.900  0.3897 -0.1110  0.6439
 7313TIP3    H143354   5.639   6.087   4.877 -2.2521  0.7986 -0.8626
 7313TIP3    H243355   5.600   6.001   4.995  0.1969  1.7328  0.6968
 7314TIP3   OH243356   4.687   4.448  13.967 -0.2048  0.4601  0.1346
 7314TIP3    H143357   4.714   4.483  13.882  0.2139 -1.1540 -0.4386
 7314TIP3    H243358   4.752   4.380  13.986  2.5024  3.6292  3.9290
 7315TIP3   OH243359   1.387   2.019   3.180 -0.2534  0.3465 -0.1085
 7315TIP3    H143360   1.446   1.999   3.252 -1.4043 -1.4853  0.3840
 7315TIP3    H243361   1.322   2.079   3.217  0.3397  1.0457 -0.1970
 7316TIP3   OH243362   0.391   1.526   3.572  0.4738 -0.2876 -0.3749
 7316TIP3    H143363   0.334   1.579   3.628  1.0417  0.6040 -0.6333
 7316TIP3    H243364   0.337   1.507   3.495  0.3381  0.1095 -0.3819
 7317TIP3   OH243365   3.962   4.855   4.361 -0.0772 -0.1459  0.1624
 7317TIP3    H143366   3.880   4.825   4.400  0.2913 -0.4644  0.7123
 7317TIP3    H243367   4.029   4.834   4.427  0.4091  0.3508 -0.1636
 7318TIP3   OH243368   1.556   4.006   5.026 -0.2787  0.4008  0.5263
 7318TIP3    H143369   1.604   4.059   5.090  1.3770 -0.7108  0.2691
 7318TIP3    H243370   1.583   4.040   4.941 -0.4860  0.2152  0.3856
 7319TIP3   OH243371   4.229   0.187  12.643 -0.4639 -0.1307 -0.3814
 7319TIP3    H143372   4.319   0.219  12.640 -0.4817 -0.0201  0.2176
 7319TIP3    H243373   4.216   0.144  12.558  0.0381  0.1520 -0.6052
 7320TIP3   OH243374   3.682   3.415   3.287 -0.3930 -0.1608  0.1731
 7320TIP3    H143375   3.589   3.411   3.309  0.0746 -0.0258  2.3294
 7320TIP3    H243376   3.726   3.443   3.367  1.8720 -3.3732  0.2956
 7321TIP3   OH243377   4.717   1.501   6.054  0.0586  0.5358 -0.6273
 7321TIP3    H143378   4.796   1.466   6.014 -0.7385 -0.1696 -1.6272
 7321TIP3    H243379   4.723   1.476   6.146  2.1097  2.5098 -0.1403
 7322TIP3   OH243380   2.769   3.624  12.465  0.3827 -0.0956  0.1460
 7322TIP3    H143381   2.750   3.545  12.413 -1.3870  0.2638  0.1631
 7322TIP3    H243382   2.821   3.592  12.539  2.7062 -0.6626 -1.6230
 7323TIP3   OH243383   4.410   4.483   3.858  0.7028 -0.2117  0.3459
 7323TIP3    H143384   4.492   4.532   3.847  1.1322 -1.1345 -0.8126
 7323TIP3    H243385   4.377   4.511   3.943  0.8293  2.2196 -0.3009
 7324TIP3   OH243386   6.649   3.455   6.549  0.2994 -0.1112 -0.4847
 7324TIP3    H143387   6.610   3.403   6.479  3.2292 -2.8211 -0.3429
 7324TIP3    H243388   6.608   3.421   6.629 -0.1080  0.0718 -0.6167
 7325TIP3   OH243389   2.106   5.949   0.287 -0.0468  0.6641 -0.0080
 7325TIP3    H143390   2.085   5.985   0.201  1.8907 -0.4518 -0.9919
 7325TIP3    H243391   2.023   5.913   0.318 -0.4250 -0.5006 -2.1984
 7326TIP3   OH243392   1.319   4.825   2.931  0.5075  0.1488 -0.0805
 7326TIP3    H143393   1.284   4.812   2.843 -0.5862 -0.0467  0.3657
 7326TIP3    H243394   1.256   4.884   2.973  0.2857 -0.8242  0.9862
 7327TIP3   OH243395   2.138   0.271   2.809 -0.1037 -0.6958  0.6528
 7327TIP3    H143396   2.157   0.319   2.889  0.2109  0.0179  0.1564
 7327TIP3    H243397   2.223   0.235   2.782  0.2801  1.0634 -0.6384
 7328TIP3   OH243398   0.847   2.168  16.735  0.0340 -0.2382 -0.3564
 7328TIP3    H143399   0.798   2.215  16.802 -0.5604 -0.5604 -0.5534
 7328TIP3    H243400   0.939   2.185  16.756 -0.1567  0.2373  0.1215
 7329TIP3   OH243401   5.369   0.008   4.879 -0.4138  0.6686  0.5380
 7329TIP3    H143402   5.422  -0.067   4.853 -2.7065 -1.1108  0.6698
 7329TIP3    H243403   5.379   0.013   4.974 -0.6126  0.1887  0.5902
 7330TIP3   OH243404   6.603   1.228   4.901 -0.1499  0.2032 -0.5008
 7330TIP3    H143405   6.668   1.159   4.912  0.4633  1.0807  2.2770
 7330TIP3    H243406   6.640   1.303   4.947 -1.3659  2.0237 -2.3253
 7331TIP3   OH243407   4.794   0.178   2.468 -0.5670 -0.9465  0.1655
 7331TIP3    H143408   4.734   0.104   2.462 -0.5007 -0.9590 -0.3359
 7331TIP3    H243409   4.757   0.233   2.537 -0.0003 -2.0044  1.3792
 7332TIP3   OH243410   2.791   2.012  13.974 -0.5981 -0.6123 -0.1046
 7332TIP3    H143411   2.803   1.937  14.033 -1.7463  0.0608  1.0576
 7332TIP3    H243412   2.700   2.038  13.988 -0.2844  0.8672 -0.6513
 7333TIP3   OH243413   6.270   5.828  16.495  0.2589  0.5495 -0.1745
 7333TIP3    H143414   6.223   5.861  16.572 -1.0022 -0.9091 -0.2659
 7333TIP3    H243415   6.226   5.745  16.475  1.6828  0.0752 -1.4403
 7334TIP3   OH243416   5.176   6.135  17.307  0.6319  0.4680  0.0750
 7334TIP3    H143417   5.178   6.201  17.238  1.2972  1.0999  0.6796
 7334TIP3    H243418   5.131   6.060  17.267 -0.0219  1.2330 -0.6613
 7335TIP3   OH243419   2.267   5.305   1.431 -0.0841 -0.0517 -0.3791
 7335TIP3    H143420   2.202   5.235   1.435 -0.5718  0.4407  1.0785
 7335TIP3    H243421   2.348   5.264   1.462 -0.4602  0.1008  0.8570
 7336TIP3   OH243422   2.097   2.762  14.202 -0.1103  0.2218 -0.5185
 7336TIP3    H143423   2.054   2.830  14.254 -0.2614 -0.0323 -0.3083
 7336TIP3    H243424   2.179   2.801  14.174  0.1365  0.2413  0.2100
 7337TIP3   OH243425   3.797   4.907   0.895 -0.6167 -0.3234  0.0203
 7337TIP3    H143426   3.841   4.849   0.956 -1.9519 -1.9203 -0.4585
 7337TIP3    H243427   3.864   4.930   0.830  0.6432  0.8870  1.6568
 7338TIP3   OH243428   5.494   3.686  15.379 -0.1014 -0.2391  0.3607
 7338TIP3    H143429   5.409   3.642  15.371  0.4863 -1.2564 -0.4452
 7338TIP3    H243430   5.553   3.635  15.324  0.4123  2.0950 -1.4278
 7339TIP3   OH243431   5.687   0.230   1.925  0.3626 -0.0202  0.6134
 7339TIP3    H143432   5.604   0.191   1.951 -0.6506  0.2813 -1.9418
 7339TIP3    H243433   5.663   0.312   1.883  1.9827  0.1981  0.0515
 7340TIP3   OH243434   1.703   6.209  14.413 -0.2056 -0.1024 -0.0145
 7340TIP3    H143435   1.646   6.240  14.343 -0.9187  0.1018  0.6526
 7340TIP3    H243436   1.711   6.283  14.473  0.3319 -0.3035  0.1696
 7341TIP3   OH243437   4.886   2.875  16.119 -0.6105  0.3142  0.0241
 7341TIP3    H143438   4.863   2.791  16.080 -1.3178 -0.1101  1.3013
 7341TIP3    H243439   4.970   2.859  16.163 -0.6173  0.3541  0.0529
 7342TIP3   OH243440   2.585   6.591  11.371  0.6794  0.3084  0.0923
 7342TIP3    H143441   2.659   6.535  11.349  0.9657  0.4711  0.6360
 7342TIP3    H243442   2.619   6.680  11.364  0.7910  0.3686  1.2084
 7343TIP3   OH243443   4.168   3.522   5.429  0.1320 -0.7739 -0.1135
 7343TIP3    H143444   4.211   3.446   5.391 -0.0854 -0.5076 -0.9111
 7343TIP3    H243445   4.080   3.521   5.393  0.8865  1.3083 -2.3413
 7344TIP3   OH243446   0.929   0.558   3.723 -0.2999  0.3767  0.1452
 7344TIP3    H143447   0.880   0.575   3.643  1.2834 -0.0604 -0.9816
 7344TIP3    H243448   0.970   0.642   3.745  0.3590  0.1824 -0.3063
 7345TIP3   OH243449   6.093   5.352   5.633  0.1352 -0.4901 -0.4420
 7345TIP3    H143450   6.144   5.364   5.553  1.2715 -1.5576  0.0812
 7345TIP3    H243451   6.008   5.321   5.603  0.7736 -1.5539 -1.2414
 7346TIP3   OH243452   2.446   1.354  17.154  0.1670  0.3965  0.4462
 7346TIP3    H143453   2.431   1.442  17.188  1.2303  0.1422  1.6352
 7346TIP3    H243454   2.540   1.349  17.140 -0.0366 -0.0990 -0.9796
 7347TIP3   OH243455   3.178   6.364   3.076  0.6500  0.0441  0.1459
 7347TIP3    H143456   3.109   6.298   3.089  1.1112 -0.3636  0.5488
 7347TIP3    H243457   3.260   6.316   3.086  0.9960  0.7738  0.9524
 7348TIP3   OH243458   1.042   6.572  13.416  0.7374  0.3179  0.1081
 7348TIP3    H143459   1.109   6.640  13.423 -0.0134  1.0139  0.7411
 7348TIP3    H243460   1.020   6.570  13.323  0.8802  0.8373  0.0572
 7349TIP3   OH243461   1.440   0.808   2.106 -0.4996 -0.0081 -0.5246
 7349TIP3    H143462   1.354   0.801   2.147 -0.1426  1.7501  0.6083
 7349TIP3    H243463   1.471   0.896   2.130  2.0255 -0.9533 -0.1055
 7350TIP3   OH243464   3.575   3.256   6.539 -0.1502  0.3160  0.0104
 7350TIP3    H143465   3.625   3.179   6.512  0.8844  0.8113  0.4620
 7350TIP3    H243466   3.593   3.265   6.632 -1.6650  0.1004  0.3609
 7351TIP3   OH243467   0.348   4.035   0.912  0.6335  0.3546 -0.1007
 7351TIP3    H143468   0.362   3.952   0.865  0.2986 -0.5205  1.2829
 7351TIP3    H243469   0.431   4.081   0.906  0.2719  0.8015 -2.5141
 7352TIP3   OH243470   6.413   5.517  13.270  0.3286  0.3988  0.4965
 7352TIP3    H143471   6.449   5.605  13.284  0.5903  0.1493  1.5091
 7352TIP3    H243472   6.319   5.529  13.274  0.2047  1.1435 -2.6793
 7353TIP3   OH243473   0.842   1.144   1.154  0.5626  0.0607 -0.1455
 7353TIP3    H143474   0.833   1.156   1.059  0.6334 -1.8454 -0.4433
 7353TIP3    H243475   0.766   1.189   1.191  0.4890  0.7543 -1.1069
 7354TIP3   OH243476   0.473   6.626  13.665  0.2087  0.6748 -0.8152
 7354TIP3    H143477   0.404   6.619  13.731  0.4783 -0.7279 -0.6496
 7354TIP3    H243478   0.553   6.601  13.711  0.9122  2.5448 -0.9313
 7355TIP3   OH243479   2.597   4.837   2.177 -0.1432 -0.0982 -0.2373
 7355TIP3    H143480   2.590   4.753   2.221  0.8285 -0.5805 -0.9769
 7355TIP3    H243481   2.675   4.878   2.215 -0.3629  0.2843 -0.1927
 7356TIP3   OH243482   3.765   0.531   5.103 -0.3974 -0.0729 -0.4426
 7356TIP3    H143483   3.681   0.487   5.091 -0.4623 -0.6918  1.8470
 7356TIP3    H243484   3.829   0.473   5.063 -0.8676 -0.4441 -0.6600
 7357TIP3   OH243485   5.203   0.831   5.427 -0.3920  0.7793 -0.4060
 7357TIP3    H143486   5.203   0.779   5.506  1.0626 -1.5399 -1.8200
 7357TIP3    H243487   5.117   0.816   5.387  0.3055 -1.3498 -1.2257
 7358TIP3   OH243488   4.330   3.219  13.036  0.2426  0.8098 -0.3631
 7358TIP3    H143489   4.236   3.203  13.023  0.5129  0.1176 -1.6005
 7358TIP3    H243490   4.362   3.244  12.949  1.4194 -0.0980 -0.2088
 7359TIP3   OH243491   3.388   3.087   2.820  0.4402 -0.5042  0.3410
 7359TIP3    H143492   3.360   3.095   2.911  0.5170  0.4906  0.2881
 7359TIP3    H243493   3.307   3.068   2.772  0.4615 -1.4457  0.6550
 7360TIP3   OH243494   1.125   2.192  16.790 -0.7665  0.2946  0.1955
 7360TIP3    H143495   1.214   2.197  16.826 -1.1377  0.8984  1.0818
 7360TIP3    H243496   1.136   2.204  16.696 -0.2684  5.2388  0.6519
 7361TIP3   OH243497   0.333   6.131   3.668 -0.3197 -0.1793 -0.1174
 7361TIP3    H143498   0.423   6.163   3.677  0.5676 -2.1700 -1.1632
 7361TIP3    H243499   0.301   6.172   3.588 -0.4401  0.7261  0.3912
 7362TIP3   OH243500   5.328   5.388   1.759  0.1356 -0.3478  0.8838
 7362TIP3    H143501   5.359   5.367   1.847  0.1715  1.6761  1.3943
 7362TIP3    H243502   5.241   5.426   1.772 -0.1463 -0.6594 -0.0228
 7363TIP3   OH243503   0.924   2.040   2.537 -0.1051  0.2085  0.2180
 7363TIP3    H143504   0.847   2.022   2.483  0.1814 -1.2485  0.2503
 7363TIP3    H243505   0.948   2.130   2.516 -3.2464  1.6237  1.9878
 7364TIP3   OH243506   5.837   1.086  14.758  0.1850  0.3869  0.1654
 7364TIP3    H143507   5.742   1.075  14.760  0.1544  0.7334  0.8089
 7364TIP3    H243508   5.857   1.108  14.667 -0.3676  0.4490  0.0584
 7365TIP3   OH243509   0.846   0.049  11.673 -0.1319  0.0121  0.4740
 7365TIP3    H143510   0.807   0.124  11.719 -2.0608 -1.4286  1.3475
 7365TIP3    H243511   0.772  -0.010  11.656  0.9639 -0.7979 -2.0591
 7366TIP3   OH243512   4.354   3.517  14.006 -0.0035 -0.0548 -0.1518
 7366TIP3    H143513   4.281   3.528  13.946 -1.2177  0.3993  1.3341
 7366TIP3    H243514   4.400   3.439  13.974 -1.2617 -0.4793 -0.9999
 7367TIP3   OH243515   1.765   4.473   5.772 -0.2520 -0.4714 -0.1121
 7367TIP3    H143516   1.738   4.401   5.828  0.5774 -2.0458 -1.6501
 7367TIP3    H243517   1.684   4.506   5.733 -0.6356 -0.5410  0.6268
 7368TIP3   OH243518   1.187   4.140  11.207 -0.0850 -0.3975 -0.0045
 7368TIP3    H143519   1.231   4.225  11.202 -0.7762  0.0084  0.5372
 7368TIP3    H243520   1.174   4.115  11.115 -0.5246  0.4324 -0.1805
 7369TIP3   OH243521   3.747   2.786   4.774  0.5593 -0.2656 -0.0059
 7369TIP3    H143522   3.792   2.742   4.701  0.4195 -1.4878  0.6085
 7369TIP3    H243523   3.684   2.721   4.805 -0.8918  1.0241 -0.1407
 7370TIP3   OH243524   2.939   6.431   5.826 -0.2656 -0.3241 -0.6649
 7370TIP3    H143525   3.011   6.374   5.853  0.3796  0.3041 -1.0275
 7370TIP3    H243526   2.974   6.520   5.833 -0.6840 -0.0523 -1.7577
 7371TIP3   OH243527   3.411   5.671   1.985  0.3319 -0.6151  0.2002
 7371TIP3    H143528   3.460   5.665   1.903 -0.9331 -0.5361 -0.5949
 7371TIP3    H243529   3.385   5.763   1.990  1.5177 -0.3188  1.3903
 7372TIP3   OH243530   5.188   2.072  15.174 -0.2192 -0.4600  0.2259
 7372TIP3    H143531   5.203   1.985  15.137  2.5598  0.3310 -0.7839
 7372TIP3    H243532   5.106   2.102  15.135 -0.0315 -1.7309 -1.2304
 7373TIP3   OH243533   5.664   4.316  13.080  0.8483  0.4254  0.1897
 7373TIP3    H143534   5.745   4.280  13.044  0.8319  0.2326  0.3419
 7373TIP3    H243535   5.640   4.255  13.150  0.1468  0.0285 -0.3835
 7374TIP3   OH243536   5.725   2.694  12.230 -0.3142  0.0624 -0.1173
 7374TIP3    H143537   5.728   2.671  12.323 -2.4377 -0.6370 -0.1772
 7374TIP3    H243538   5.749   2.614  12.185  1.0236  0.4856 -0.2103
 7375TIP3   OH243539   2.304   5.995  12.632 -0.0503 -0.5652  0.0708
 7375TIP3    H143540   2.319   6.055  12.704 -2.2993 -0.2169  0.3259
 7375TIP3    H243541   2.269   6.050  12.562  1.6540 -0.9751 -1.1669
 7376TIP3   OH243542   1.340   0.352  16.232 -0.0666 -0.2784  0.1180
 7376TIP3    H143543   1.258   0.345  16.281 -0.1843  1.8629  0.3241
 7376TIP3    H243544   1.400   0.295  16.278 -0.7161  0.1974  1.6068
 7377TIP3   OH243545   6.693   1.524  15.189 -0.1907 -0.3507 -0.3219
 7377TIP3    H143546   6.689   1.435  15.152  2.1643 -2.3272  3.5633
 7377TIP3    H243547   6.778   1.529  15.231 -0.4686  3.6675  0.1276
 7378TIP3   OH243548   0.441   6.046   1.473  0.3591  0.0570 -0.3433
 7378TIP3    H143549   0.431   6.139   1.493 -0.1249  0.0396 -0.4892
 7378TIP3    H243550   0.390   6.033   1.393 -0.3613 -0.5164  0.1877
 7379TIP3   OH243551   6.173   2.808   4.894  0.0790  0.1626 -0.0367
 7379TIP3    H143552   6.080   2.815   4.917  0.0271 -1.2873  0.3042
 7379TIP3    H243553   6.202   2.898   4.883 -1.4536  0.6319 -0.4740
 7380TIP3   OH243554   4.450   0.887   2.824  0.5769  0.0472 -0.4638
 7380TIP3    H143555   4.448   0.797   2.857 -0.7035  0.5860  1.0537
 7380TIP3    H243556   4.479   0.878   2.733  0.6369 -1.8789 -0.3041
 7381TIP3   OH243557   0.943   5.136   6.208  0.1682  0.4442 -0.5356
 7381TIP3    H143558   0.956   5.072   6.278 -2.0070  0.1454 -0.3266
 7381TIP3    H243559   0.857   5.174   6.226 -1.5543 -1.2171 -4.1475
 7382TIP3   OH243560   0.780   0.609   3.482  0.4059 -0.3011 -0.4882
 7382TIP3    H143561   0.794   0.703   3.482  0.8921 -0.3696 -0.0447
 7382TIP3    H243562   0.686   0.598   3.499  0.4282  0.0933 -0.1052
 7383TIP3   OH243563   2.017   4.314  11.424 -0.5301  0.3372  0.3283
 7383TIP3    H143564   2.049   4.243  11.369 -0.8610  0.6757 -0.3211
 7383TIP3    H243565   1.970   4.371  11.363 -2.3000 -0.1014  1.2323
 7384TIP3   OH243566   4.240   5.253  15.630 -0.0226 -0.7586  0.0232
 7384TIP3    H143567   4.293   5.319  15.675  0.1829 -1.8157  1.3900
 7384TIP3    H243568   4.208   5.197  15.699 -1.2928 -1.3327 -0.9935
 7385TIP3   OH243569   0.817   0.965   0.361 -0.6531  0.1582 -0.4886
 7385TIP3    H143570   0.846   1.045   0.405  0.8519 -0.6368  0.0208
 7385TIP3    H243571   0.764   0.919   0.425 -0.6226  0.2399 -0.4052
 7386TIP3   OH243572   3.401   5.626   2.793 -0.1551 -0.6319  0.3544
 7386TIP3    H143573   3.371   5.717   2.781  0.1690 -0.7211 -1.5582
 7386TIP3    H243574   3.324   5.573   2.773 -0.2821 -0.7935  1.2480
 7387TIP3   OH243575   4.718   3.094   6.182  0.5457 -0.1082 -0.1761
 7387TIP3    H143576   4.739   3.161   6.117  0.9272  0.1433  0.1977
 7387TIP3    H243577   4.751   3.013   6.144  1.5431  0.1639  0.0617
 7388TIP3   OH243578   5.532   2.342   1.966 -0.2747 -0.6988 -0.3408
 7388TIP3    H143579   5.566   2.355   2.055  0.3974 -0.7667 -0.5851
 7388TIP3    H243580   5.482   2.260   1.972 -0.7866 -0.3566  0.1309
 7389TIP3   OH243581   3.109   3.071   5.237  0.4714  0.0144 -0.0387
 7389TIP3    H143582   3.128   3.099   5.327 -1.7687  0.0839  0.4808
 7389TIP3    H243583   3.043   3.134   5.207  1.0907 -0.0956 -1.7065
 7390TIP3   OH243584   1.868   2.589   1.885  0.2542  0.1069 -0.3908
 7390TIP3    H143585   1.852   2.575   1.792 -2.3817 -0.0955  0.0295
 7390TIP3    H243586   1.839   2.509   1.927  1.0950  0.3293  0.6576
 7391TIP3   OH243587   3.831   6.251   3.444 -0.2347 -0.2874 -0.3719
 7391TIP3    H143588   3.848   6.275   3.353  0.0600  0.0994 -0.2146
 7391TIP3    H243589   3.821   6.335   3.489 -0.1695 -0.4757 -0.0085
 7392TIP3   OH243590   3.357   4.589  11.636  0.0635 -0.4597  0.1926
 7392TIP3    H143591   3.355   4.543  11.552 -0.0929 -0.8054  0.3827
 7392TIP3    H243592   3.269   4.579  11.672  0.1892 -0.5049  0.4976
 7393TIP3   OH243593   2.804   6.069   0.017  0.0692 -0.3687  0.2735
 7393TIP3    H143594   2.878   6.127   0.003  0.4986 -0.8827  0.3611
 7393TIP3    H243595   2.751   6.112   0.084 -0.0682  0.3215 -0.2742
 7394TIP3   OH243596   5.694   2.954   1.991  0.3427 -0.3341  0.3432
 7394TIP3    H143597   5.652   2.991   2.069  0.6227 -1.7036  1.1886
 7394TIP3    H243598   5.624   2.904   1.948  0.8536 -2.0451  1.3781
 7395TIP3   OH243599   3.174   1.849   4.052 -0.4544  0.2877  0.0139
 7395TIP3    H143600   3.266   1.867   4.071 -0.8348  1.4617  0.9318
 7395TIP3    H243601   3.133   1.840   4.138 -1.4234  1.1111 -0.3368
 7396TIP3   OH243602   6.448   1.856   1.399  0.4247 -0.1289 -0.9859
 7396TIP3    H143603   6.366   1.820   1.435  0.4684  1.3280  0.6834
 7396TIP3    H243604   6.515   1.828   1.461  1.4281 -2.0868 -2.8129
 7397TIP3   OH243605   0.285   4.125  15.354 -0.0886 -0.1407 -0.0114
 7397TIP3    H143606   0.354   4.171  15.306  1.8740 -0.2338  2.5368
 7397TIP3    H243607   0.284   4.037  15.315 -0.1787  0.4124 -1.3420
 7398TIP3   OH243608   5.642   5.749  16.599  0.1597  0.0806 -0.7098
 7398TIP3    H143609   5.734   5.755  16.626  0.6193 -0.5432 -2.0328
 7398TIP3    H243610   5.634   5.660  16.563 -1.2792 -0.3028  0.4632
 7399TIP3   OH243611   2.547   5.937  10.690  0.2554  0.0494  0.6284
 7399TIP3    H143612   2.601   5.859  10.695  1.2572  0.6798  0.0047
 7399TIP3    H243613   2.468   5.909  10.643  0.9695 -0.4071 -0.3302
 7400TIP3   OH243614   4.739   3.625  15.342  0.2021 -0.3062  0.1215
 7400TIP3    H143615   4.785   3.625  15.258  0.7324 -1.2806  0.3946
 7400TIP3    H243616   4.801   3.662  15.404 -0.2649  0.6041  0.0592
 7401TIP3   OH243617   2.115   4.444   0.616 -0.3226  0.1876  0.3876
 7401TIP3    H143618   2.034   4.491   0.594  0.1248  0.7370 -0.1255
 7401TIP3    H243619   2.087   4.374   0.674 -1.3414 -0.3546 -0.7153
 7402TIP3   OH243620   4.065   1.978   0.149  0.5699 -0.9894  0.1879
 7402TIP3    H143621   3.983   1.961   0.103  1.2762 -0.5556 -1.2809
 7402TIP3    H243622   4.114   1.896   0.143  1.0493 -0.6495 -0.6805
 7403TIP3   OH243623   5.122   1.836   3.393  0.2136 -0.3002 -0.3163
 7403TIP3    H143624   5.162   1.797   3.315  1.0091 -0.2692  0.0672
 7403TIP3    H243625   5.185   1.901   3.423  0.4496 -1.0952  1.0044
 7404TIP3   OH243626   2.107   6.307  14.025 -0.5408  0.6202 -0.2712
 7404TIP3    H143627   2.165   6.380  14.048 -0.0692 -0.2422  1.4031
 7404TIP3    H243628   2.024   6.330  14.067 -0.3395  0.1256  0.4099
 7405TIP3   OH243629   0.918   3.834   1.057  0.2581 -0.3306  0.0591
 7405TIP3    H143630   0.931   3.924   1.027  2.2861 -0.2053  1.1713
 7405TIP3    H243631   0.889   3.787   0.978 -0.9172  1.2723 -0.5233
 7406TIP3   OH243632   0.570   3.269  15.429  0.0778  0.4637 -0.2263
 7406TIP3    H143633   0.580   3.177  15.455  0.2266  1.2074  2.7234
 7406TIP3    H243634   0.621   3.276  15.349  3.0694 -1.3017  1.3261
 7407TIP3   OH243635   1.727   5.150  16.289  0.0344  0.2925  0.5088
 7407TIP3    H143636   1.762   5.090  16.224 -0.1476 -0.2158  0.8786
 7407TIP3    H243637   1.803   5.171  16.344  0.4914  1.7063 -0.5876
 7408TIP3   OH243638   2.286   4.598   4.656 -0.5635 -0.2259 -0.5371
 7408TIP3    H143639   2.295   4.663   4.725 -1.1059  2.3306 -2.6689
 7408TIP3    H243640   2.211   4.545   4.682  0.1122 -0.2545  1.4618
 7409TIP3   OH243641   2.608   6.032  12.400 -0.4511  0.0090 -0.0649
 7409TIP3    H143642   2.642   6.094  12.465 -3.5286  1.0120  0.7447
 7409TIP3    H243643   2.546   5.978  12.448 -0.4396 -1.3827 -1.5288
 7410TIP3   OH243644   2.871   0.442   2.011 -0.1682  0.1032 -0.5336
 7410TIP3    H143645   2.807   0.417   2.078  1.5834 -0.8961  0.8690
 7410TIP3    H243646   2.862   0.536   2.002 -1.5078  0.0346 -0.0215
 7411TIP3   OH243647   5.869   4.462   4.364 -0.0078 -0.2036  0.3823
 7411TIP3    H143648   5.831   4.480   4.278 -1.7152 -0.8573  0.9555
 7411TIP3    H243649   5.920   4.382   4.351  1.4431  0.8056 -0.4499
 7412TIP3   OH243650   4.652   4.614   2.896  0.5908  0.0967  0.4453
 7412TIP3    H143651   4.587   4.672   2.856  0.4721 -0.8251 -0.7516
 7412TIP3    H243652   4.650   4.535   2.843 -0.4935 -1.7663  3.0369
 7413TIP3   OH243653   5.328   4.321  16.437 -0.2501 -0.1292 -0.5753
 7413TIP3    H143654   5.354   4.413  16.429 -0.9416  0.3552  1.9369
 7413TIP3    H243655   5.355   4.296  16.526 -1.9924 -1.7063 -0.4246
 7414TIP3   OH243656   3.559   6.009  11.082 -0.5618  0.5723  0.0904
 7414TIP3    H143657   3.635   6.055  11.119  0.6514  0.3266 -1.9792
 7414TIP3    H243658   3.594   5.927  11.048 -1.9072  0.1043 -0.2288
 7415TIP3   OH243659   0.572   3.838  14.231  0.4654  0.4098  0.0189
 7415TIP3    H143660   0.510   3.772  14.263  0.4365  0.0208 -0.8096
 7415TIP3    H243661   0.535   3.866  14.147  0.7283  1.1399  0.1399
 7416TIP3   OH243662   1.791   6.526  11.373 -0.1962  0.1359  0.5459
 7416TIP3    H143663   1.784   6.483  11.459  1.4400 -0.7777  0.2517
 7416TIP3    H243664   1.743   6.468  11.314  1.7192 -1.1892  0.2150
 7417TIP3   OH243665   0.661   3.683  16.287 -0.1475 -0.5134 -0.7497
 7417TIP3    H143666   0.708   3.610  16.248 -1.3163 -1.3292 -0.6904
 7417TIP3    H243667   0.572   3.675  16.253 -0.8120 -0.3510  0.8573
 7418TIP3   OH243668   1.879   0.889   4.864 -0.8109  0.3725  0.1544
 7418TIP3    H143669   1.908   0.948   4.794 -0.2385  0.1935  0.2347
 7418TIP3    H243670   1.803   0.843   4.827  0.6770 -1.1881 -1.1198
 7419TIP3   OH243671   4.690   0.428   3.893  0.0125  0.1255  0.0284
 7419TIP3    H143672   4.752   0.403   3.962  0.5338  2.3932  0.4676
 7419TIP3    H243673   4.608   0.387   3.919  0.9748 -1.8823  0.1310
 7420TIP3   OH243674   5.234   2.566   1.904 -0.1339 -0.0412 -0.8806
 7420TIP3    H143675   5.304   2.552   1.840  0.0476 -0.6883 -0.5403
 7420TIP3    H243676   5.199   2.653   1.882  2.1091  1.2280  0.1949
 7421TIP3   OH243677   0.003   5.291   0.332  0.3962 -0.2181 -0.0280
 7421TIP3    H143678  -0.076   5.314   0.283 -0.7564 -2.0099  0.8716
 7421TIP3    H243679   0.015   5.198   0.316  1.8420 -0.1550  0.5553
 7422TIP3   OH243680   6.470   3.691   4.553 -0.2261  0.1921  1.1368
 7422TIP3    H143681   6.527   3.659   4.483 -2.9402 -1.6585 -0.4159
 7422TIP3    H243682   6.441   3.777   4.523 -0.3722 -0.0467  0.5789
 7423TIP3   OH243683   1.660   0.280   5.478  0.2223 -0.1679  0.3821
 7423TIP3    H143684   1.664   0.258   5.571  0.8890 -0.2632  0.3412
 7423TIP3    H243685   1.709   0.362   5.470 -1.9461  1.1922  0.4710
 7424TIP3   OH243686   4.057   6.170  16.274 -0.1710 -0.5487  0.1805
 7424TIP3    H143687   4.059   6.088  16.324  0.1011  0.0406  1.1672
 7424TIP3    H243688   4.148   6.199  16.271  0.0819 -1.3449 -2.0457
 7425TIP3   OH243689   1.457   0.650  13.364 -0.2689  0.2922  0.0628
 7425TIP3    H143690   1.401   0.707  13.311 -1.9676  0.5120  1.9499
 7425TIP3    H243691   1.523   0.708  13.401  1.3754  0.0174 -2.2535
 7426TIP3   OH243692   0.656   1.586  12.778 -0.0810 -0.3519 -0.1061
 7426TIP3    H143693   0.569   1.624  12.776  0.4534  0.9575  0.2513
 7426TIP3    H243694   0.642   1.493  12.795 -1.2830  0.3626  3.6372
 7427TIP3   OH243695   3.394   4.566   3.637  0.7818 -0.6476  0.3334
 7427TIP3    H143696   3.419   4.512   3.562 -0.2660 -0.1511 -0.4082
 7427TIP3    H243697   3.349   4.641   3.598 -1.5100 -1.3058  1.5128
 7428TIP3   OH243698   6.075   0.136   4.882 -0.1867  0.4463 -0.2815
 7428TIP3    H143699   6.094   0.144   4.788  1.0208 -0.6900 -0.1704
 7428TIP3    H243700   6.055   0.225   4.911 -3.5694  0.4664 -2.1763
 7429TIP3   OH243701   0.199   5.409   6.764  0.7468  0.0029 -0.5457
 7429TIP3    H143702   0.114   5.435   6.728  0.9353  1.2492 -0.1236
 7429TIP3    H243703   0.194   5.314   6.768 -0.3877  0.0118 -1.1264
 7430TIP3   OH243704   1.565   2.139  11.643  0.4822 -0.0198  0.2254
 7430TIP3    H143705   1.479   2.106  11.669  0.3005  0.2599 -0.0127
 7430TIP3    H243706   1.553   2.172  11.554  0.6746  0.6062  0.4215
 7431TIP3   OH243707   3.879   5.034  15.602  0.0724  0.4670 -0.0160
 7431TIP3    H143708   3.805   5.037  15.541  1.3262  0.3243 -1.5897
 7431TIP3    H243709   3.923   4.951  15.582  2.4479  1.9529 -1.3341
 7432TIP3   OH243710   3.866   0.020   4.987 -0.1407  0.1578  0.1924
 7432TIP3    H143711   3.904  -0.048   5.042 -0.5992 -0.4216 -0.1951
 7432TIP3    H243712   3.774   0.024   5.014 -1.0620 -1.9477 -2.2304
 7433TIP3   OH243713   0.696   3.671   1.498  0.0037  0.5161 -0.4135
 7433TIP3    H143714   0.703   3.740   1.433 -1.6498  2.5239  1.3918
 7433TIP3    H243715   0.774   3.681   1.553 -0.5740  1.4305  0.2543
 7434TIP3   OH243716   4.776   1.325   3.012 -0.1682  0.2324 -0.2805
 7434TIP3    H143717   4.851   1.325   3.072  0.0648 -0.4723 -0.5677
 7434TIP3    H243718   4.700   1.339   3.069 -0.1140 -1.9706  0.4185
 7435TIP3   OH243719   4.923   4.350  12.194 -0.6431  0.0407  0.4289
 7435TIP3    H143720   4.841   4.400  12.202 -2.2898 -1.8786 -2.4467
 7435TIP3    H243721   4.907   4.272  12.247 -0.8695 -0.5272 -0.4646
 7436TIP3   OH243722   3.182   5.435  14.100 -0.4995 -0.1917  0.1328
 7436TIP3    H143723   3.275   5.459  14.095  0.1106 -2.3140  0.1810
 7436TIP3    H243724   3.140   5.510  14.142  1.1172  0.9850 -0.2469
 7437TIP3   OH243725   0.875   0.382   0.301 -0.0693 -0.3248  0.1030
 7437TIP3    H143726   0.929   0.445   0.349  0.4295 -1.1662  0.6701
 7437TIP3    H243727   0.932   0.349   0.232  0.1533 -1.1973  0.6879
 7438TIP3   OH243728   2.705   2.550  14.532 -0.2704  0.2899 -0.6154
 7438TIP3    H143729   2.673   2.622  14.585  0.1010 -1.2940  1.9231
 7438TIP3    H243730   2.634   2.486  14.532  0.3863 -0.4693 -0.5130
 7439TIP3   OH243731   2.435   1.906  13.042  0.3270  0.5792 -0.4263
 7439TIP3    H143732   2.510   1.856  13.073 -0.6466 -3.2009 -3.4321
 7439TIP3    H243733   2.472   1.988  13.010  2.7968 -0.1757  0.2774
 7440TIP3   OH243734   5.395   2.682   0.635  0.2480  0.7086 -0.0945
 7440TIP3    H143735   5.345   2.657   0.558  1.4229 -0.2498 -0.5702
 7440TIP3    H243736   5.486   2.667   0.611  0.5943 -0.4361  1.7638
 7441TIP3   OH243737   4.364   4.967  14.203  0.1422  0.4578 -0.5404
 7441TIP3    H143738   4.343   5.040  14.260 -0.5648 -1.1544  1.3649
 7441TIP3    H243739   4.281   4.943  14.162  0.3328  0.5596 -1.0021
 7442TIP3   OH243740   5.783   5.894  11.114  0.6590  0.1944 -0.2256
 7442TIP3    H143741   5.716   5.846  11.066  0.9455  0.3329 -0.7674
 7442TIP3    H243742   5.741   5.976  11.139  0.3766 -0.0582  0.1290
 7443TIP3   OH243743   0.459   5.778   6.467 -0.3754  0.4732 -0.0486
 7443TIP3    H143744   0.396   5.850   6.470  0.7074  1.4410  0.1948
 7443TIP3    H243745   0.541   5.819   6.438  0.3907 -0.5573  0.6010
 7444TIP3   OH243746   0.619   2.144   3.834 -0.2186 -0.5379  0.4127
 7444TIP3    H143747   0.713   2.161   3.826 -0.0818 -1.2385  0.4791
 7444TIP3    H243748   0.582   2.178   3.753  0.5127 -3.0269 -1.0760
 7445TIP3   OH243749   1.955   1.940  15.167 -0.0010 -0.4331 -0.7189
 7445TIP3    H143750   1.899   1.868  15.139  0.2377 -0.6661 -0.5992
 7445TIP3    H243751   2.044   1.911  15.148  0.0582  0.1210 -1.3194
 7446TIP3   OH243752   1.339   3.509   3.806 -0.2794 -0.1089 -0.0077
 7446TIP3    H143753   1.271   3.570   3.779 -1.8389 -1.8052 -0.1335
 7446TIP3    H243754   1.291   3.434   3.841  1.4802 -1.8906 -1.2084
 7447TIP3   OH243755   0.702   4.399   1.642  0.3426  0.2676  0.3284
 7447TIP3    H143756   0.676   4.475   1.589 -0.2172  0.8632  1.4116
 7447TIP3    H243757   0.686   4.324   1.585 -2.9116  0.6644  0.5216
 7448TIP3   OH243758   4.535   2.632   3.776  0.3101  0.0127  0.2344
 7448TIP3    H143759   4.614   2.682   3.756  0.4092  0.3989  1.4907
 7448TIP3    H243760   4.553   2.544   3.741  0.1043  0.8130 -2.0549
 7449TIP3   OH243761   5.053   2.813  17.338  0.1471 -0.2691  0.5659
 7449TIP3    H143762   4.983   2.760  17.299 -0.1040 -1.1302  2.0958
 7449TIP3    H243763   5.056   2.893  17.285 -3.1279  0.5419  1.4402
 7450TIP3   OH243764   6.131   5.484   1.326 -0.2672 -0.0427  0.1163
 7450TIP3    H143765   6.167   5.572   1.336  0.7207 -0.5457  1.1994
 7450TIP3    H243766   6.156   5.438   1.406 -0.9453 -1.2578 -0.3347
 7451TIP3   OH243767   3.744   6.638  13.007  0.0158  0.6692 -0.2268
 7451TIP3    H143768   3.682   6.684  12.950  0.3423  0.4573 -0.7618
 7451TIP3    H243769   3.827   6.641  12.959 -0.5923 -3.3573 -1.9549
 7452TIP3   OH243770   6.333   0.609  16.455 -0.4905 -0.6375  0.1298
 7452TIP3    H143771   6.361   0.572  16.372  0.7953 -0.8424  0.6328
 7452TIP3    H243772   6.354   0.542  16.520  1.3134  0.6508  0.9819
 7453TIP3   OH243773   5.926   1.849  10.553 -0.4737 -0.0407  0.1487
 7453TIP3    H143774   5.957   1.760  10.566  0.4952  0.1818 -0.4640
 7453TIP3    H243775   5.999   1.904  10.583 -0.9154  0.5366  0.1880
 7454TIP3   OH243776   4.813   3.247  16.806 -0.3544 -0.7696 -0.1037
 7454TIP3    H143777   4.892   3.219  16.760  0.3899  1.2342 -0.1736
 7454TIP3    H243778   4.745   3.249  16.739  0.0973 -0.3415 -0.5553
 7455TIP3   OH243779   2.304   1.228   5.125  0.1247 -0.0530 -0.7257
 7455TIP3    H143780   2.271   1.158   5.068 -0.0576  0.4224 -1.2150
 7455TIP3    H243781   2.225   1.271   5.157  0.0763 -1.9321  2.0313
 7456TIP3   OH243782   0.564   0.159   1.343  0.0957  0.0219 -0.2990
 7456TIP3    H143783   0.477   0.174   1.379  0.0501 -0.1277 -0.3474
 7456TIP3    H243784   0.623   0.171   1.417 -0.0918 -1.6109  0.1508
 7457TIP3   OH243785   5.459   3.454   3.939  0.2170 -0.2005  0.4383
 7457TIP3    H143786   5.526   3.520   3.922  0.5156 -0.6747 -0.2901
 7457TIP3    H243787   5.508   3.380   3.976 -0.1351  0.0275  1.3821
 7458TIP3   OH243788   5.535   2.882   0.476  0.5951  0.3927 -0.1832
 7458TIP3    H143789   5.531   2.977   0.461 -0.0346  0.2151 -1.2595
 7458TIP3    H243790   5.444   2.858   0.496  0.9425  0.1730  1.2762
 7459TIP3   OH243791   3.787   1.451   6.206  0.0627  0.2843 -0.0614
 7459TIP3    H143792   3.812   1.536   6.242 -2.6104  1.3697 -0.4966
 7459TIP3    H243793   3.753   1.402   6.281  1.1619 -0.2670  0.1018
 7460TIP3   OH243794   0.622   1.124   2.379  0.1811  0.4997  0.0333
 7460TIP3    H143795   0.563   1.166   2.316  0.6309  0.4283 -0.4395
 7460TIP3    H243796   0.707   1.125   2.336  0.2086 -0.8710  0.0151
 7461TIP3   OH243797   5.977   3.375  14.888  0.4053 -0.5027 -0.4473
 7461TIP3    H143798   6.023   3.448  14.931  1.6372 -0.4400 -1.8081
 7461TIP3    H243799   5.922   3.338  14.958  0.4649  1.1134  0.5307
 7462TIP3   OH243800   2.642   2.148  10.906  0.0268 -0.4931  0.0510
 7462TIP3    H143801   2.723   2.119  10.864 -1.2094 -1.3209 -1.9519
 7462TIP3    H243802   2.658   2.238  10.932  1.4600 -0.5218 -0.6540
 7463TIP3   OH243803   3.598   1.999  12.806  0.1097  0.1139  0.1010
 7463TIP3    H143804   3.577   1.940  12.879 -1.3279  2.5510  1.7817
 7463TIP3    H243805   3.514   2.014  12.762  0.7004 -0.1283 -1.1350
 7464TIP3   OH243806   0.148   1.411   5.892 -0.4601  0.1017  0.3349
 7464TIP3    H143807   0.104   1.358   5.958 -0.7875  1.7893  1.5342
 7464TIP3    H243808   0.086   1.413   5.818 -0.6754 -0.7040  0.4853
 7465TIP3   OH243809   1.129   0.224  14.025  0.0046 -0.4983 -0.5315
 7465TIP3    H143810   1.218   0.253  14.043 -0.2082 -0.9425  1.4717
 7465TIP3    H243811   1.073   0.295  14.057 -0.3962 -1.2526  0.5139
 7466TIP3   OH243812   0.407   0.815   5.887 -0.6491 -0.0357 -0.0439
 7466TIP3    H143813   0.456   0.744   5.929 -0.4146 -0.6071 -1.2372
 7466TIP3    H243814   0.422   0.802   5.793 -0.9599  1.3420 -0.3084
 7467TIP3   OH243815   6.015   5.588   1.931  0.0108 -0.7191  0.1340
 7467TIP3    H143816   5.932   5.614   1.971 -0.1641 -0.5189 -0.3453
 7467TIP3    H243817   6.012   5.492   1.931  0.1576 -0.7261  0.8836
 7468TIP3   OH243818   3.853   5.261  10.756  0.3668 -0.1531 -0.3384
 7468TIP3    H143819   3.891   5.241  10.842 -1.0070 -0.8062  0.1464
 7468TIP3    H243820   3.906   5.334  10.723  1.6402 -0.6465  0.5533
 7469TIP3   OH243821   0.032   6.245  17.551  0.2919  0.3694 -0.3281
 7469TIP3    H143822   0.099   6.208  17.608  0.3923  0.4930 -0.3646
 7469TIP3    H243823   0.076   6.317  17.505 -0.4511  2.0103  1.3641
 7470TIP3   OH243824   6.273   1.706   3.465  0.0141  0.1954  0.3912
 7470TIP3    H143825   6.304   1.686   3.553 -1.5831  0.1092  0.9597
 7470TIP3    H243826   6.219   1.784   3.475  0.4140  0.6305 -0.6498
 7471TIP3   OH243827   2.998   0.115  11.970  0.4528 -0.0807 -0.0436
 7471TIP3    H143828   2.932   0.159  11.917  0.7268 -1.7656 -1.8930
 7471TIP3    H243829   3.072   0.100  11.910 -0.2138 -4.3632 -0.1412
 7472TIP3   OH243830   2.722   5.601  11.469  0.5279 -0.1336  0.4654
 7472TIP3    H143831   2.693   5.672  11.526  0.0687  0.1572 -0.1143
 7472TIP3    H243832   2.793   5.640  11.417 -0.0666  0.0674 -0.2116
 7473TIP3   OH243833   3.640   2.218   1.003  0.0093  0.6002 -0.6389
 7473TIP3    H143834   3.678   2.298   0.965 -0.0509  1.4651  1.0163
 7473TIP3    H243835   3.555   2.210   0.961  0.6908  0.4593 -2.0339
 7474TIP3   OH243836   2.781   5.484   3.462  0.0277  0.0624  0.0495
 7474TIP3    H143837   2.780   5.466   3.368 -1.4431  1.6272 -0.2685
 7474TIP3    H243838   2.690   5.478   3.489  0.0480  2.3638  0.7947
 7475TIP3   OH243839   6.496   3.998   2.131 -0.1674  0.2575 -0.4658
 7475TIP3    H143840   6.490   3.960   2.044  1.0183  1.4681 -1.1115
 7475TIP3    H243841   6.590   4.004   2.149 -0.3536  1.2044  0.3411
 7476TIP3   OH243842   5.231   1.743   4.543 -0.0564  0.2949 -0.0126
 7476TIP3    H143843   5.221   1.763   4.637 -0.9994 -1.0424  0.1977
 7476TIP3    H243844   5.245   1.829   4.503  2.7822  0.7082  1.5857
 7477TIP3   OH243845   4.382   2.117   2.137 -0.7493 -0.0252  0.4678
 7477TIP3    H143846   4.461   2.156   2.101 -0.2067  0.5105  2.1551
 7477TIP3    H243847   4.354   2.054   2.071 -0.5721  1.8055 -1.4796
 7478TIP3   OH243848   0.756   6.593  16.336 -0.0232  0.3851  0.0729
 7478TIP3    H143849   0.839   6.550  16.359  0.3444  0.6583 -0.6984
 7478TIP3    H243850   0.715   6.533  16.274  0.1485  0.7962 -0.4417
 7479TIP3   OH243851   6.106   5.567   3.126  0.2276  0.3469 -0.0723
 7479TIP3    H143852   6.091   5.662   3.117 -1.4011  0.0631 -0.6839
 7479TIP3    H243853   6.160   5.544   3.050 -0.4005  0.5905 -0.6005
 7480TIP3   OH243854   2.059   4.312   0.208 -0.4018  0.0634 -0.0279
 7480TIP3    H143855   2.098   4.270   0.284 -1.0325 -1.1851 -0.3660
 7480TIP3    H243856   2.112   4.391   0.194  0.7084 -0.5204  0.7407
 7481TIP3   OH243857   0.263   4.638  17.013 -0.1384  0.2673 -0.5315
 7481TIP3    H143858   0.176   4.661  16.981 -0.9399 -1.4329  0.3072
 7481TIP3    H243859   0.247   4.573  17.081  1.7516  0.5903  0.2875
 7482TIP3   OH243860   6.650   3.417  16.446 -0.9076 -0.0345  0.1229
 7482TIP3    H143861   6.704   3.339  16.431  0.2093  1.0019 -1.6400
 7482TIP3    H243862   6.675   3.477  16.376 -5.1558  0.1408 -1.5230
 7483TIP3   OH243863   3.909   5.658  17.394 -0.2866  0.2729  0.3776
 7483TIP3    H143864   3.925   5.743  17.435 -2.2488  0.0080  1.8110
 7483TIP3    H243865   3.986   5.605  17.417 -1.0653  0.2886  3.3961
 7484TIP3   OH243866   2.845   5.068   1.295 -0.0092  0.4697  0.5828
 7484TIP3    H143867   2.860   4.974   1.290  1.3812  0.6681  0.6562
 7484TIP3    H243868   2.835   5.095   1.204  1.1121  0.4619  0.4431
 7485TIP3   OH243869   0.027   4.515  16.424 -0.0350 -0.1232  0.4212
 7485TIP3    H143870   0.024   4.605  16.457 -0.2546 -0.0398  0.1719
 7485TIP3    H243871   0.115   4.506  16.388  0.9855 -0.8631  2.8660
 7486TIP3   OH243872   2.098   0.110  16.076  0.1375 -0.1979  0.3091
 7486TIP3    H143873   2.173   0.080  16.024  0.4571  1.3022 -0.1514
 7486TIP3    H243874   2.102   0.205  16.070 -0.6830 -0.0274  1.8952
 7487TIP3   OH243875   4.646   5.268  15.371  0.0717 -0.1049  0.5351
 7487TIP3    H143876   4.738   5.287  15.354 -0.0072  0.8345  1.1324
 7487TIP3    H243877   4.616   5.225  15.290  0.5356  1.3467 -0.4490
 7488TIP3   OH243878   0.026   2.639   1.378  0.2659 -0.4512  0.0330
 7488TIP3    H143879   0.109   2.601   1.408  0.8372  0.1308 -0.7422
 7488TIP3    H243880  -0.040   2.607   1.439  1.4284  1.1419  2.2766
 7489TIP3   OH243881   6.637   3.350  12.193  0.6108 -0.2954 -0.2931
 7489TIP3    H143882   6.605   3.359  12.103 -0.3577 -0.3996  0.0294
 7489TIP3    H243883   6.716   3.296  12.185 -0.4331 -1.7715 -0.8973
 7490TIP3   OH243884   5.769   6.194   1.975  0.1538 -0.0472 -0.0184
 7490TIP3    H143885   5.688   6.158   1.939  0.5510 -0.0845 -0.9158
 7490TIP3    H243886   5.751   6.206   2.068 -0.1005 -2.2570  0.2625
 7491TIP3   OH243887   3.231   4.366   4.285  0.5508  0.2703 -0.5038
 7491TIP3    H143888   3.294   4.298   4.310  0.7935  0.8050  0.4104
 7491TIP3    H243889   3.146   4.329   4.306  0.6635  0.1185 -0.3112
 7492TIP3   OH243890   4.142   2.056   3.016 -0.1443  0.1011 -0.1297
 7492TIP3    H143891   4.092   2.038   3.096 -0.4819  1.4162 -0.0201
 7492TIP3    H243892   4.115   2.145   2.990 -0.7048 -0.6078 -2.2016
 7493TIP3   OH243893   5.276   5.345  15.868  0.0602  0.3829  0.0641
 7493TIP3    H143894   5.233   5.261  15.885  1.9975 -0.5313  0.6807
 7493TIP3    H243895   5.248   5.400  15.942  0.8676 -0.5888  1.1389
 7494TIP3   OH243896   3.178   3.022  12.405  0.4938  0.6215  0.3363
 7494TIP3    H143897   3.237   3.072  12.349 -1.5239  0.8421 -1.7392
 7494TIP3    H243898   3.150   3.084  12.472  0.8006  1.1941 -0.0567
 7495TIP3   OH243899   4.050   1.408  11.263  0.7403  0.0909 -0.2250
 7495TIP3    H143900   4.074   1.401  11.171  0.2964 -1.3974 -0.2512
 7495TIP3    H243901   3.985   1.479  11.266  2.0622  1.3610 -0.7604
 7496TIP3   OH243902   5.313   1.863   3.761  0.0026 -0.1826  0.3032
 7496TIP3    H143903   5.363   1.875   3.680  0.9941  0.1748  0.9617
 7496TIP3    H243904   5.250   1.935   3.761  1.0953  0.8112  0.6442
 7497TIP3   OH243905   5.621   4.041   1.323  0.3442 -0.3331 -0.0005
 7497TIP3    H143906   5.632   4.135   1.307  0.0388 -0.0542  1.3158
 7497TIP3    H243907   5.584   4.007   1.242 -1.3292  1.0166  0.1524
 7498TIP3   OH243908   3.795   2.323  12.724 -0.0155 -0.1308 -0.1903
 7498TIP3    H143909   3.852   2.353  12.654 -1.3011 -0.3161 -1.3609
 7498TIP3    H243910   3.712   2.369  12.709 -0.9621 -1.7048 -0.0541
 7499TIP3   OH243911   2.456   5.709  12.228  0.3195  0.0888  0.3419
 7499TIP3    H143912   2.499   5.624  12.232 -0.6588 -0.3935  1.1365
 7499TIP3    H243913   2.428   5.726  12.318  1.9540  2.0530  0.5773
 7500TIP3   OH243914   0.360   1.118   1.776  0.0900 -0.6135 -0.0954
 7500TIP3    H143915   0.334   1.026   1.775  1.9646 -1.2080 -1.9684
 7500TIP3    H243916   0.307   1.159   1.708 -0.8389 -0.2300  0.8271
 7501TIP3   OH243917   0.149   1.652   6.013  0.6204  0.0036 -0.0669
 7501TIP3    H143918   0.172   1.574   5.962  0.1913 -0.3553  0.2847
 7501TIP3    H243919   0.126   1.618   6.099  2.9875  0.7306  0.9308
 7502TIP3   OH243920   5.283   4.416  17.273  0.3733 -0.0144  0.1297
 7502TIP3    H143921   5.296   4.473  17.349  2.0692 -0.4239  0.1855
 7502TIP3    H243922   5.223   4.464  17.217  0.1106  0.8722  1.1432
 7503TIP3   OH243923   0.701   3.014  14.079 -0.1608  0.4105 -0.6140
 7503TIP3    H143924   0.723   2.995  13.987  2.0418  1.5922 -0.4034
 7503TIP3    H243925   0.653   3.097  14.076 -0.0219  0.4882 -0.6981
 7504TIP3   OH243926   2.020   5.737   5.232 -0.3898 -0.2364  0.4789
 7504TIP3    H143927   1.935   5.755   5.272  0.4192  0.9746  1.7391
 7504TIP3    H243928   2.003   5.744   5.138 -1.3706  1.6749  0.7382
 7505TIP3   OH243929   4.458   6.624  17.359  0.4024 -0.4504  0.0186
 7505TIP3    H143930   4.486   6.543  17.316  1.5068 -0.1739  0.1930
 7505TIP3    H243931   4.540   6.668  17.383 -0.1849  0.0969  1.0920
 7506TIP3   OH243932   5.843   5.774   3.277 -0.4431  0.2262  0.1385
 7506TIP3    H143933   5.879   5.796   3.190 -1.9143  1.5531 -0.1892
 7506TIP3    H243934   5.766   5.721   3.258 -0.6226  0.3002  0.6482
 7507TIP3   OH243935   1.113   3.747  17.277 -0.1747  0.5400 -0.1334
 7507TIP3    H143936   1.167   3.669  17.268 -0.5943  0.3605 -1.2210
 7507TIP3    H243937   1.050   3.742  17.205 -0.4083  1.7268 -0.0385
 7508TIP3   OH243938   4.111   4.126   5.456 -0.6704  0.0639 -0.4205
 7508TIP3    H143939   4.026   4.170   5.450 -1.0959 -0.5435  0.8365
 7508TIP3    H243940   4.128   4.120   5.549 -0.4021 -1.9704 -0.5553
 7509TIP3   OH243941   4.284   3.793   2.665 -0.7075 -0.4204 -0.0738
 7509TIP3    H143942   4.312   3.844   2.741 -1.1502 -0.9366  0.4456
 7509TIP3    H243943   4.189   3.790   2.672 -0.6473 -2.1135  0.4389
 7510TIP3   OH243944   2.263   6.396   2.586 -0.2565  0.0448  0.5420
 7510TIP3    H143945   2.316   6.474   2.571  0.7187 -0.7392 -0.3265
 7510TIP3    H243946   2.289   6.365   2.673  1.3484 -0.7513 -0.1725
 7511TIP3   OH243947   1.290   4.151  16.065 -0.3948  0.4330 -0.3517
 7511TIP3    H143948   1.367   4.138  16.121 -0.9578  0.5481  0.4764
 7511TIP3    H243949   1.241   4.220  16.109 -0.5510  0.9678 -1.3333
 7512TIP3   OH243950   3.085   0.995  12.215  0.5345 -0.3868 -0.4194
 7512TIP3    H143951   3.109   0.911  12.175 -0.4951 -1.1264  0.4402
 7512TIP3    H243952   3.112   1.061  12.152  1.7370 -1.3448 -0.9433
 7513TIP3   OH243953   0.492   5.298   3.826  0.3460 -0.5609  0.4618
 7513TIP3    H143954   0.435   5.268   3.896  1.9086 -0.9181  1.6392
 7513TIP3    H243955   0.572   5.325   3.871  1.4548 -0.9484 -1.2162
 7514TIP3   OH243956   2.129   0.062  15.095 -0.0518 -0.3001 -0.3768
 7514TIP3    H143957   2.087   0.140  15.133  0.1595 -0.7928  0.9333
 7514TIP3    H243958   2.211   0.095  15.058 -0.4857  0.2772 -0.8450
 7515TIP3   OH243959   2.927   2.074   5.900  0.4398 -0.2521 -0.1108
 7515TIP3    H143960   2.944   2.157   5.945  2.5542 -0.6199 -0.1628
 7515TIP3    H243961   2.997   2.016   5.929 -0.1224 -1.5526 -1.2596
 7516TIP3   OH243962   5.708   2.402   0.084  0.3395 -0.2319  0.3967
 7516TIP3    H143963   5.670   2.341   0.021 -0.7709  0.5496  0.2953
 7516TIP3    H243964   5.732   2.478   0.032  1.1350 -0.3152  0.6300
 7517TIP3   OH243965   4.974   4.400  16.984  0.0919 -0.0106  0.2615
 7517TIP3    H143966   4.916   4.456  16.932 -0.8734  0.2650  1.5820
 7517TIP3    H243967   4.915   4.350  17.040  1.1256  0.4073  1.7766
 7518TIP3   OH243968   5.472   6.407   1.873  0.2768  0.0762 -0.0560
 7518TIP3    H143969   5.544   6.464   1.900  1.5936 -1.3986 -0.3427
 7518TIP3    H243970   5.508   6.319   1.874 -1.0459 -0.5678 -1.7869
 7519TIP3   OH243971   1.725   0.500   5.110  0.0040 -0.0600 -0.0800
 7519TIP3    H143972   1.654   0.539   5.162 -0.6592 -0.0838 -0.9471
 7519TIP3    H243973   1.797   0.563   5.117 -0.1146 -0.0036  0.7587
 7520TIP3   OH243974   5.390   0.877  14.503  0.1457 -0.3479  0.7342
 7520TIP3    H143975   5.394   0.971  14.520 -0.1864 -0.4568  1.4463
 7520TIP3    H243976   5.301   0.863  14.469  0.4798 -0.2819 -0.1963
 7521TIP3   OH243977   0.408   2.633   5.823 -0.1235 -0.2635 -0.1307
 7521TIP3    H143978   0.325   2.673   5.851 -0.7218 -0.4293 -1.5511
 7521TIP3    H243979   0.463   2.707   5.800  0.3019 -0.1339  1.2084
 7522TIP3   OH243980   6.591   5.051   3.644  0.6081 -0.4071 -0.0020
 7522TIP3    H143981   6.641   5.038   3.724  1.7790 -2.4919 -0.9961
 7522TIP3    H243982   6.652   5.092   3.583 -0.3333  1.3584  0.1583
 7523TIP3   OH243983   4.595   4.521   5.190  0.9936 -0.2575 -1.1922
 7523TIP3    H143984   4.537   4.549   5.260  1.5539  0.7428 -1.1180
 7523TIP3    H243985   4.672   4.485   5.235  0.8300 -0.7487 -1.2948
 7524TIP3   OH243986   1.943   2.333  12.832  0.1847 -0.4553  0.0197
 7524TIP3    H143987   1.930   2.425  12.854  1.0113 -0.2069 -0.4862
 7524TIP3    H243988   1.876   2.315  12.765  1.3023  0.3591 -1.3790
 7525TIP3   OH243989   5.278   2.434   0.258 -0.2099 -0.4661  0.4534
 7525TIP3    H143990   5.234   2.427   0.174 -3.0025  2.4819  1.4513
 7525TIP3    H243991   5.268   2.348   0.298  0.6096 -1.7318 -1.8829
 7526TIP3   OH243992   1.550   4.616  13.324  0.0190  0.1516 -0.2879
 7526TIP3    H143993   1.558   4.663  13.241  1.5832  0.9275  0.2592
 7526TIP3    H243994   1.626   4.644  13.375 -0.3514 -1.0927  1.0239
 7527TIP3   OH243995   5.962   5.695  16.158 -0.7504 -0.1541  0.2590
 7527TIP3    H143996   6.031   5.642  16.198 -1.5542 -0.3385  1.4527
 7527TIP3    H243997   5.894   5.699  16.225 -1.0566  1.6916 -0.1203
 7528TIP3   OH243998   1.126   1.546   4.045 -0.1443 -0.6025 -0.1043
 7528TIP3    H143999   1.164   1.560   4.132  0.1307  0.8034 -0.4356
 7528TIP3    H244000   1.189   1.487   4.002  1.2277  0.9435 -0.3132
 7529TIP3   OH244001   6.637   3.232   4.477 -0.2728 -0.0134 -0.1850
 7529TIP3    H144002   6.701   3.209   4.410  0.6278 -1.2395  1.0383
 7529TIP3    H244003   6.552   3.220   4.434  0.2964  0.4542 -1.4685
 7530TIP3   OH244004   1.516   3.035   0.959  0.1016 -0.0910 -0.2003
 7530TIP3    H144005   1.500   3.115   0.909 -0.7321 -1.9339 -3.1133
 7530TIP3    H244006   1.456   2.971   0.920  1.1381 -2.2927  1.6499
 7531TIP3   OH244007   1.938   4.924  16.570  0.2819  0.0584 -0.2804
 7531TIP3    H144008   1.906   4.850  16.519  1.9737 -0.5196 -0.5808
 7531TIP3    H244009   1.978   4.982  16.505 -0.2910  0.8379  0.0514
 7532TIP3   OH244010   6.661   2.764  12.312 -0.0552  0.6667  0.7132
 7532TIP3    H144011   6.712   2.697  12.267  0.0146  1.8132 -0.9760
 7532TIP3    H244012   6.623   2.718  12.387 -0.8084 -1.5377 -0.9044
 7533TIP3   OH244013   4.309   0.537  14.174 -0.1712  0.1282 -0.1252
 7533TIP3    H144014   4.295   0.525  14.268 -0.8548  2.1571  0.0830
 7533TIP3    H244015   4.222   0.556  14.139  0.2000  0.1820 -1.0403
 7534TIP3   OH244016   4.631   5.812  17.250  0.5083 -0.0811 -0.3078
 7534TIP3    H144017   4.646   5.884  17.190 -1.0829  1.7581  1.3462
 7534TIP3    H244018   4.676   5.838  17.330 -2.0383  0.3671  1.1079
 7535TIP3   OH244019   3.312   6.228  14.384 -0.4086 -0.1026 -0.4198
 7535TIP3    H144020   3.358   6.188  14.457  1.6246 -0.3863 -1.7551
 7535TIP3    H244021   3.247   6.163  14.357  1.3881 -1.6754 -1.2013
 7536TIP3   OH244022   5.995   1.928  17.070 -0.4766 -0.0210  0.4592
 7536TIP3    H144023   6.041   2.008  17.047 -1.3567  0.5184  0.5535
 7536TIP3    H244024   6.026   1.864  17.006  0.1739  0.3984  0.3393
 7537TIP3   OH244025   6.075   0.237   5.793 -0.6417  0.2069  0.2829
 7537TIP3    H144026   6.094   0.267   5.704 -0.4570 -0.1565  0.1998
 7537TIP3    H244027   5.982   0.257   5.805 -0.3839  1.3786  0.4513
 7538TIP3   OH244028   2.063   3.784  15.399  0.1719  0.6332 -0.3743
 7538TIP3    H144029   2.047   3.867  15.354  0.1654  0.8949  0.1006
 7538TIP3    H244030   2.045   3.717  15.333  0.1953  1.0082 -0.7677
 7539TIP3   OH244031   1.653   3.666   5.048  0.1758  0.1069 -0.3054
 7539TIP3    H144032   1.614   3.720   4.979 -0.3923 -0.6652 -0.6193
 7539TIP3    H244033   1.671   3.582   5.004  2.0463  0.3797 -0.1203
 7540TIP3   OH244034   2.648   1.731   1.712 -0.3261 -0.6307 -0.1477
 7540TIP3    H144035   2.562   1.703   1.742  0.2543 -1.2065  1.0757
 7540TIP3    H244036   2.697   1.650   1.701  0.3132 -0.2721  0.0122
 7541TIP3   OH244037   4.560   4.509  11.968 -0.4300  0.1524  0.2809
 7541TIP3    H144038   4.652   4.484  11.965  0.2363  2.3869  0.5091
 7541TIP3    H244039   4.528   4.492  11.880  0.7175  1.0236 -0.3386
 7542TIP3   OH244040   3.981   0.859  14.749  0.3233 -0.3384 -0.9741
 7542TIP3    H144041   3.967   0.766  14.766  1.1990 -0.7021 -2.1058
 7542TIP3    H244042   4.009   0.863  14.658  0.6161  1.0088 -0.8513
 7543TIP3   OH244043   0.114   0.871  11.557 -0.1947 -0.8481  0.5994
 7543TIP3    H144044   0.129   0.871  11.652 -0.7120  2.7335  0.7964
 7543TIP3    H244045   0.181   0.928  11.522 -1.4328 -0.2387 -0.8981
 7544TIP3   OH244046   2.169   4.961  14.685 -0.3084  0.0204 -0.0975
 7544TIP3    H144047   2.140   4.917  14.765 -2.4265  2.1726  0.4480
 7544TIP3    H244048   2.263   4.970  14.695  0.1954 -3.7504 -0.0200
 7545TIP3   OH244049   1.831   3.005   3.745 -0.1805 -0.5317 -0.5301
 7545TIP3    H144050   1.782   3.043   3.671  1.8882  2.0401 -0.7223
 7545TIP3    H244051   1.854   3.080   3.800  1.1406 -1.9821  1.0169
 7546TIP3   OH244052   1.444   3.392  10.962 -0.5272 -0.1127 -0.1461
 7546TIP3    H144053   1.369   3.333  10.964  0.1077 -0.9105  0.4122
 7546TIP3    H244054   1.497   3.361  10.888 -0.1269 -0.3459  0.2288
 7547TIP3   OH244055   6.365   3.547  11.506 -0.1430 -0.2042  0.7178
 7547TIP3    H144056   6.280   3.588  11.493  0.2617  0.3075 -0.4279
 7547TIP3    H244057   6.385   3.505  11.423  0.5592 -0.6278  1.0924
 7548TIP3   OH244058   1.888   2.038   4.915 -0.1242  0.0956  0.2664
 7548TIP3    H144059   1.980   2.064   4.923  0.0737 -0.5997  0.3562
 7548TIP3    H244060   1.863   2.011   5.004 -0.0551 -0.8381  0.0192
 7549TIP3   OH244061   4.276   4.849  16.287 -0.4036  0.3688 -0.2255
 7549TIP3    H144062   4.330   4.852  16.366 -1.7519 -1.1618  0.8500
 7549TIP3    H244063   4.214   4.777  16.304 -3.1268  2.3271 -1.0988
 7550TIP3   OH244064   6.455   3.034   1.592 -0.8144  0.1171 -0.3852
 7550TIP3    H144065   6.446   2.938   1.596 -0.8231  0.1612  1.5140
 7550TIP3    H244066   6.378   3.063   1.543 -0.9633 -0.8262 -0.7305
 7551TIP3   OH244067   2.419   5.466   4.010  0.0309 -0.5644  0.1110
 7551TIP3    H144068   2.487   5.422   3.958  0.3317  1.5362 -1.3736
 7551TIP3    H244069   2.464   5.489   4.092  1.8334  2.4173 -1.5306
 7552TIP3   OH244070   6.538   0.998  14.211 -0.3419  0.0886  0.3982
 7552TIP3    H144071   6.466   0.980  14.272 -0.0364 -0.2152  0.6776
 7552TIP3    H244072   6.511   0.955  14.130 -0.3145 -0.3353  0.6100
 7553TIP3   OH244073   2.396   3.819  15.475  0.0334 -0.1485  0.4458
 7553TIP3    H144074   2.343   3.885  15.519 -0.3371 -0.3075  0.2434
 7553TIP3    H244075   2.389   3.742  15.530  1.5822  0.3713  1.4087
 7554TIP3   OH244076   0.704   1.788   3.321 -0.1789  0.0805 -0.3374
 7554TIP3    H144077   0.775   1.768   3.259  0.4835 -0.2200  0.4966
 7554TIP3    H244078   0.680   1.704   3.359  2.9386  0.6418  3.5266
 7555TIP3   OH244079   5.868   5.763  12.798  0.0138 -0.5971  0.1977
 7555TIP3    H144080   5.952   5.718  12.810 -0.6145 -1.5799  1.1888
 7555TIP3    H244081   5.848   5.755  12.705  1.4583  0.4976 -0.2389
 7556TIP3   OH244082   0.845   5.616  14.179  0.0996  0.2148  0.0134
 7556TIP3    H144083   0.902   5.666  14.120 -0.5427  1.0216  0.0511
 7556TIP3    H244084   0.786   5.568  14.120 -0.7826  1.3052 -0.0256
 7557TIP3   OH244085   6.316   3.205  12.025 -0.0193  0.4842 -0.6854
 7557TIP3    H144086   6.283   3.294  12.010  0.4971  0.6329 -0.9611
 7557TIP3    H244087   6.408   3.209  12.001 -0.2566 -0.4112 -1.8346
 7558TIP3   OH244088   0.664   2.198  11.330 -0.2507  0.0793 -0.7856
 7558TIP3    H144089   0.757   2.185  11.349 -0.2095 -0.6237 -1.4519
 7558TIP3    H244090   0.659   2.285  11.292  0.0140  0.4693  0.0537
 7559TIP3   OH244091   2.125   5.258   1.845  0.2199 -0.1560  0.4214
 7559TIP3    H144092   2.165   5.339   1.815  0.3802  0.3911  2.0007
 7559TIP3    H244093   2.032   5.281   1.858  0.2218 -0.2785  0.6616
 7560TIP3   OH244094   3.546   5.002  16.493 -0.0876  0.0995  0.5568
 7560TIP3    H144095   3.604   5.004  16.569 -0.5726 -2.0289  1.0307
 7560TIP3    H244096   3.511   5.091  16.487  1.1023  0.6908  1.9116
 7561TIP3   OH244097   3.941   5.724  13.850  0.5169 -0.0651  0.0933
 7561TIP3    H144098   3.970   5.637  13.878  0.4713 -0.7464 -1.8799
 7561TIP3    H244099   3.889   5.708  13.772 -1.2898  1.5791  0.8841
 7562TIP3   OH244100   6.058   0.126  16.177  0.0326  0.2031  0.5693
 7562TIP3    H144101   6.045   0.067  16.102 -2.6647  1.3128  0.0508
 7562TIP3    H244102   6.080   0.068  16.249  1.2192 -1.0431 -0.7288
 7563TIP3   OH244103   4.113   3.338   6.598 -0.0134  0.1800 -0.1757
 7563TIP3    H144104   4.063   3.302   6.672 -1.2295 -1.6942 -1.7995
 7563TIP3    H244105   4.129   3.429   6.622 -3.5998  0.7006  0.8099
 7564TIP3   OH244106   4.111   2.992  16.588  0.3823  0.1204  0.0042
 7564TIP3    H144107   4.167   3.000  16.666 -0.0131  0.5217  0.2520
 7564TIP3    H244108   4.121   2.901  16.560  2.1469  0.4954 -0.7075
 7565TIP3   OH244109   1.032   4.568   1.109  0.0581  0.0598 -0.0299
 7565TIP3    H144110   1.015   4.656   1.144 -0.8675  0.1476 -0.6637
 7565TIP3    H244111   1.066   4.584   1.021  0.5336 -0.2091  0.1029
 7566TIP3   OH244112   0.036   2.755  14.396 -0.0923  0.3928 -0.8459
 7566TIP3    H144113   0.101   2.788  14.458  0.0843 -0.4520 -0.5694
 7566TIP3    H244114  -0.044   2.747  14.447 -0.5396  1.7962 -1.2788
 7567TIP3   OH244115   4.664   1.383  15.818  0.3177 -0.0052 -0.1347
 7567TIP3    H144116   4.696   1.448  15.881  0.6861  0.1959 -0.5221
 7567TIP3    H244117   4.693   1.299  15.853 -1.6282 -0.1486  1.2709
 7568TIP3   OH244118   4.440   4.042   4.456 -0.1028 -0.1675 -0.3806
 7568TIP3    H144119   4.513   4.058   4.396  0.3587 -2.0735 -0.3988
 7568TIP3    H244120   4.375   4.108   4.434  1.5794  1.5557 -0.3982
 7569TIP3   OH244121   6.460   2.309   0.615 -0.0542 -0.4110  0.2353
 7569TIP3    H144122   6.499   2.331   0.530 -0.0795 -0.2780  0.2577
 7569TIP3    H244123   6.423   2.222   0.603  0.2066 -0.5179  0.1977
 7570TIP3   OH244124   2.715   4.507   3.633 -0.3823 -0.8387 -0.3151
 7570TIP3    H144125   2.731   4.590   3.588 -0.3820  0.6595  2.2066
 7570TIP3    H244126   2.800   4.464   3.637 -0.0041 -0.0889 -0.1006
 7571TIP3   OH244127   3.378   5.057   3.704  0.5751  0.4903  0.1727
 7571TIP3    H144128   3.387   4.966   3.734  0.5669 -0.4015 -2.2925
 7571TIP3    H244129   3.464   5.096   3.722  0.6335 -0.0243  1.1085
 7572TIP3   OH244130   2.730   6.674   1.981 -0.1892 -0.3158 -0.1583
 7572TIP3    H144131   2.639   6.692   2.005 -0.9721 -0.6009 -2.6126
 7572TIP3    H244132   2.765   6.626   2.055 -2.6574 -1.9614  0.0814
 7573TIP3   OH244133   4.118   1.143   4.175 -0.2138 -0.1030  0.0962
 7573TIP3    H144134   4.026   1.166   4.169 -0.1100  0.2092 -0.3449
 7573TIP3    H244135   4.146   1.131   4.084  0.2611  0.1439  0.2042
 7574TIP3   OH244136   5.765   4.888   1.315  0.7038 -0.0197  0.1127
 7574TIP3    H144137   5.836   4.905   1.377  1.5646  1.3389 -1.1628
 7574TIP3    H244138   5.794   4.928   1.233 -1.8812  1.3816 -0.2503
 7575TIP3   OH244139   3.510   5.765  15.417  0.4363  0.1721 -0.1395
 7575TIP3    H144140   3.427   5.717  15.422 -0.7212  1.9506 -1.2060
 7575TIP3    H244141   3.518   5.809  15.502 -0.1070  0.5897 -0.2992
 7576TIP3   OH244142   5.068   5.136  17.276  0.2374 -0.3655 -0.7516
 7576TIP3    H144143   4.994   5.176  17.231  0.6533  0.4932 -0.6897
 7576TIP3    H244144   5.032   5.108  17.360  0.1738  0.8549 -0.3515
 7577TIP3   OH244145   6.577   0.217   5.069  0.4418 -0.4628 -0.0396
 7577TIP3    H144146   6.577   0.194   4.976 -1.5162  1.4127 -0.5821
 7577TIP3    H244147   6.496   0.266   5.082  1.3352  0.5406  2.3645
 7578TIP3   OH244148   5.419   6.572   3.330 -0.6555 -0.1690  0.0433
 7578TIP3    H144149   5.337   6.523   3.318 -0.2806 -0.6603 -0.6029
 7578TIP3    H244150   5.443   6.557   3.421 -1.1477 -0.2530  0.1596
 7579TIP3   OH244151   5.055   1.691   5.740  0.0460  0.5241  0.1207
 7579TIP3    H144152   5.113   1.657   5.808 -2.2296  0.8917  2.3762
 7579TIP3    H244153   5.082   1.643   5.661  0.9745 -2.0458  1.8368
 7580TIP3   OH244154   5.899   4.596  13.055 -0.6259  0.1173  0.4775
 7580TIP3    H144155   5.976   4.569  13.105 -1.2532 -1.1896  0.7709
 7580TIP3    H244156   5.825   4.564  13.107 -1.3256 -0.0569 -0.6049
 7581TIP3   OH244157   5.074   4.698  15.683  0.7672  0.0831 -0.2066
 7581TIP3    H144158   5.088   4.626  15.621  1.6914 -0.8636  1.0400
 7581TIP3    H244159   5.005   4.750  15.643  0.7896 -0.9121 -1.6594
 7582TIP3   OH244160   2.464   0.186  13.550 -0.5704 -0.0064 -0.0509
 7582TIP3    H144161   2.451   0.105  13.601 -1.8354  1.6457  2.4678
 7582TIP3    H244162   2.559   0.196  13.544 -0.3880 -1.6836 -0.4718
 7583TIP3   OH244163   1.196   0.791  17.364  0.0564  0.4086  0.0126
 7583TIP3    H144164   1.210   0.871  17.313 -2.4603 -0.7650 -2.8136
 7583TIP3    H244165   1.163   0.728  17.301  1.4776 -2.8149  2.2074
 7584TIP3   OH244166   1.356   1.139   3.268  0.1261  0.2381  0.3089
 7584TIP3    H144167   1.303   1.182   3.334  0.5254  1.0003  0.1431
 7584TIP3    H244168   1.310   1.057   3.250 -0.4089  0.3904  0.9452
 7585TIP3   OH244169   6.054   2.877   4.604  0.4291 -0.1143  0.3004
 7585TIP3    H144170   6.136   2.925   4.614 -0.0569  1.1109 -1.2797
 7585TIP3    H244171   6.057   2.841   4.515  0.0734 -1.7283  0.8942
 7586TIP3   OH244172   2.369   3.581  11.917 -0.2503  0.1664 -0.2843
 7586TIP3    H144173   2.330   3.511  11.969  0.1303 -1.5321 -2.1304
 7586TIP3    H244174   2.304   3.651  11.917 -1.2339 -0.7140  0.5541
 7587TIP3   OH244175   4.929   5.072  13.362  0.2271 -0.3721  0.2959
 7587TIP3    H144176   4.919   4.977  13.354  1.3644 -0.3331 -2.5202
 7587TIP3    H244177   5.019   5.084  13.392  0.1520 -0.1704  0.4395
 7588TIP3   OH244178   5.420   3.165   4.189 -0.4440 -0.0622 -0.0236
 7588TIP3    H144179   5.507   3.204   4.182 -0.3135 -0.3282  0.1016
 7588TIP3    H244180   5.410   3.114   4.109  0.5837 -2.1661  1.0884
 7589TIP3   OH244181   1.574   4.136   4.760  0.6603  0.4046  0.1923
 7589TIP3    H144182   1.547   4.085   4.683  0.5699  0.1200  0.4076
 7589TIP3    H244183   1.504   4.200   4.772 -1.5411 -2.2082  2.5087
 7590TIP3   OH244184   4.040   2.264  14.474  0.0332 -0.0415 -0.4491
 7590TIP3    H144185   4.003   2.341  14.430 -1.1786 -0.2170  0.2033
 7590TIP3    H244186   4.107   2.232  14.414  0.2982  1.2973 -0.9077
 7591TIP3   OH244187   6.680   5.549   1.370  0.5309 -0.1690  0.3940
 7591TIP3    H144188   6.701   5.607   1.296  3.2704  0.1322  1.3197
 7591TIP3    H244189   6.688   5.461   1.334 -1.2338 -0.0494 -0.3984
 7592TIP3   OH244190   2.612   1.841   3.168 -0.2297  0.0446 -0.2737
 7592TIP3    H144191   2.558   1.850   3.246 -0.7046  0.2385 -0.6137
 7592TIP3    H244192   2.697   1.878   3.192  0.2099 -1.5195  0.7080
 7593TIP3   OH244193   5.443   1.574   0.513  0.2808  0.3122  0.1466
 7593TIP3    H144194   5.402   1.503   0.463  2.4860 -1.2765  0.4462
 7593TIP3    H244195   5.491   1.625   0.448 -0.0837  0.6373  0.1309
 7594TIP3   OH244196   4.803   1.462   4.913  0.5857  0.4518  0.5671
 7594TIP3    H144197   4.731   1.501   4.865  0.7815  0.5793  0.3777
 7594TIP3    H244198   4.761   1.403   4.976  0.3897 -2.3942 -2.0249
 7595TIP3   OH244199   3.954   2.585  13.837 -0.0354  0.5635  0.0481
 7595TIP3    H144200   4.026   2.641  13.807  0.6529 -1.0683 -1.4847
 7595TIP3    H244201   3.974   2.498  13.802 -2.6213 -0.0062 -0.2398
 7596TIP3   OH244202   6.165   5.365  16.708  0.2035  0.1307 -0.4636
 7596TIP3    H144203   6.221   5.443  16.718  2.1495 -1.4240  2.1136
 7596TIP3    H244204   6.226   5.295  16.687 -1.2602 -1.1124 -0.7239
 7597TIP3   OH244205   5.514   2.723   1.040 -0.5370 -0.0923 -0.0813
 7597TIP3    H144206   5.438   2.702   0.986 -1.7793  1.4225  0.9584
 7597TIP3    H244207   5.539   2.811   1.012  0.8483 -0.5593 -0.3821
 7598TIP3   OH244208   3.054   6.334  11.443 -0.5491  0.0075 -0.0363
 7598TIP3    H144209   3.042   6.362  11.352  1.0673  0.8417 -0.0276
 7598TIP3    H244210   3.072   6.240  11.437 -0.8532 -0.0180 -0.5498
 7599TIP3   OH244211   2.107   3.605   1.727  0.3307  0.1598 -0.4016
 7599TIP3    H144212   2.064   3.680   1.766 -0.0427 -1.2690  2.1577
 7599TIP3    H244213   2.083   3.609   1.634 -1.2010  2.1210  0.0174
 7600TIP3   OH244214   6.467   4.373  14.037 -0.9363 -0.2543  0.3947
 7600TIP3    H144215   6.392   4.337  14.084 -0.7313 -0.8773  0.2475
 7600TIP3    H244216   6.436   4.381  13.946 -1.0023  0.0059  0.4380
 7601TIP3   OH244217   1.511   5.257  10.813 -0.8448 -0.2024  0.5254
 7601TIP3    H144218   1.574   5.293  10.751 -1.0752 -0.3532  0.1994
 7601TIP3    H244219   1.468   5.186  10.765 -1.9828  0.5497  0.3751
 7602TIP3   OH244220   2.871   5.302   0.390 -0.6043  0.2182  0.7307
 7602TIP3    H144221   2.909   5.330   0.474  0.1629 -1.7669  1.1026
 7602TIP3    H244222   2.823   5.222   0.411  0.1963 -0.7108 -0.8255
 7603TIP3   OH244223   3.024   3.302   1.638  0.7662  0.7247 -0.0765
 7603TIP3    H144224   3.068   3.387   1.644  1.2419  0.5006 -0.3040
 7603TIP3    H244225   3.043   3.271   1.550 -0.0733  0.7329 -0.2661
 7604TIP3   OH244226   2.034   2.137   6.061  0.1585 -0.1279 -0.4082
 7604TIP3    H144227   1.984   2.061   6.091 -1.0200  0.0796 -1.7511
 7604TIP3    H244228   2.088   2.161   6.136 -1.0517 -0.9551  0.7714
 7605TIP3   OH244229   5.092   5.190   1.959 -0.3438  0.2585  0.0003
 7605TIP3    H144230   5.020   5.245   1.929 -1.5580 -1.0755  0.3450
 7605TIP3    H244231   5.091   5.199   2.054  0.1183  0.4515 -0.0150
 7606TIP3   OH244232   2.022   1.747  12.430 -0.1519 -0.0662 -0.0956
 7606TIP3    H144233   2.041   1.797  12.509  1.5549 -1.1632  0.2288
 7606TIP3    H244234   1.934   1.711  12.445  0.4063 -0.8229  1.6385
 7607TIP3   OH244235   4.762   3.193   2.971 -0.7685  0.3935  0.1880
 7607TIP3    H144236   4.826   3.263   2.986  0.2422 -0.5003  0.1362
 7607TIP3    H244237   4.678   3.232   2.996 -0.2308  1.6346  0.1159
 7608TIP3   OH244238   5.691   3.859   5.794  0.0378  0.1583 -0.3186
 7608TIP3    H144239   5.723   3.834   5.881 -1.5066 -0.8893 -0.0097
 7608TIP3    H244240   5.688   3.955   5.797 -0.9222  0.1118  1.1601
 7609TIP3   OH244241   4.035   3.910   2.220  0.9930 -0.1779 -0.1893
 7609TIP3    H144242   4.083   3.978   2.173 -0.2479  0.9060  0.0808
 7609TIP3    H244243   4.103   3.847   2.245  2.1951  1.0119 -0.3346
 7610TIP3   OH244244   4.939   1.805  11.742  0.6346  0.3841  0.0740
 7610TIP3    H144245   4.908   1.774  11.656 -0.8576 -1.4285  1.1711
 7610TIP3    H244246   4.904   1.893  11.749 -1.6902 -0.4463 -0.1003
 7611TIP3   OH244247   0.074   4.500  12.485  0.6290  0.8136  0.2231
 7611TIP3    H144248   0.107   4.516  12.573 -1.0178 -0.0074  1.0441
 7611TIP3    H244249   0.149   4.464  12.437  1.1887 -0.1081  1.7129
 7612TIP3   OH244250   1.524   2.636   3.648 -0.0172  0.1975 -0.2932
 7612TIP3    H144251   1.558   2.613   3.735  1.4561  0.0003 -0.8880
 7612TIP3    H244252   1.467   2.563   3.625 -0.0924  0.0505  0.3374
 7613TIP3   OH244253   2.047   0.017   1.525  0.3691 -0.2708  0.4129
 7613TIP3    H144254   2.000   0.093   1.560 -0.5951 -0.4848 -0.3807
 7613TIP3    H244255   2.013  -0.057   1.575 -0.6382 -0.5083 -0.5670
 7614TIP3   OH244256   3.359   4.520  12.644  0.1169  0.3410  0.2465
 7614TIP3    H144257   3.264   4.521  12.662 -0.4820 -0.7757 -2.4335
 7614TIP3    H244258   3.385   4.612  12.647 -1.6465  0.9679 -1.5303
 7615TIP3   OH244259   2.845   2.313   4.248  0.1130 -0.0085 -0.2206
 7615TIP3    H144260   2.757   2.284   4.274  1.5011 -2.1784  2.5529
 7615TIP3    H244261   2.874   2.245   4.186  0.5944 -0.4674  0.4998
 7616TIP3   OH244262   0.239   2.422  13.556 -0.0016 -0.2908  0.3470
 7616TIP3    H144263   0.191   2.424  13.473 -1.9659  0.5827  1.4579
 7616TIP3    H244264   0.271   2.511  13.567 -0.6856 -0.1336  1.0617
 7617TIP3   OH244265   1.115   3.688  14.990 -0.2902  0.8597 -0.2269
 7617TIP3    H144266   1.178   3.728  14.930 -0.3291 -0.6881 -1.3498
 7617TIP3    H244267   1.030   3.702  14.949 -0.3296 -0.0961 -0.4955
 7618TIP3   OH244268   3.467   2.341   5.340  0.6888  0.3200 -0.1445
 7618TIP3    H144269   3.554   2.370   5.368  1.3146 -1.0692 -0.5821
 7618TIP3    H244270   3.452   2.259   5.387 -0.2957  0.4153 -0.2600
 7619TIP3   OH244271   0.560   5.613   4.563 -0.0321 -0.1842  0.5591
 7619TIP3    H144272   0.501   5.671   4.514 -0.3279 -1.4698 -0.6707
 7619TIP3    H244273   0.643   5.661   4.566 -0.8735  1.2924  1.6074
 7620TIP3   OH244274   1.752   5.556   0.188 -0.2554  0.4481 -0.5635
 7620TIP3    H144275   1.773   5.532   0.098  0.9218  2.3588 -0.8543
 7620TIP3    H244276   1.834   5.540   0.236 -0.1674  1.6018 -0.3186
 7621TIP3   OH244277   6.302   5.506  14.083  0.1028 -0.0649  0.0830
 7621TIP3    H144278   6.366   5.464  14.140 -2.5803 -0.6735  2.9088
 7621TIP3    H244279   6.307   5.599  14.106 -0.2139 -0.1564  0.5376
 7622TIP3   OH244280   6.119   6.222  11.470  0.0754 -0.1178 -0.0714
 7622TIP3    H144281   6.113   6.172  11.389 -1.7579  1.0641 -0.7191
 7622TIP3    H244282   6.184   6.290  11.451  2.7574 -2.2214  0.8883
 7623TIP3   OH244283   0.685   5.776   3.305 -0.1070  0.2774 -0.4685
 7623TIP3    H144284   0.735   5.737   3.234 -1.6754 -0.2878 -1.3152
 7623TIP3    H244285   0.668   5.704   3.365  0.3105  0.5222 -0.0532
 7624TIP3   OH244286   3.369   5.448   4.879 -0.0443 -0.0849 -0.2137
 7624TIP3    H144287   3.444   5.506   4.895 -0.4315  0.3110  0.1886
 7624TIP3    H244288   3.381   5.376   4.940 -0.3491  0.3232  0.3413
 7625TIP3   OH244289   4.245   6.046   0.149  0.4966  0.1661 -0.0474
 7625TIP3    H144290   4.153   6.023   0.138  0.9403 -1.9820  0.3755
 7625TIP3    H244291   4.244   6.116   0.216 -0.8316  0.4747 -0.3592
 7626TIP3   OH244292   6.098   5.386  13.147 -0.8075  0.1167  0.8764
 7626TIP3    H144293   6.109   5.424  13.234  0.0108 -1.8454  1.6860
 7626TIP3    H244294   6.132   5.297  13.155 -2.3467 -0.7159 -0.9849
 7627TIP3   OH244295   3.886   1.249   4.102 -0.0159  0.1739  0.2032
 7627TIP3    H144296   3.817   1.188   4.128 -1.6351  1.2057 -1.4690
 7627TIP3    H244297   3.880   1.253   4.007  2.2544  0.4736  0.0041
 7628TIP3   OH244298   6.026   2.826   6.524 -0.0183  0.6000 -0.0643
 7628TIP3    H144299   5.941   2.814   6.567 -0.5084  2.8393 -0.2726
 7628TIP3    H244300   6.074   2.883   6.584  0.7146  0.6929 -0.7306
 7629TIP3   OH244301   1.883   4.877  13.166  0.3596  0.1932 -0.0092
 7629TIP3    H144302   1.796   4.865  13.129  0.2252  0.0227  0.3541
 7629TIP3    H244303   1.890   4.971  13.182 -0.8500 -0.0765  2.5416
 7630TIP3   OH244304   3.644   6.712   0.832 -0.1201 -0.2911 -0.0266
 7630TIP3    H144305   3.652   6.640   0.770 -1.2213 -1.4642  1.1447
 7630TIP3    H244306   3.693   6.683   0.909  0.3568  0.7004  0.0599
 7631TIP3   OH244307   2.594   5.475   6.480  0.3458 -0.0599 -0.2347
 7631TIP3    H144308   2.645   5.402   6.445 -0.7763 -2.0293  1.8919
 7631TIP3    H244309   2.511   5.434   6.507 -0.7083  2.2138  0.1724
 7632TIP3   OH244310   4.558   3.402   5.916 -0.0335  0.4874  0.0818
 7632TIP3    H144311   4.525   3.312   5.914 -1.4871  0.9519  1.4316
 7632TIP3    H244312   4.631   3.400   5.976 -1.6065  0.6280  2.1050
 7633TIP3   OH244313   4.820   4.701   2.282  0.0849 -0.3705 -0.2437
 7633TIP3    H144314   4.848   4.747   2.203 -3.0965  0.7806 -0.8664
 7633TIP3    H244315   4.773   4.624   2.249 -1.4249  0.2085  0.4577
 7634TIP3   OH244316   0.198   6.147   0.116  0.0373 -0.7229 -0.1558
 7634TIP3    H144317   0.173   6.080   0.180 -0.6316 -0.4357 -0.1076
 7634TIP3    H244318   0.253   6.207   0.165 -0.0771 -0.7656  0.0288
 7635TIP3   OH244319   6.138   0.206   4.289 -0.1871 -0.3193  0.3959
 7635TIP3    H144320   6.056   0.249   4.312  1.2508  0.8546  4.2030
 7635TIP3    H244321   6.202   0.278   4.282  0.9496 -1.3463 -0.1760
 7636TIP3   OH244322   2.844   0.950   5.461  0.3323  0.0066 -0.2970
 7636TIP3    H144323   2.819   1.030   5.507  0.7940  0.9591 -1.6291
 7636TIP3    H244324   2.888   0.896   5.527  2.2370  1.9198  0.0741
 7637TIP3   OH244325   3.322   6.586  12.311 -0.4927  0.8632 -0.0279
 7637TIP3    H144326   3.275   6.601  12.392 -1.6179 -3.0120  0.2338
 7637TIP3    H244327   3.280   6.643  12.247 -1.4794  1.8811  1.4760
 7638TIP3   OH244328   4.988   2.713  13.256 -0.6079  0.3931 -0.2139
 7638TIP3    H144329   5.028   2.634  13.291  0.5952  1.6310  1.3357
 7638TIP3    H244330   4.933   2.747  13.327 -1.2959  0.8406 -0.9324
 7639TIP3   OH244331   3.894   0.569   1.928 -0.4359  0.4002  0.2368
 7639TIP3    H144332   3.965   0.597   1.869 -0.0134  0.8124  0.9203
 7639TIP3    H244333   3.905   0.624   2.006 -1.0859 -0.0197  0.6335
 7640TIP3   OH244334   0.363   4.853  11.615 -0.0349  0.5130  0.0192
 7640TIP3    H144335   0.282   4.839  11.565  1.1438  0.9192 -2.1578
 7640TIP3    H244336   0.335   4.859  11.706 -2.3114 -0.4460 -0.5538
 7641TIP3   OH244337   0.973   5.330  15.033 -0.5595 -0.3804  0.2086
 7641TIP3    H144338   1.052   5.318  15.085 -0.6994 -2.0023  0.0911
 7641TIP3    H244339   0.903   5.335  15.098 -0.3275  2.0209  0.3744
 7642TIP3   OH244340   3.612   4.269  11.959  0.2229 -0.5714 -0.3310
 7642TIP3    H144341   3.574   4.311  11.882 -1.0366 -2.8342 -1.0141
 7642TIP3    H244342   3.546   4.280  12.027  0.3082 -0.6227 -0.2396
 7643TIP3   OH244343   0.085   6.033  16.721  0.0152  0.3652  0.0427
 7643TIP3    H144344   0.092   5.981  16.801  0.3401  0.0285 -0.1982
 7643TIP3    H244345   0.145   6.106  16.735  0.4323  0.0521 -0.0796
 7644TIP3   OH244346   5.630   6.413  16.425  0.3112  0.2245  0.0308
 7644TIP3    H144347   5.640   6.368  16.509 -0.0173  2.2544  1.2353
 7644TIP3    H244348   5.720   6.426  16.394  0.4075 -1.2038 -0.3347
 7645TIP3   OH244349   3.760   6.602   1.071 -0.2169  0.7393 -0.0158
 7645TIP3    H144350   3.748   6.638   1.160 -0.2285  0.4571  0.0972
 7645TIP3    H244351   3.840   6.644   1.039  0.7590 -0.4479  0.7846
 7646TIP3   OH244352   0.147   5.113   3.149 -0.2104 -0.8561 -0.3680
 7646TIP3    H144353   0.161   5.150   3.061  1.1418 -0.2882  0.0603
 7646TIP3    H244354   0.230   5.127   3.194 -1.3344  0.1313  1.4777
 7647TIP3   OH244355   4.700   0.207  17.544 -0.1126 -0.1889  0.4739
 7647TIP3    H144356   4.686   0.162  17.460 -2.2462  0.8769  0.1940
 7647TIP3    H244357   4.612   0.215  17.581  0.3856  2.2148  1.2923
 7648TIP3   OH244358   1.007   4.408  13.096 -0.0036  0.2158  0.6186
 7648TIP3    H144359   0.951   4.455  13.158 -2.9028 -0.7624 -1.0641
 7648TIP3    H244360   0.964   4.419  13.011  1.5801 -1.8533 -0.5565
 7649TIP3   OH244361   1.388   2.235  13.392  0.1008  0.1552 -0.2231
 7649TIP3    H144362   1.413   2.224  13.300  2.2776 -1.0858  0.4356
 7649TIP3    H244363   1.433   2.164  13.438  0.7683  1.9274  2.0803
 7650TIP3   OH244364   2.883   3.009  11.877 -0.2971  0.1626 -0.1816
 7650TIP3    H144365   2.956   2.947  11.872 -0.0846  0.2815  1.0867
 7650TIP3    H244366   2.822   2.969  11.939 -0.7934  0.5825 -0.3951
 7651TIP3   OH244367   3.882   3.761  11.354 -0.4407  0.0936 -0.2164
 7651TIP3    H144368   3.893   3.804  11.269 -0.6869 -0.4581 -0.5329
 7651TIP3    H244369   3.960   3.787  11.404 -1.3541  2.2338  0.2017
 7652TIP3   OH244370   1.009   5.488   1.654  0.3250  0.3781  0.0913
 7652TIP3    H144371   1.097   5.525   1.653  0.7476 -0.5807 -1.2809
 7652TIP3    H244372   0.959   5.542   1.593 -0.0833  0.9990  0.9631
 7653TIP3   OH244373   4.602   1.824   1.023  0.6279  0.4307  0.6660
 7653TIP3    H144374   4.523   1.877   1.011  0.1379 -0.4026  0.1339
 7653TIP3    H244375   4.592   1.784   1.109 -0.3622 -1.0310 -0.1105
 7654TIP3   OH244376   4.717   1.959   1.772  0.1900 -0.1122  0.2020
 7654TIP3    H144377   4.716   1.926   1.682 -0.6555 -1.1482  0.5672
 7654TIP3    H244378   4.672   2.043   1.768 -0.0461 -0.2599 -0.3122
 7655TIP3   OH244379   0.295   1.681   5.152  0.2857 -0.2421 -0.3168
 7655TIP3    H144380   0.233   1.754   5.151  0.6855  0.1234  0.6150
 7655TIP3    H244381   0.334   1.681   5.065 -1.1805 -0.6320 -1.0123
 7656TIP3   OH244382   4.745   0.691   2.735 -0.0040  0.4712  0.0601
 7656TIP3    H144383   4.707   0.706   2.822  1.3575  1.3193  0.5365
 7656TIP3    H244384   4.783   0.603   2.740 -2.0887 -0.5204 -0.5245
 7657TIP3   OH244385   3.141   1.009  13.641  0.4821 -0.0719  0.1982
 7657TIP3    H144386   3.095   1.066  13.703  0.5603 -0.8920  1.0423
 7657TIP3    H244387   3.165   1.066  13.569  0.3181  0.9049  0.8937
 7658TIP3   OH244388   2.491   1.252   6.788  0.3562 -0.0809 -0.3540
 7658TIP3    H144389   2.498   1.335   6.836 -0.0042  0.5773 -1.3975
 7658TIP3    H244390   2.570   1.249   6.733  0.3695 -0.4376 -0.3190
 7659TIP3   OH244391   3.264   3.952  15.465  0.0430  0.0385 -0.2974
 7659TIP3    H144392   3.201   4.024  15.466  1.0467  0.9421  0.5852
 7659TIP3    H244393   3.213   3.876  15.437 -0.9839  1.1227 -1.5182
 7660TIP3   OH244394   6.089   2.003   2.112 -0.1041  0.1983  0.6055
 7660TIP3    H144395   6.114   2.003   2.204 -1.8644  0.4793  1.1194
 7660TIP3    H244396   6.028   1.929   2.103  0.6575 -0.3257 -0.5255
 7661TIP3   OH244397   5.566   6.649  16.557 -0.1420  0.1090 -0.1554
 7661TIP3    H144398   5.595   6.724  16.506 -0.0719  0.1005 -0.1275
 7661TIP3    H244399   5.587   6.573  16.502  2.1109 -0.0905  0.8275
 7662TIP3   OH244400   3.619   3.786  12.241  0.0444  0.2313  0.1123
 7662TIP3    H144401   3.614   3.812  12.333  0.3124  0.4627  0.0600
 7662TIP3    H244402   3.636   3.867  12.194 -1.1765  0.2962 -0.2534
 7663TIP3   OH244403   2.002   0.851  13.817 -0.0259  0.3898  0.2579
 7663TIP3    H144404   2.035   0.919  13.759 -0.5491 -0.1354 -0.6727
 7663TIP3    H244405   2.066   0.847  13.888  2.2274 -0.9011 -1.6876
 7664TIP3   OH244406   5.420   6.431   4.486  0.1586  0.3605  0.0705
 7664TIP3    H144407   5.336   6.448   4.529  0.6476 -0.9921  1.7129
 7664TIP3    H244408   5.400   6.428   4.393 -1.2472  1.9510  0.2803
 7665TIP3   OH244409   4.525   0.790  12.185 -0.2682 -0.1307 -0.7032
 7665TIP3    H144410   4.437   0.807  12.217 -0.4160 -2.1179  0.1206
 7665TIP3    H244411   4.578   0.784  12.264  0.5009  0.4399 -1.1598
 7666TIP3   OH244412   0.430   1.041  14.776  0.1369 -0.4163  0.7659
 7666TIP3    H144413   0.502   1.038  14.839  1.7272 -1.7087 -0.9997
 7666TIP3    H244414   0.420   1.134  14.756  2.7409 -0.2786 -0.3818
 7667TIP3   OH244415   4.040   1.915   3.228  0.2063  0.4118 -0.0819
 7667TIP3    H144416   4.064   1.931   3.319 -0.4329  1.1547 -0.0299
 7667TIP3    H244417   3.977   1.843   3.232  1.6760 -0.9168 -0.1370
 7668TIP3   OH244418   0.305   2.949   0.505  0.0960 -0.3083 -0.1968
 7668TIP3    H144419   0.277   2.972   0.416  2.2765  3.4105 -0.0940
 7668TIP3    H244420   0.268   3.018   0.560  0.4152 -1.4711  1.5495
 7669TIP3   OH244421   6.387   1.762  16.941  0.2700  0.1227 -0.0774
 7669TIP3    H144422   6.352   1.738  17.027  1.5020  1.7207  0.9281
 7669TIP3    H244423   6.338   1.840  16.916  0.8290  0.4313 -0.2087
 7670TIP3   OH244424   6.215   3.906   3.380 -0.7741 -0.1170  0.2288
 7670TIP3    H144425   6.267   3.962   3.438 -0.2641 -1.7362  1.4184
 7670TIP3    H244426   6.263   3.823   3.378 -1.7415 -0.6733 -1.1112
 7671TIP3   OH244427   1.268   3.976   3.221 -0.6825  0.4272 -0.1376
 7671TIP3    H144428   1.183   3.935   3.236 -0.6526  0.5389  0.3288
 7671TIP3    H244429   1.329   3.928   3.277 -0.5483  0.7411 -0.0101
 7672TIP3   OH244430   6.345   6.023   2.955  0.4113 -0.0375  0.2798
 7672TIP3    H144431   6.344   6.055   2.865 -3.4427 -0.1254  0.0996
 7672TIP3    H244432   6.331   5.929   2.947 -0.0041 -0.0392  0.9551
 7673TIP3   OH244433   3.390   5.247   5.228 -0.0546 -0.3416  0.5142
 7673TIP3    H144434   3.370   5.331   5.269 -1.3463  0.1577 -1.0396
 7673TIP3    H244435   3.342   5.183   5.280 -0.9348  0.1681  0.3373
 7674TIP3   OH244436   2.524   4.423  11.563 -0.3034  0.2071 -0.4401
 7674TIP3    H144437   2.525   4.331  11.589  0.6869 -0.0283 -1.2249
 7674TIP3    H244438   2.454   4.429  11.498  0.3051 -0.2314 -1.1511
 7675TIP3   OH244439   2.332   3.828   5.040 -1.2499 -0.3809  0.5548
 7675TIP3    H144440   2.377   3.872   5.112  1.6272  1.5593 -2.1753
 7675TIP3    H244441   2.242   3.860   5.045 -0.0536  3.4006  0.6363
 7676TIP3   OH244442   6.411   5.990   4.253  0.1386  0.0932  0.2414
 7676TIP3    H144443   6.505   5.977   4.269 -0.1588 -0.1957  2.0467
 7676TIP3    H244444   6.406   6.045   4.175  1.8102  0.2961  0.2543
 7677TIP3   OH244445   5.609   6.622  13.169 -0.3365 -0.3072 -0.1756
 7677TIP3    H144446   5.526   6.651  13.207 -0.2394 -0.7599  0.4092
 7677TIP3    H244447   5.607   6.654  13.079 -0.9678  0.0333 -0.0485
 7678TIP3   OH244448   1.363   3.016   0.047  0.1565 -0.4404 -0.0862
 7678TIP3    H144449   1.347   2.941   0.104 -0.5892  1.1331  1.8743
 7678TIP3    H244450   1.415   3.076   0.100 -2.0622  1.8677 -0.3152
 7679TIP3   OH244451   5.050   4.336  12.603  0.1199 -0.1323  0.2668
 7679TIP3    H144452   5.000   4.416  12.619 -0.0250 -0.3824  1.1327
 7679TIP3    H244453   4.984   4.271  12.578  0.5316  0.8735 -4.3273
 7680TIP3   OH244454   1.601   3.632  17.426 -0.0811  0.0768 -0.4380
 7680TIP3    H144455   1.547   3.711  17.427 -1.1203 -0.6019 -1.0421
 7680TIP3    H244456   1.572   3.581  17.502 -0.6738 -0.5252 -1.0550
 7681TIP3   OH244457   1.493   5.214   0.955  0.2734  0.2226 -0.6123
 7681TIP3    H144458   1.400   5.219   0.929  0.3303  0.1582 -0.8320
 7681TIP3    H244459   1.507   5.123   0.978  0.0419  0.4185  0.3419
 7682TIP3   OH244460   4.282   4.146   5.242  0.0784 -0.2519  0.2062
 7682TIP3    H144461   4.234   4.149   5.325 -0.1560  1.6152  0.0466
 7682TIP3    H244462   4.247   4.069   5.197  1.0273 -1.9783  2.2897
 7683TIP3   OH244463   2.640   4.796   4.825 -0.7216 -0.2258 -0.4992
 7683TIP3    H144464   2.553   4.808   4.862 -0.7850  0.9632 -0.9800
 7683TIP3    H244465   2.626   4.797   4.730  0.0378  2.5844 -0.6886
 7684TIP3   OH244466   1.949   4.229  12.301 -0.2751 -0.6792 -0.5075
 7684TIP3    H144467   1.922   4.310  12.344 -0.9751 -1.4454  0.5608
 7684TIP3    H244468   2.043   4.222  12.318 -0.3413 -0.4207 -0.0365
 7685TIP3   OH244469   0.367   4.603   3.434 -0.1919 -0.2291  0.0531
 7685TIP3    H144470   0.370   4.678   3.493 -2.2365 -0.3265  0.3584
 7685TIP3    H244471   0.306   4.630   3.365 -0.6663 -1.4693 -0.0318
 7686TIP3   OH244472   6.656   0.999   0.302  0.1674  0.1266  0.2021
 7686TIP3    H144473   6.632   0.924   0.356  1.1235 -0.8381 -0.6636
 7686TIP3    H244474   6.645   1.075   0.359 -1.9606 -0.5147  0.7624
 7687TIP3   OH244475   4.192   4.473   5.221  0.3760 -0.0170  0.1047
 7687TIP3    H144476   4.119   4.480   5.283 -0.0648 -0.8685 -0.2970
 7687TIP3    H244477   4.174   4.540   5.155  0.6366  0.6255  0.6721
 7688TIP3   OH244478   1.148   6.656   2.844  0.0127  0.6351  0.7038
 7688TIP3    H144479   1.179   6.745   2.861  1.5763 -0.2413  2.8252
 7688TIP3    H244480   1.056   6.657   2.869 -0.3773  1.9346 -0.5843
 7689TIP3   OH244481   4.137   4.857  11.555  0.1880  0.9119  0.5207
 7689TIP3    H144482   4.188   4.900  11.487  0.4044  0.6920  0.5419
 7689TIP3    H244483   4.045   4.875  11.532  0.1927 -0.3597 -0.6370
 7690TIP3   OH244484   5.366   2.899  16.223  1.2089  0.0230 -0.0498
 7690TIP3    H144485   5.439   2.941  16.268  0.4856  1.4640 -0.1627
 7690TIP3    H244486   5.405   2.860  16.145  1.7958  1.2171 -0.3752
 7691TIP3   OH244487   5.418   5.252   2.001  0.1264 -0.5385  0.2918
 7691TIP3    H144488   5.344   5.195   2.019  0.1301 -1.4827 -2.2658
 7691TIP3    H244489   5.478   5.238   2.075 -2.1356  0.2407  2.4122
 7692TIP3   OH244490   1.903   5.248  12.400  0.2232  0.6462  0.1418
 7692TIP3    H144491   1.821   5.269  12.355  0.9937  1.1325 -1.0905
 7692TIP3    H244492   1.966   5.312  12.368  1.1142  0.2383  1.0073
 7693TIP3   OH244493   1.086   5.118  14.427 -0.1907 -0.7994  0.1386
 7693TIP3    H144494   1.059   5.166  14.505  1.1121 -0.1735  0.2369
 7693TIP3    H244495   1.140   5.180  14.378  0.8567 -1.8818 -0.1376
 7694TIP3   OH244496   2.162   1.913  14.583 -0.2879 -0.0908  0.0929
 7694TIP3    H144497   2.147   2.006  14.567  0.9424  0.5929  2.4468
 7694TIP3    H244498   2.079   1.881  14.619  0.3718  1.1080  2.9540
 7695TIP3   OH244499   6.203   2.272   3.263  0.0875 -0.8924 -0.3276
 7695TIP3    H144500   6.184   2.183   3.234  2.8073 -1.4985 -0.6049
 7695TIP3    H244501   6.262   2.306   3.195 -1.0888  1.2310 -0.3508
 7696TIP3   OH244502   4.631   3.261  17.347 -0.3669 -0.3328 -0.6326
 7696TIP3    H144503   4.579   3.341  17.345 -1.8166 -1.2179 -0.2768
 7696TIP3    H244504   4.710   3.281  17.298  0.8920  2.3664  2.1737
 7697TIP3   OH244505   2.071   0.410  12.686 -0.3916 -0.1412  0.2732
 7697TIP3    H144506   2.051   0.390  12.594 -0.8083 -0.9605  0.5239
 7697TIP3    H244507   2.155   0.367  12.702 -0.5510 -0.4154  0.3958
 7698TIP3   OH244508   3.604   2.842   1.078  0.0649  0.1689  0.2557
 7698TIP3    H144509   3.559   2.820   1.160  0.6345  1.4380  0.9283
 7698TIP3    H244510   3.536   2.880   1.022 -0.2269 -0.2838  0.2935
 7699TIP3   OH244511   5.440   2.005  11.965  0.5476 -0.4840 -0.1627
 7699TIP3    H144512   5.437   2.022  12.060  0.1263  0.7680 -0.3780
 7699TIP3    H244513   5.369   1.943  11.950  0.4955 -0.5440  0.3208
 7700TIP3   OH244514   0.195   3.677  11.876 -0.0121 -0.3953  0.3886
 7700TIP3    H144515   0.130   3.684  11.946 -2.3886 -0.1198 -1.6717
 7700TIP3    H244516   0.211   3.768  11.849 -0.4073 -0.5625 -0.4604
 7701TIP3   OH244517   4.487   1.609   5.886  0.7497 -0.2856  0.2783
 7701TIP3    H144518   4.439   1.537   5.928  1.3131  0.0020  1.4525
 7701TIP3    H244519   4.575   1.604   5.923  1.0995  0.3556 -0.4391
 7702TIP3   OH244520   4.888   0.618  11.154  0.2039 -0.4355  0.4798
 7702TIP3    H144521   4.847   0.608  11.240 -2.4850  0.5906 -0.5519
 7702TIP3    H244522   4.897   0.713  11.142  0.1177 -0.5382 -0.5147
 7703TIP3   OH244523   5.665   5.366  13.527  0.2198 -0.1775  0.6287
 7703TIP3    H144524   5.598   5.430  13.504  0.0267 -0.6753 -0.2542
 7703TIP3    H244525   5.691   5.389  13.616 -1.0564  0.0842  0.9560
 7704TIP3   OH244526   0.224   5.779  15.970  0.4050 -0.2093  0.1929
 7704TIP3    H144527   0.187   5.853  16.019 -1.5559 -0.3079 -1.0478
 7704TIP3    H244528   0.201   5.796  15.879  1.0288 -1.7240 -0.2820
 7705TIP3   OH244529   2.298   5.808  13.008 -0.4275 -0.0499  0.4693
 7705TIP3    H144530   2.341   5.893  13.000 -0.8439  0.0937 -0.3327
 7705TIP3    H244531   2.349   5.749  12.952  0.2476 -0.4958  1.5214
 7706TIP3   OH244532   5.570   1.952  15.622  0.1667 -0.5045 -0.3179
 7706TIP3    H144533   5.628   1.876  15.625  0.3259 -0.3575  0.3246
 7706TIP3    H244534   5.555   1.966  15.528  0.7848 -0.8291 -0.4737
 7707TIP3   OH244535   3.031   5.842   0.120 -0.5169  0.0643  0.0987
 7707TIP3    H144536   3.120   5.827   0.090  0.1323 -0.9871  2.3722
 7707TIP3    H244537   3.041   5.880   0.207 -2.1059 -4.6404  2.6930
 7708TIP3   OH244538   2.852   1.856   4.927 -0.3658 -0.4695  0.1446
 7708TIP3    H144539   2.938   1.842   4.966  0.2486 -0.9346 -1.3181
 7708TIP3    H244540   2.821   1.938   4.965  0.4313 -0.6335  1.1710
 7709TIP3   OH244541   2.506   3.807  16.259 -0.3848  0.1468  0.6512
 7709TIP3    H144542   2.487   3.883  16.204  2.0086  0.0508 -0.4362
 7709TIP3    H244543   2.502   3.840  16.348  2.2173  2.0835  0.1782
 7710TIP3   OH244544   4.987   6.441   5.667  0.2479 -1.0152  0.7388
 7710TIP3    H144545   4.971   6.528   5.631  0.4295 -0.0089  2.8990
 7710TIP3    H244546   5.081   6.426   5.652  0.0160 -1.3002 -0.5174
 7711TIP3   OH244547   4.236   4.607  10.984 -0.0147 -0.3319  0.1411
 7711TIP3    H144548   4.149   4.592  10.946 -0.7164  0.2190  1.4735
 7711TIP3    H244549   4.224   4.683  11.041  1.1147 -0.8461  1.1029
 7712TIP3   OH244550   6.524   4.855   5.757 -0.6451  0.4587 -0.1933
 7712TIP3    H144551   6.553   4.778   5.707  0.3808 -0.3253  1.5295
 7712TIP3    H244552   6.428   4.847   5.759 -0.5208 -1.6314  1.1580
 7713TIP3   OH244553   0.608   4.433  12.744 -0.2684 -0.1127  0.3710
 7713TIP3    H144554   0.569   4.505  12.694  1.1557 -0.2065 -0.9667
 7713TIP3    H244555   0.539   4.404  12.803 -0.8148  2.5393  1.1937
 7714TIP3   OH244556   6.071   6.643  14.573  0.8382  0.2272  0.9053
 7714TIP3    H144557   6.071   6.701  14.497  0.1874 -0.8080  0.0850
 7714TIP3    H244558   6.162   6.642  14.602  1.2615  0.0298 -0.3592
 7715TIP3   OH244559   5.043   6.641   3.601  0.3978 -0.2592 -0.2548
 7715TIP3    H144560   5.045   6.545   3.604 -2.6499 -0.4154  0.4145
 7715TIP3    H244561   4.987   6.662   3.527 -0.8004  0.8959  0.9256
 7716TIP3   OH244562   4.263   6.223   4.548 -0.0838  0.3179  0.8334
 7716TIP3    H144563   4.308   6.188   4.625  0.6390 -0.6527  0.0046
 7716TIP3    H244564   4.196   6.281   4.583  0.6485  0.3889  2.1704
 7717TIP3   OH244565   2.834   3.634  14.123  0.5447  0.1427 -0.7116
 7717TIP3    H144566   2.855   3.619  14.031  2.3349  1.2444 -0.5254
 7717TIP3    H244567   2.841   3.729  14.135 -1.7691  0.2942  0.1211
 7718TIP3   OH244568   2.323   6.027  14.300 -0.8621  0.3128  0.2477
 7718TIP3    H144569   2.237   6.069  14.312  0.4342  2.3425  5.1796
 7718TIP3    H244570   2.314   5.941  14.342 -0.7056  0.1870  0.0242
 7719TIP3   OH244571   5.556   2.560  16.625 -0.5363  0.0678 -0.6666
 7719TIP3    H144572   5.598   2.632  16.672  0.0565 -0.4238 -0.4159
 7719TIP3    H244573   5.554   2.488  16.689 -0.5881 -0.3139 -1.0936
 7720TIP3   OH244574   2.298   1.448   3.652  0.6735  0.5359  0.4721
 7720TIP3    H144575   2.356   1.395   3.596  0.4162  2.2480 -1.5219
 7720TIP3    H244576   2.308   1.410   3.739 -1.2990 -4.3524 -1.1074
 7721TIP3   OH244577   3.793   6.522   2.247 -0.4216 -0.1514  0.4810
 7721TIP3    H144578   3.716   6.569   2.216 -0.1525 -0.5979 -0.8981
 7721TIP3    H244579   3.829   6.478   2.170  0.2079 -1.3920  1.4288
 7722TIP3   OH244580   6.066   0.115   4.041 -0.1179 -0.0601  0.1922
 7722TIP3    H144581   6.112   0.152   4.116 -2.2135 -0.6163  1.8507
 7722TIP3    H244582   6.013   0.187   4.007  1.2934  0.3740 -1.2531
 7723TIP3   OH244583   5.558   3.244   5.454  0.1101  0.4813  0.1287
 7723TIP3    H144584   5.545   3.183   5.382  3.0274 -0.6398  0.4299
 7723TIP3    H244585   5.651   3.237   5.475 -0.0481  2.9702  2.0649
 7724TIP3   OH244586   4.363   2.851   4.467  0.1737  0.0142 -0.7077
 7724TIP3    H144587   4.319   2.935   4.454 -1.1772 -0.1375  2.2464
 7724TIP3    H244588   4.293   2.787   4.466  0.8994 -0.7968 -0.4368
 7725TIP3   OH244589   2.057   2.941  17.113  0.4532  0.4411  0.0107
 7725TIP3    H144590   2.021   2.912  17.197  0.4617  1.6487  0.4584
 7725TIP3    H244591   2.056   2.863  17.058  2.3671 -0.9238  1.7444
 7726TIP3   OH244592   4.933   2.830  11.682  0.3633  0.0716 -0.0818
 7726TIP3    H144593   4.921   2.746  11.726 -0.1703 -0.2100 -0.7489
 7726TIP3    H244594   4.987   2.811  11.606 -0.1337  0.2432 -0.4868
 7727TIP3   OH244595   1.194   3.233  13.282 -0.0808 -0.1464  0.7057
 7727TIP3    H144596   1.137   3.277  13.345 -0.9892 -0.3518  0.0505
 7727TIP3    H244597   1.273   3.212  13.331 -0.0216  1.3461  1.2932
 7728TIP3   OH244598   5.556   5.600  13.970  0.1658 -0.4218 -0.2653
 7728TIP3    H144599   5.622   5.634  14.030 -0.7616  0.9320  0.0444
 7728TIP3    H244600   5.478   5.591  14.024 -0.4013 -0.1760 -1.0242
 7729TIP3   OH244601   5.367   2.413  17.304  0.6701  0.2974 -0.3522
 7729TIP3    H144602   5.315   2.351  17.356  1.5445 -0.5929 -0.5067
 7729TIP3    H244603   5.302   2.462  17.254 -0.0564 -0.5049 -0.2217
 7730TIP3   OH244604   5.530   3.022  15.451  0.3972 -0.2623  0.2312
 7730TIP3    H144605   5.559   2.932  15.432 -0.8213 -0.6557  0.1519
 7730TIP3    H244606   5.591   3.053  15.519 -0.8124 -2.1488  2.3038
 7731TIP3   OH244607   5.427   5.766  16.781 -0.3167  0.1137  0.3900
 7731TIP3    H144608   5.429   5.721  16.866 -0.4816 -0.0614  0.3011
 7731TIP3    H244609   5.514   5.750  16.744 -0.3670 -0.1129  0.3684
 7732TIP3   OH244610   2.078   1.594   0.183 -0.5617 -0.3075  0.1995
 7732TIP3    H144611   2.026   1.656   0.132 -1.3851 -1.4111 -0.3561
 7732TIP3    H244612   2.169   1.612   0.159 -0.7372  0.9854  0.4265
 7733TIP3   OH244613   5.441   3.078  14.472 -0.2762 -0.2998 -0.4964
 7733TIP3    H144614   5.393   3.045  14.395  1.0177 -1.2115 -0.9481
 7733TIP3    H244615   5.409   3.025  14.545 -0.3250 -0.5590 -0.7058
 7734TIP3   OH244616   3.951   1.529   3.233  0.1226 -0.2910  0.3447
 7734TIP3    H144617   3.873   1.475   3.222  0.3802 -0.3517 -1.6176
 7734TIP3    H244618   3.918   1.612   3.269 -0.4468 -1.2215  2.0599
 7735TIP3   OH244619   1.930   4.369  11.688  0.4221  0.3557  0.2291
 7735TIP3    H144620   1.866   4.439  11.688  0.9572  0.8645 -0.5912
 7735TIP3    H244621   1.920   4.328  11.602  1.8724  1.0936 -0.3217
 7736TIP3   OH244622   1.615   1.503  17.364  0.2998  0.0138 -0.2996
 7736TIP3    H144623   1.584   1.414  17.382  1.8748 -0.5978 -0.3843
 7736TIP3    H244624   1.621   1.544  17.450  0.0187 -0.1221 -0.2149
 7737TIP3   OH244625   0.214   2.198   0.480  0.4075 -0.0332 -0.2203
 7737TIP3    H144626   0.262   2.201   0.397 -0.4144 -2.2766 -0.8604
 7737TIP3    H244627   0.235   2.112   0.516 -1.1146 -0.0307  0.7274
 7738TIP3   OH244628   4.963   6.492   1.718 -0.1601 -0.0035 -0.2743
 7738TIP3    H144629   4.937   6.408   1.680  0.0740  0.1596 -0.8120
 7738TIP3    H244630   5.058   6.488   1.723 -0.2522 -0.6838  1.8927
 7739TIP3   OH244631   1.650   1.917  16.218  0.3414  0.3762  0.4266
 7739TIP3    H144632   1.746   1.910  16.221  0.3330  0.1703  0.2390
 7739TIP3    H244633   1.627   1.884  16.131 -0.0432 -1.3142  1.1470
 7740TIP3   OH244634   3.215   3.615   4.559 -0.0876 -0.3022 -0.8394
 7740TIP3    H144635   3.207   3.693   4.614  0.4443 -0.7683 -0.0766
 7740TIP3    H244636   3.300   3.624   4.516 -1.0741  0.7296 -2.6939
 7741TIP3   OH244637   0.189   6.377   1.181 -0.3013 -0.2201 -0.2456
 7741TIP3    H144638   0.212   6.447   1.120  1.2919  1.4771  2.0855
 7741TIP3    H244639   0.093   6.381   1.186 -0.3360  0.8384 -1.2706
 7742TIP3   OH244640   2.431   0.276   0.374  0.0548  0.0554 -0.4620
 7742TIP3    H144641   2.434   0.366   0.341 -0.8659  0.9877  1.7478
 7742TIP3    H244642   2.516   0.239   0.351  0.8401  1.8358 -0.6048
 7743TIP3   OH244643   0.342   0.240  15.960  0.1568  0.2213 -0.0140
 7743TIP3    H144644   0.385   0.266  15.878 -0.0916  0.4416 -0.0758
 7743TIP3    H244645   0.319   0.323  16.002 -1.2839  0.1205 -0.5494
 7744TIP3   OH244646   5.552   6.531   3.588  0.0230  0.5185  0.4047
 7744TIP3    H144647   5.610   6.605   3.575 -0.0620  0.2700 -1.9420
 7744TIP3    H244648   5.492   6.559   3.657  0.5025  2.3149  0.1491
 7745TIP3   OH244649   3.299   0.774  16.775  0.0672  0.0993 -0.5651
 7745TIP3    H144650   3.363   0.821  16.723 -0.2534  1.2268  0.0124
 7745TIP3    H244651   3.218   0.780  16.725 -0.0261  0.3812 -0.3875
 7746TIP3   OH244652   4.794   0.021  11.436  0.4457 -0.4389  0.5492
 7746TIP3    H144653   4.779  -0.022  11.520  0.9438  0.1364  0.9394
 7746TIP3    H244654   4.721   0.082  11.428  0.0290 -0.9651  0.2414
 7747TIP3   OH244655   5.355   4.067   5.892 -0.5282 -0.3943  0.1037
 7747TIP3    H144656   5.388   3.980   5.916 -0.6113 -0.5760 -0.4307
 7747TIP3    H244657   5.341   4.111   5.976  1.0131 -0.3341  0.3530
 7748TIP3   OH244658   1.097   5.631   5.457  0.1439  0.3696  0.5674
 7748TIP3    H144659   1.156   5.602   5.526  0.4037  1.6052  0.8937
 7748TIP3    H244660   1.065   5.550   5.416  1.5527 -0.3347  0.8117
 7749TIP3   OH244661   2.442   1.209  16.714 -0.3122  0.1529  0.1843
 7749TIP3    H144662   2.385   1.191  16.789  0.8464 -0.4927  0.9297
 7749TIP3    H244663   2.522   1.161  16.733  0.6241  1.3328 -0.6892
 7750TIP3   OH244664   1.916   0.253  13.914 -0.1448 -0.3419 -0.1721
 7750TIP3    H144665   2.005   0.228  13.889 -0.0496 -0.9117  0.6692
 7750TIP3    H244666   1.926   0.295  13.999 -0.6555 -0.2064 -0.1758
 7751TIP3   OH244667   5.443   0.806   2.917  0.0451  0.3853  0.5124
 7751TIP3    H144668   5.477   0.721   2.945  0.5066  0.4135  0.0454
 7751TIP3    H244669   5.352   0.806   2.946 -0.0857 -0.4510  0.1288
 7752TIP3   OH244670   3.005   5.643  16.095 -0.1323 -0.1328  0.4708
 7752TIP3    H144671   3.014   5.701  16.170 -0.1505  1.4812 -0.7137
 7752TIP3    H244672   3.014   5.555  16.131 -0.5200  0.5695  2.3940
 7753TIP3   OH244673   6.550   5.515   4.392  0.0633  0.6234  0.2345
 7753TIP3    H144674   6.603   5.572   4.335  1.6785  0.0899  1.1170
 7753TIP3    H244675   6.561   5.553   4.480 -2.2961  1.3727  0.2807
 7754TIP3   OH244676   0.895   0.458   6.033  0.0170 -0.3001  0.0509
 7754TIP3    H144677   0.827   0.497   6.089  0.1324  2.5104 -1.5780
 7754TIP3    H244678   0.848   0.392   5.982 -0.6851 -0.9030  1.4085
 7755TIP3   OH244679   0.782   1.184   6.257 -0.7166  0.1489  0.6419
 7755TIP3    H144680   0.845   1.215   6.322 -0.5179 -0.2138  0.6234
 7755TIP3    H244681   0.836   1.162   6.181 -0.9959  1.0427  0.1741
 7756TIP3   OH244682   4.959   4.599  17.375  0.2727  0.2036 -0.7736
 7756TIP3    H144683   5.017   4.676  17.382  1.7913 -0.9382 -0.1171
 7756TIP3    H244684   4.996   4.548  17.303  0.9638 -1.2148  0.5323
 7757TIP3   OH244685   1.701   1.029  12.615  0.1447 -0.1364 -0.0531
 7757TIP3    H144686   1.747   0.952  12.648  0.0561 -0.1547  0.0283
 7757TIP3    H244687   1.623   0.994  12.572  1.2949 -0.2963 -2.1561
 7758TIP3   OH244688   4.443   3.682   4.763 -0.8498  0.0021  0.1303
 7758TIP3    H144689   4.417   3.728   4.683 -2.0468 -1.1434 -0.1887
 7758TIP3    H244690   4.361   3.670   4.811 -0.2103  0.2501  1.3146
 7759TIP3   OH244691   1.474   3.780   4.863 -0.1235 -0.0819 -0.6116
 7759TIP3    H144692   1.517   3.783   4.778  0.7483 -1.8411 -0.2624
 7759TIP3    H244693   1.463   3.872   4.887  0.0848  0.4371 -2.3753
 7760TIP3   OH244694   0.784   4.683  12.711 -1.0166 -0.0280 -0.1882
 7760TIP3    H144695   0.805   4.746  12.642 -2.5892  1.7944  0.8715
 7760TIP3    H244696   0.692   4.698  12.730 -0.7060 -0.5779  2.1494
 7761TIP3   OH244697   4.328   6.233   3.437 -0.4008 -0.1313 -0.1810
 7761TIP3    H144698   4.345   6.173   3.364  1.2183 -0.4725  0.4489
 7761TIP3    H244699   4.321   6.177   3.514 -0.2711  0.3767  0.2085
 7762TIP3   OH244700   0.364   2.997  15.619  0.0336 -1.1069  0.1173
 7762TIP3    H144701   0.448   2.998  15.665  0.2552  0.7392 -0.2725
 7762TIP3    H244702   0.350   2.905  15.597  2.5477 -1.3074 -0.9036
 7763TIP3   OH244703   4.480   1.348  17.592 -0.7495 -0.4634 -0.4204
 7763TIP3    H144704   4.432   1.328  17.672 -1.2367  2.1352  0.0252
 7763TIP3    H244705   4.519   1.435  17.608  0.2047 -0.4283 -2.5195
 7764TIP3   OH244706   2.809   4.482  12.594  0.0586  0.1106  0.0773
 7764TIP3    H144707   2.731   4.435  12.566  0.7064 -0.3366 -1.0398
 7764TIP3    H244708   2.779   4.572  12.609 -0.4629  0.2415 -1.5351
 7765TIP3   OH244709   3.468   5.849   1.664  0.4322 -0.1468  0.6864
 7765TIP3    H144710   3.435   5.775   1.613 -1.0997  1.1900 -0.3323
 7765TIP3    H244711   3.560   5.856   1.639  0.2276 -0.7942 -0.3230
 7766TIP3   OH244712   5.483   0.970  15.428  0.4529  0.3642 -0.2227
 7766TIP3    H144713   5.558   0.912  15.417  0.8291  1.1142 -1.8615
 7766TIP3    H244714   5.449   0.984  15.339 -0.3688  1.6637  0.2564
 7767TIP3   OH244715   5.985   3.095  14.712  0.4107  0.2299 -0.9503
 7767TIP3    H144716   5.894   3.118  14.730  0.6068  1.5222 -1.5047
 7767TIP3    H244717   6.024   3.083  14.799 -0.2869 -0.3398 -0.7108
 7768TIP3   OH244718   0.400   2.577  12.663  0.0449  1.1321 -0.0062
 7768TIP3    H144719   0.458   2.504  12.640  0.5452  1.5808 -0.2007
 7768TIP3    H244720   0.437   2.612  12.744  0.0941  1.4702 -0.1737
 7769TIP3   OH244721   4.321   2.923   1.066  0.0423  0.6871 -0.4340
 7769TIP3    H144722   4.396   2.874   1.034 -0.5185 -0.6482  0.2180
 7769TIP3    H244723   4.249   2.897   1.010 -0.9818 -1.7876  1.7942
 7770TIP3   OH244724   2.289   6.190  10.958 -0.2184 -0.0022  0.2027
 7770TIP3    H144725   2.337   6.249  10.900 -1.4328  0.1377 -0.6910
 7770TIP3    H244726   2.273   6.111  10.905  0.1813 -0.5920  0.9327
 7771TIP3   OH244727   3.307   5.200   4.980 -0.0037  0.1227  0.1042
 7771TIP3    H144728   3.326   5.197   5.074 -0.5621  0.4047  0.2315
 7771TIP3    H244729   3.349   5.122   4.944  0.7582  0.3493  0.4824
 7772TIP3   OH244730   4.863   6.487  12.037 -0.5489  0.1939 -0.5780
 7772TIP3    H144731   4.947   6.505  11.993 -0.3332  0.0749 -0.2200
 7772TIP3    H244732   4.812   6.440  11.972  0.0918 -0.7512 -0.4157
 7773TIP3   OH244733   6.024   2.465   4.452 -0.0265  0.7467  0.1696
 7773TIP3    H144734   5.990   2.512   4.528  0.1429  0.4364  0.4378
 7773TIP3    H244735   6.007   2.373   4.471  1.2100  0.5609  0.4294
 7774TIP3   OH244736   6.288   5.312   6.347 -0.7607  0.7544  0.1114
 7774TIP3    H144737   6.348   5.340   6.416 -0.9730  1.0794  0.1638
 7774TIP3    H244738   6.245   5.392   6.318 -0.9375  0.5675 -0.1480
 7775TIP3   OH244739   0.203   4.816  12.197 -0.1561  0.1538 -0.0286
 7775TIP3    H144740   0.214   4.868  12.277 -1.2515  2.5749 -1.3105
 7775TIP3    H244741   0.247   4.867  12.130  0.5100 -1.6999 -1.0576
 7776TIP3   OH244742   1.521   2.064   0.026 -0.0464 -0.3692 -0.0443
 7776TIP3    H144743   1.435   2.054   0.067 -1.5354 -1.1804 -3.0697
 7776TIP3    H244744   1.514   2.016  -0.056  3.0059  0.3758 -0.8619
 7777TIP3   OH244745   3.858   0.959  14.323 -0.0698 -0.0078  0.1185
 7777TIP3    H144746   3.786   0.947  14.385  0.4254 -0.0958  0.6806
 7777TIP3    H244747   3.829   0.914  14.244 -0.7767  0.2448  0.2216
 7778TIP3   OH244748   6.648   1.766   0.802 -0.0468 -0.4087  0.1668
 7778TIP3    H144749   6.596   1.839   0.835 -1.0744 -0.3223 -1.4974
 7778TIP3    H244750   6.601   1.687   0.830  0.0813 -0.3837  0.4502
 7779TIP3   OH244751   5.449   5.285  12.775  0.2261  0.5126 -0.2402
 7779TIP3    H144752   5.508   5.233  12.720 -1.1381  0.1482 -1.4159
 7779TIP3    H244753   5.464   5.375  12.747  1.5385  0.6325  0.7731
 7780TIP3   OH244754   3.798   2.459   4.673  0.0908  0.3851  0.1601
 7780TIP3    H144755   3.819   2.384   4.617 -0.6507  0.1225  0.2221
 7780TIP3    H244756   3.764   2.525   4.613  2.4450  1.4035 -0.1695
 7781TIP3   OH244757   0.639   5.078  14.182  0.1670 -0.5268  0.7237
 7781TIP3    H144758   0.635   5.136  14.106  1.0323 -1.6325 -0.2085
 7781TIP3    H244759   0.610   4.993  14.149  0.7168 -1.0659  1.5855
 7782TIP3   OH244760   0.956   4.607   0.042  0.3968  0.1230 -0.3707
 7782TIP3    H144761   1.015   4.673   0.005  2.3375 -2.1488 -1.5846
 7782TIP3    H244762   0.889   4.595  -0.026 -0.5533  1.4801  0.2803
 7783TIP3   OH244763   6.203   6.309  14.051 -0.2367  0.2764  0.8196
 7783TIP3    H144764   6.288   6.343  14.022 -0.6470  0.9184  0.3589
 7783TIP3    H244765   6.143   6.329  13.979 -0.5892 -1.0204  0.7341
 7784TIP3   OH244766   2.420   2.596  16.557  0.0464  0.3938 -0.2704
 7784TIP3    H144767   2.426   2.625  16.648  1.3029 -1.4419  0.2804
 7784TIP3    H244768   2.359   2.522  16.559  0.7464 -0.2047 -0.7765
 7785TIP3   OH244769   6.121   4.724   2.032  0.4839  0.2944  0.1965
 7785TIP3    H144770   6.097   4.773   2.111 -0.8633 -0.8927  0.5666
 7785TIP3    H244771   6.118   4.789   1.962  0.9932  1.2111  0.9937
 7786TIP3   OH244772   4.876   5.733   3.312  0.1570 -0.5069 -0.2289
 7786TIP3    H144773   4.841   5.709   3.398  1.5352 -3.5654 -0.3893
 7786TIP3    H244774   4.881   5.650   3.264  1.2943  0.8067 -2.5749
 7787TIP3   OH244775   4.288   1.963  12.893  0.3752 -0.0038 -0.5859
 7787TIP3    H144776   4.222   2.008  12.945  1.1566  1.5817 -0.9270
 7787TIP3    H244777   4.238   1.902  12.838 -0.7693  0.9298 -0.6046
 7788TIP3   OH244778   4.653   0.777  17.295  0.1540 -0.7300  0.4035
 7788TIP3    H144779   4.747   0.790  17.288  0.0065 -0.3344 -1.1825
 7788TIP3    H244780   4.643   0.708  17.361  1.7361 -2.9440 -1.4939
 7789TIP3   OH244781   1.620   1.370  13.393 -0.4353 -0.1757  0.0017
 7789TIP3    H144782   1.674   1.329  13.461 -0.9941 -0.4412  0.2981
 7789TIP3    H244783   1.546   1.310  13.382 -2.1236  1.4796  1.6026
 7790TIP3   OH244784   3.178   2.746   4.495  0.2532 -0.2207 -0.2299
 7790TIP3    H144785   3.267   2.742   4.531  0.4428 -1.4948 -0.7798
 7790TIP3    H244786   3.187   2.796   4.414  0.4195 -0.1430 -0.1645
 7791TIP3   OH244787   6.198   1.415   2.912 -0.2106 -0.3438  0.5186
 7791TIP3    H144788   6.124   1.378   2.960 -1.3154  1.1247  0.0306
 7791TIP3    H244789   6.158   1.454   2.834  0.9189  1.5481  0.8347
 7792TIP3   OH244790   5.435   2.586   0.080  0.0115  0.1582 -0.0767
 7792TIP3    H144791   5.417   2.518   0.145 -1.3084  1.2542  0.7548
 7792TIP3    H244792   5.469   2.538   0.005 -0.7723 -1.4275  0.5263
 7793TIP3   OH244793   2.542   5.277   2.409  0.0067  0.2613  0.4671
 7793TIP3    H144794   2.495   5.359   2.392 -0.5151 -0.2174 -0.5088
 7793TIP3    H244795   2.545   5.233   2.324  1.4242 -0.1529  0.6949
 7794TIP3   OH244796   5.306   5.891  15.627  0.1896  0.3516 -0.2426
 7794TIP3    H144797   5.261   5.818  15.671  0.6803 -1.5934 -2.7683
 7794TIP3    H244798   5.237   5.956  15.612 -1.0327 -1.0529 -0.9131
 7795TIP3   OH244799   0.192   0.057   3.790  0.4920 -0.6360  0.1268
 7795TIP3    H144800   0.120   0.018   3.739  1.4875 -1.5562 -0.6315
 7795TIP3    H244801   0.219   0.133   3.739 -1.4069  1.1373  1.5734
 7796TIP3   OH244802   5.813   4.203   4.762  0.5542  0.2987  0.4606
 7796TIP3    H144803   5.867   4.124   4.761  0.3389  0.1558  0.2341
 7796TIP3    H244804   5.863   4.265   4.815  1.7158  0.7102 -1.0614
 7797TIP3   OH244805   2.428   5.965  15.751 -0.4529 -0.6140 -0.0860
 7797TIP3    H144806   2.387   5.958  15.664  0.5079  0.0535 -0.6100
 7797TIP3    H244807   2.521   5.978  15.733 -0.2039 -0.6935  1.0596
 7798TIP3   OH244808   2.949   3.873  16.732 -0.3666  0.7641 -0.6618
 7798TIP3    H144809   2.856   3.856  16.714  0.0093 -0.3486 -1.6079
 7798TIP3    H244810   2.987   3.787  16.746  0.7175  1.1381 -1.2162
 7799TIP3   OH244811   4.620   2.787   4.550  0.2678  0.3584 -0.3798
 7799TIP3    H144812   4.660   2.710   4.510 -0.5748 -0.8873  1.0741
 7799TIP3    H244813   4.537   2.798   4.504  1.1252  1.4719 -1.7398
 7800TIP3   OH244814   2.238   4.753  17.583 -0.5417 -0.3876 -1.0231
 7800TIP3    H144815   2.173   4.730  17.650 -0.0132 -1.9394 -0.9887
 7800TIP3    H244816   2.322   4.732  17.624 -0.0961  0.3513 -1.5430
 7801TIP3   OH244817   4.997   4.077  11.101  0.0847  0.0775  0.1087
 7801TIP3    H144818   5.046   4.001  11.131 -1.6802 -0.7681  1.0206
 7801TIP3    H244819   4.950   4.048  11.023  1.0002  0.8713 -0.7597
 7802TIP3   OH244820   1.852   3.664   1.958  0.6832 -0.1978 -0.1331
 7802TIP3    H144821   1.935   3.693   1.995  1.5383 -2.3614 -0.2502
 7802TIP3    H244822   1.842   3.574   1.987 -1.9431  0.1519  0.3679
 7803TIP3   OH244823   0.419   0.679  12.628 -0.3281  0.1397  0.1315
 7803TIP3    H144824   0.488   0.634  12.579 -0.5420 -1.2368  1.0421
 7803TIP3    H244825   0.368   0.609  12.669 -1.2659  1.1830  0.8282
 7804TIP3   OH244826   3.000   4.580   6.559 -0.4438  0.1381 -0.1320
 7804TIP3    H144827   3.074   4.606   6.613  0.1547 -0.1269 -0.8102
 7804TIP3    H244828   3.031   4.504   6.509 -0.2494  1.5882 -2.3805
 7805TIP3   OH244829   3.934   4.078   5.122  0.1516  0.6941 -0.0086
 7805TIP3    H144830   3.869   4.011   5.101 -2.0272  2.2946  1.2524
 7805TIP3    H244831   3.969   4.052   5.207  0.2236  0.5028 -0.0966
 7806TIP3   OH244832   0.684   5.822   1.481  0.2738  0.2268 -0.3729
 7806TIP3    H144833   0.755   5.857   1.535 -0.6212  0.3301  0.7655
 7806TIP3    H244834   0.620   5.893   1.475 -0.1709 -0.1842 -0.6047
 7807TIP3   OH244835   5.232   5.050   3.950 -1.4963  0.3336 -0.0391
 7807TIP3    H144836   5.313   5.087   3.915 -0.8223 -1.4816 -0.4973
 7807TIP3    H244837   5.163   5.101   3.908 -0.6390  0.3357 -1.5299
 7808TIP3   OH244838   3.841   4.346   2.410  0.0128 -0.0599 -0.4257
 7808TIP3    H144839   3.826   4.322   2.502  1.3920  0.3249 -0.0776
 7808TIP3    H244840   3.766   4.401   2.387 -0.8378 -0.9429  0.1639
 7809TIP3   OH244841   3.297   4.559  16.341 -0.1128 -0.4072 -0.0074
 7809TIP3    H144842   3.313   4.630  16.280 -0.6122  1.2347  1.6747
 7809TIP3    H244843   3.205   4.537  16.330 -0.1352 -0.3043 -0.0211
 7810TIP3   OH244844   2.242   2.947   1.864  0.1425 -0.2955  0.5644
 7810TIP3    H144845   2.219   2.856   1.884 -0.4003 -0.8482 -2.2115
 7810TIP3    H244846   2.336   2.945   1.848  0.3846 -0.0602  1.8662
 7811TIP3   OH244847   5.209   1.477   6.170 -0.0101  0.2539 -0.0643
 7811TIP3    H144848   5.256   1.536   6.229  1.8408 -1.7608  0.5717
 7811TIP3    H244849   5.172   1.410   6.228  0.8779 -1.1181 -1.0287
 7812TIP3   OH244850   2.530   1.988  14.137 -0.2520 -0.3723 -0.1389
 7812TIP3    H144851   2.512   2.081  14.120 -0.4492 -0.2132  0.8408
 7812TIP3    H244852   2.477   1.968  14.214  2.3209 -0.3629  1.7672
 7813TIP3   OH244853   0.605   6.302   5.863 -0.0582  0.4129 -0.0178
 7813TIP3    H144854   0.670   6.371   5.870 -0.4735  0.8674 -0.5658
 7813TIP3    H244855   0.533   6.341   5.814 -0.6019 -0.1865  0.2861
 7814TIP3   OH244856   4.289   6.628   5.169 -0.2422  0.1296 -0.2167
 7814TIP3    H144857   4.329   6.675   5.096  1.1009  2.2363  1.7659
 7814TIP3    H244858   4.359   6.574   5.205  0.2989  2.0197  1.7909
 7815TIP3   OH244859   1.394   5.511  14.427  0.3134 -0.0561  0.1051
 7815TIP3    H144860   1.361   5.565  14.499  0.3694 -0.4957  0.4631
 7815TIP3    H244861   1.444   5.572  14.373  0.8121  0.1498  0.7843
 7816TIP3   OH244862   3.980   2.202   5.908  0.0808 -0.5757  0.2607
 7816TIP3    H144863   3.926   2.236   5.980 -0.3567  0.3515 -0.4952
 7816TIP3    H244864   4.054   2.161   5.952 -0.8617 -1.2281  1.2959
 7817TIP3   OH244865   6.673   5.915   3.955 -0.4923  0.2736 -0.8074
 7817TIP3    H144866   6.743   5.912   3.890 -0.0430 -2.1934 -0.2881
 7817TIP3    H244867   6.678   6.004   3.990  1.6345  0.5268 -1.5865
 7818TIP3   OH244868   1.717   6.674   2.102  0.5344 -0.2569 -0.2835
 7818TIP3    H144869   1.623   6.675   2.082  0.3473 -0.2533  0.5534
 7818TIP3    H244870   1.747   6.761   2.077 -0.6615  1.5418  3.7195
 7819TIP3   OH244871   3.941   2.258   1.371  0.1389  0.2806 -0.1222
 7819TIP3    H144872   3.954   2.340   1.323 -0.6400 -0.5849 -1.9266
 7819TIP3    H244873   3.920   2.194   1.303 -1.8267 -0.8636  1.4526
 7820TIP3   OH244874   4.231   2.594  15.007 -0.3171  0.0274  0.0032
 7820TIP3    H144875   4.274   2.667  15.052 -0.0869  0.4450 -0.8860
 7820TIP3    H244876   4.150   2.632  14.973  1.0863  0.6820 -2.9193
 7821TIP3   OH244877   6.324   1.459  13.845  0.4645  0.3474 -0.7948
 7821TIP3    H144878   6.309   1.431  13.935  2.1184  1.9473  0.0421
 7821TIP3    H244879   6.416   1.442  13.828  0.3699  0.8245 -1.9120
 7822TIP3   OH244880   6.420   6.653  15.545 -0.0494 -0.6372  0.1050
 7822TIP3    H144881   6.457   6.602  15.473  0.5172  0.2165 -0.2215
 7822TIP3    H244882   6.467   6.623  15.623  0.5342 -0.3716 -0.1406
 7823TIP3   OH244883   0.124   3.554   2.645 -0.0305  0.1386  0.7819
 7823TIP3    H144884   0.212   3.586   2.666  0.5340 -2.1588  2.2795
 7823TIP3    H244885   0.083   3.538   2.730 -0.8200 -1.5146  0.1365
 7824TIP3   OH244886   4.887   1.581  14.941  0.0322 -0.2803 -0.1409
 7824TIP3    H144887   4.911   1.597  14.850 -0.4956  0.2795 -0.1868
 7824TIP3    H244888   4.914   1.660  14.988 -2.0161  0.5621 -0.2651
 7825TIP3   OH244889   3.732   0.774  11.830 -0.2727  0.3146  0.1496
 7825TIP3    H144890   3.672   0.728  11.888 -1.4467  0.0698 -1.2169
 7825TIP3    H244891   3.681   0.793  11.752  1.4485  0.0183 -1.1042
 7826TIP3   OH244892   0.465   4.329  14.063  0.3120  0.5204  0.5010
 7826TIP3    H144893   0.369   4.338  14.069  0.2824 -0.1938  1.1931
 7826TIP3    H244894   0.494   4.330  14.154  0.8090 -0.9223  0.3681
 7827TIP3   OH244895   5.593   6.033   0.635 -0.2829  0.8480 -0.2267
 7827TIP3    H144896   5.528   6.022   0.705 -0.1022 -0.2944 -0.2089
 7827TIP3    H244897   5.639   6.114   0.657 -0.9782  1.0945  0.3580
 7828TIP3   OH244898   4.779   5.703   2.313  0.4183 -0.3873 -0.1991
 7828TIP3    H144899   4.813   5.696   2.402  0.8539 -2.7940 -0.4968
 7828TIP3    H244900   4.836   5.646   2.261  0.2586  1.0652 -2.0798
 7829TIP3   OH244901   2.272   5.693   4.220 -0.0285 -0.3680  0.0022
 7829TIP3    H144902   2.270   5.684   4.125  2.9970  0.1112 -0.2126
 7829TIP3    H244903   2.334   5.626   4.249 -2.0164 -1.5451  1.8741
 7830TIP3   OH244904   0.379   5.205   4.062 -0.0943  0.3731 -0.1800
 7830TIP3    H144905   0.289   5.188   4.087 -0.5959  1.4597 -1.1488
 7830TIP3    H244906   0.419   5.245   4.139 -0.2851 -0.5467  0.4108
 7831TIP3   OH244907   1.251   6.246   2.144  0.0959  0.6336 -0.5267
 7831TIP3    H144908   1.159   6.220   2.136 -0.2834  2.1157 -1.3103
 7831TIP3    H244909   1.248   6.329   2.191  1.1081  0.3452  0.0768
 7832TIP3   OH244910   0.527   0.757  13.163  0.6920  0.7869  0.3047
 7832TIP3    H144911   0.475   0.678  13.155  2.0070 -0.0937  0.2000
 7832TIP3    H244912   0.520   0.798  13.076  0.9838  0.1533 -0.0253
 7833TIP3   OH244913   3.568   5.210  15.310 -0.3177  0.7643  0.1933
 7833TIP3    H144914   3.652   5.214  15.266  0.0875 -3.3993  0.2020
 7833TIP3    H244915   3.503   5.208  15.239  0.1247 -2.4947 -0.2552
 7834TIP3   OH244916   1.766   2.809  14.371 -0.1142 -0.1461 -0.3694
 7834TIP3    H144917   1.783   2.903  14.367 -0.6231 -0.0714 -0.8202
 7834TIP3    H244918   1.753   2.783  14.280  2.5350 -1.1445 -0.5598
 7835TIP3   OH244919   1.739   6.140   3.218  0.1486 -0.5353 -0.1560
 7835TIP3    H144920   1.725   6.224   3.175 -0.4486  0.1335  1.2801
 7835TIP3    H244921   1.653   6.098   3.216  0.0189 -0.3253  0.7118
 7836TIP3   OH244922   6.294   3.056   5.107  0.0741  0.4128  0.0668
 7836TIP3    H144923   6.384   3.028   5.092  0.1592  0.2170  0.9211
 7836TIP3    H244924   6.268   3.099   5.025  0.9007  0.3635 -0.2216
 7837TIP3   OH244925   5.825   4.894   4.544  0.3839 -0.0884 -0.3571
 7837TIP3    H144926   5.852   4.889   4.635 -1.2557 -1.8196  0.1039
 7837TIP3    H244927   5.779   4.978   4.537  1.4777  0.5715  0.0824
 7838TIP3   OH244928   1.261   3.413   1.035  0.6230  0.2620  0.0703
 7838TIP3    H144929   1.334   3.467   1.064  1.1097 -0.5554  0.4315
 7838TIP3    H244930   1.193   3.475   1.007  0.0627  1.1567  3.0755
 7839TIP3   OH244931   2.320   4.837  11.614  0.4560  0.7722  0.3685
 7839TIP3    H144932   2.238   4.793  11.589 -0.5224  0.9942  2.8798
 7839TIP3    H244933   2.374   4.833  11.535  0.1765 -4.2485  0.0931
 7840TIP3   OH244934   2.150   6.342   1.039  0.1641  0.4684 -0.3570
 7840TIP3    H144935   2.213   6.397   0.992  1.9206 -2.3528 -1.6350
 7840TIP3    H244936   2.139   6.385   1.123  3.0366  1.6981 -0.4677
 7841TIP3   OH244937   1.848   0.619  15.935  0.7058 -0.6038 -0.1058
 7841TIP3    H144938   1.773   0.647  15.883  0.4318  2.0002  1.5530
 7841TIP3    H244939   1.827   0.529  15.961 -1.5782 -0.1357 -0.1705
 7842TIP3   OH244940   4.615   1.779  12.111 -0.5724 -0.6129 -0.3470
 7842TIP3    H144941   4.545   1.830  12.071 -0.4071 -1.3892 -1.6956
 7842TIP3    H244942   4.656   1.733  12.038 -0.2596 -2.1180  0.7189
 7843TIP3   OH244943   5.617   4.743  12.201  0.2282 -0.2817  0.0212
 7843TIP3    H144944   5.705   4.706  12.192  1.1469  1.4654  1.3570
 7843TIP3    H244945   5.601   4.745  12.295 -0.8913  0.2466 -0.1645
 7844TIP3   OH244946   3.117   4.949   1.474  0.1500  0.2424  0.0489
 7844TIP3    H144947   3.086   4.930   1.386  0.9252 -0.0464 -0.1741
 7844TIP3    H244948   3.181   4.879   1.492 -1.1077 -0.6049  1.4288
 7845TIP3   OH244949   4.482   2.636   2.330 -0.1226 -0.1427  0.7897
 7845TIP3    H144950   4.392   2.605   2.339 -0.6721  0.6807 -1.2380
 7845TIP3    H244951   4.528   2.598   2.404 -1.4179 -3.3077  0.1479
 7846TIP3   OH244952   5.791   0.414   1.221  0.3323  0.5234 -0.1552
 7846TIP3    H144953   5.708   0.458   1.240  0.3889  1.8820 -2.6475
 7846TIP3    H244954   5.858   0.480   1.240  0.8075 -0.1778  0.7137
 7847TIP3   OH244955   1.633   2.641   6.221  0.8732 -0.1298  0.0888
 7847TIP3    H144956   1.694   2.567   6.213 -0.0212 -0.9583  0.7269
 7847TIP3    H244957   1.644   2.670   6.312 -0.1384 -0.7004  0.4024
 7848TIP3   OH244958   1.568   1.411   1.458 -0.1325  0.1095 -0.0249
 7848TIP3    H144959   1.485   1.459   1.451  0.3630  0.9490 -0.2930
 7848TIP3    H244960   1.624   1.451   1.391  1.6824  2.0063  2.4478
 7849TIP3   OH244961   2.280   2.732  11.247 -0.2314 -0.1479 -0.5165
 7849TIP3    H144962   2.352   2.709  11.189 -0.1350  0.9825 -0.8639
 7849TIP3    H244963   2.206   2.747  11.188  0.1448  2.1130 -0.4924
 7850TIP3   OH244964   2.651   5.779   4.056  0.2735  0.7295 -0.2658
 7850TIP3    H144965   2.603   5.815   3.981  0.5424  0.0536 -0.7729
 7850TIP3    H244966   2.729   5.738   4.018 -0.1468 -0.6138  0.2437
 7851TIP3   OH244967   4.734   2.946  17.424 -0.0022 -0.3402 -0.1284
 7851TIP3    H144968   4.824   2.973  17.442  0.3555 -0.0979 -1.9994
 7851TIP3    H244969   4.692   3.025  17.390 -1.3903 -0.0629  2.0506
 7852TIP3   OH244970   0.324   0.617  11.183  0.8730 -0.2719 -0.2743
 7852TIP3    H144971   0.419   0.626  11.171  0.9478  2.0477  1.4121
 7852TIP3    H244972   0.286   0.663  11.109  1.0276 -1.1878 -0.9437
 7853TIP3   OH244973   1.739   0.328   1.125 -0.4937  0.3921  0.1817
 7853TIP3    H144974   1.806   0.315   1.192  0.9616 -1.7835 -1.5425
 7853TIP3    H244975   1.772   0.402   1.073 -0.5336  0.6966  0.5817
 7854TIP3   OH244976   0.018   2.594   3.208  0.0011  0.3211  0.3357
 7854TIP3    H144977   0.055   2.615   3.294  1.4730 -2.0667  0.3975
 7854TIP3    H244978  -0.062   2.545   3.229  0.0566  0.2292  0.3329
 7855TIP3   OH244979   6.679   0.898   4.569  0.3080  0.0587 -0.0213
 7855TIP3    H144980   6.683   0.942   4.654 -1.3678  0.8562 -0.3127
 7855TIP3    H244981   6.769   0.873   4.550  0.4423 -2.2677  3.0638
 7856TIP3   OH244982   1.978   5.324  13.216 -0.0014  0.2837  0.8336
 7856TIP3    H144983   2.013   5.257  13.275 -2.5909 -0.5990  1.4965
 7856TIP3    H244984   1.993   5.406  13.262  1.0646 -0.0400  1.1078
 7857TIP3   OH244985   3.487   6.031   2.373  0.5182  0.4225 -0.1262
 7857TIP3    H144986   3.491   5.957   2.434 -1.5585  1.0679  0.8538
 7857TIP3    H244987   3.579   6.045   2.348  1.2984 -0.6718  1.8579
 7858TIP3   OH244988   4.552   3.906   0.539 -0.6787  0.4190  0.1144
 7858TIP3    H144989   4.597   3.990   0.532  1.0614 -0.5469 -1.3656
 7858TIP3    H244990   4.604   3.855   0.601 -1.4040  0.2485  0.5912
 7859TIP3   OH244991   4.739   5.072  13.853  0.0469 -0.4155 -0.6113
 7859TIP3    H144992   4.657   5.083  13.901  0.8054  0.1653  0.6066
 7859TIP3    H244993   4.742   5.147  13.793  1.1374  1.4672  1.6119
 7860TIP3   OH244994   5.240   6.488  13.462 -0.3125  0.4726  0.1604
 7860TIP3    H144995   5.276   6.565  13.505 -1.5966  1.2261 -0.0744
 7860TIP3    H244996   5.147   6.506  13.454 -0.5816 -0.9685 -0.2000
 7861TIP3   OH244997   6.434   4.680  12.728  0.4540  0.1058  0.4217
 7861TIP3    H144998   6.452   4.752  12.668 -0.0097 -0.7922 -0.8427
 7861TIP3    H244999   6.513   4.627  12.726  0.3046 -0.1160  0.3170
 7862TIP3   OH245000   1.577   0.245  15.556  0.4613  0.2471  0.1657
 7862TIP3    H145001   1.633   0.189  15.502  0.6757  0.8591 -0.2527
 7862TIP3    H245002   1.529   0.183  15.613  1.1068 -0.3208  0.1087
 7863TIP3   OH245003   0.311   3.183   5.026  0.3471 -0.4518  0.0325
 7863TIP3    H145004   0.255   3.109   5.051  1.7962 -1.2553  1.0500
 7863TIP3    H245005   0.310   3.240   5.103 -0.0992  0.2067 -0.4441
 7864TIP3   OH245006   1.625   3.063  12.677 -0.4969 -0.4981  0.2600
 7864TIP3    H145007   1.582   3.090  12.596 -0.2306 -0.3797  0.1567
 7864TIP3    H245008   1.688   3.132  12.695  0.9799 -1.5746 -0.6075
 7865TIP3   OH245009   3.328   4.108   3.958 -0.2958  0.2432 -1.3233
 7865TIP3    H145010   3.370   4.100   4.043 -2.6977 -0.4764 -0.1213
 7865TIP3    H245011   3.382   4.053   3.900  0.6542 -0.2820  0.0009
 7866TIP3   OH245012   4.232   4.795   2.072  0.1098  0.3651 -0.0993
 7866TIP3    H145013   4.265   4.747   2.148  0.7701 -1.3617 -1.3874
 7866TIP3    H245014   4.278   4.879   2.075 -0.0248  0.4064  1.4919
 7867TIP3   OH245015   2.493   0.278   5.567 -0.0953 -0.5469 -0.0408
 7867TIP3    H145016   2.408   0.311   5.539 -1.1471 -1.5977  1.6985
 7867TIP3    H245017   2.541   0.356   5.596 -2.1637 -0.2720  3.0947
 7868TIP3   OH245018   3.238   6.502   1.859  0.0335  0.0991  0.0759
 7868TIP3    H145019   3.202   6.566   1.920  0.4889 -1.3778  1.9909
 7868TIP3    H245020   3.333   6.517   1.862  0.0372  0.2088 -0.5107
 7869TIP3   OH245021   2.180   0.303   3.965  0.4576 -0.3486  0.1488
 7869TIP3    H145022   2.174   0.391   4.003 -0.0605 -0.6266  0.7389
 7869TIP3    H245023   2.227   0.315   3.883 -1.7598  0.8956 -1.0543
 7870TIP3   OH245024   1.214   0.227  16.673  0.1407  0.0786  0.2390
 7870TIP3    H145025   1.212   0.193  16.762  0.7846 -2.3972 -0.6087
 7870TIP3    H245026   1.123   0.247  16.652 -0.3860 -1.7760  0.6173
 7871TIP3   OH245027   6.176   1.676  14.026 -0.1039  0.2144  0.0288
 7871TIP3    H145028   6.224   1.641  13.951  0.8149 -0.3991  0.8927
 7871TIP3    H245029   6.146   1.599  14.074 -1.0128  0.5969  0.0999
 7872TIP3   OH245030   2.154   0.533   1.320  0.7812  1.0664  0.0409
 7872TIP3    H145031   2.135   0.552   1.228  0.4461  0.0241 -0.1238
 7872TIP3    H245032   2.238   0.486   1.318 -0.6586 -1.6749 -0.0803
 7873TIP3   OH245033   5.428   5.862   3.414  0.4327  0.5567  0.5753
 7873TIP3    H145034   5.361   5.842   3.480  0.2799  0.0171  0.2591
 7873TIP3    H245035   5.511   5.851   3.461  0.3521 -0.7099  0.4572
 7874TIP3   OH245036   5.253   6.123  14.726 -0.2065  0.4072 -0.4875
 7874TIP3    H145037   5.196   6.172  14.667 -0.9442  0.1158 -0.0205
 7874TIP3    H245038   5.341   6.134  14.689 -0.1514  3.1124  0.2603
 7875TIP3   OH245039   2.476   3.511  13.705  0.1912 -0.1827  0.0985
 7875TIP3    H145040   2.548   3.567  13.676  0.3133 -0.3664  0.0499
 7875TIP3    H245041   2.509   3.422  13.695  0.0542 -0.2598  0.3330
 7876TIP3   OH245042   1.202   0.073  13.501  0.0855 -0.1396 -0.4600
 7876TIP3    H145043   1.163   0.097  13.585  0.4987  0.6457 -0.4786
 7876TIP3    H245044   1.296   0.091  13.513 -0.0328  1.3793 -1.5440
 7877TIP3   OH245045   5.601   0.054   5.405  0.4456 -0.0074 -0.2932
 7877TIP3    H145046   5.651   0.135   5.400 -0.2315  0.3424 -2.2887
 7877TIP3    H245047   5.631   0.002   5.330  0.6198 -1.4731  0.7504
 7878TIP3   OH245048   1.543   1.089   3.810  0.1685 -0.9173 -0.4364
 7878TIP3    H145049   1.489   1.050   3.741  0.5179 -1.0229 -0.6524
 7878TIP3    H245050   1.549   1.021   3.877 -0.5565 -0.6454 -0.0928
 7879TIP3   OH245051   5.030   6.430  12.581  0.2794 -0.4511  0.2524
 7879TIP3    H145052   5.092   6.457  12.648 -1.5242  1.0504  1.3971
 7879TIP3    H245053   5.062   6.470  12.500  1.0278 -0.0507  0.7388
 7880TIP3   OH245054   2.537   3.516  15.775 -0.4024  0.5083 -0.1984
 7880TIP3    H145055   2.592   3.449  15.814 -1.0694 -0.1414 -0.3483
 7880TIP3    H245056   2.457   3.515  15.826 -1.2453 -0.2707 -1.4751
 7881TIP3   OH245057   2.708   4.355   5.964 -0.5062 -0.5152 -0.0339
 7881TIP3    H145058   2.619   4.353   5.930 -0.4027  1.4697 -0.5444
 7881TIP3    H245059   2.697   4.362   6.058 -0.8918 -0.3129 -0.0900
 7882TIP3   OH245060   5.226   4.017   4.921 -0.6683  0.2218  0.6577
 7882TIP3    H145061   5.289   3.945   4.922 -0.4813  0.3849  0.7835
 7882TIP3    H245062   5.171   3.999   4.845 -0.0689  0.4102  0.1690
 7883TIP3   OH245063   0.191   3.396  14.116 -0.0914  0.4833 -0.3930
 7883TIP3    H145064   0.155   3.330  14.056 -0.2284 -0.0278  0.2476
 7883TIP3    H245065   0.115   3.440  14.152 -0.0259  0.4222 -0.1810
 7884TIP3   OH245066   1.668   2.760   2.839  0.0165 -0.2938 -0.5171
 7884TIP3    H145067   1.685   2.854   2.838 -0.6282 -0.1755 -0.2821
 7884TIP3    H245068   1.574   2.752   2.851  0.2838 -0.9868  1.5533
 7885TIP3   OH245069   5.201   5.724   6.779 -0.2542 -0.5208  0.6009
 7885TIP3    H145070   5.193   5.772   6.861 -1.3834  0.5491 -0.0992
 7885TIP3    H245071   5.253   5.781   6.723 -1.1710 -0.3136 -0.0693
 7886TIP3   OH245072   1.047   1.039  14.579  0.6199 -0.0606  0.5506
 7886TIP3    H145073   1.083   1.024  14.666  1.9074  0.5718  0.1587
 7886TIP3    H245074   0.954   1.053  14.593  1.0012  1.2369  1.9815
 7887TIP3   OH245075   4.027   5.762  11.832 -0.7379  0.3345  1.1703
 7887TIP3    H145076   4.099   5.785  11.773 -0.3852 -0.5207  1.2490
 7887TIP3    H245077   3.951   5.805  11.794 -0.4409  0.1246  0.2974
 7888TIP3   OH245078   5.374   2.121   1.973 -0.0654 -0.6153 -0.0791
 7888TIP3    H145079   5.407   2.052   2.031  0.4625  0.4573  0.9369
 7888TIP3    H245080   5.279   2.118   1.983 -0.2197 -2.4945 -1.5881
 7889TIP3   OH245081   0.850   5.086   4.850  0.7441 -0.5744  0.0539
 7889TIP3    H145082   0.923   5.134   4.889  0.2047 -1.2654  2.0294
 7889TIP3    H245083   0.881   4.996   4.844 -0.1931 -1.0552  1.7449
 7890TIP3   OH245084   3.409   1.651   5.544 -0.3141  0.0598  0.1671
 7890TIP3    H145085   3.425   1.567   5.586  0.0527  0.2078  0.3306
 7890TIP3    H245086   3.347   1.695   5.601 -1.9924 -0.8373 -0.8823
 7891TIP3   OH245087   6.034   5.677  16.457  0.0674  0.1747  0.1314
 7891TIP3    H145088   6.075   5.592  16.468  1.9954  1.1226  0.7486
 7891TIP3    H245089   5.966   5.680  16.524 -0.6349 -1.1790 -0.4803
 7892TIP3   OH245090   3.585   2.475  13.199 -0.0755  0.9140  0.2174
 7892TIP3    H145091   3.588   2.532  13.276 -3.3907  0.5560  0.7943
 7892TIP3    H245092   3.592   2.387  13.235  1.0525  0.8055 -0.2376
 7893TIP3   OH245093   0.943   1.001  17.455  0.0881 -0.3235  0.4335
 7893TIP3    H145094   0.964   0.987  17.362 -3.3818  0.5455 -0.6432
 7893TIP3    H245095   0.889   1.080  17.456 -2.2864 -1.7778  2.7417
 7894TIP3   OH245096   0.598   0.652  17.310  0.4203 -0.3286 -0.1368
 7894TIP3    H145097   0.623   0.702  17.232  0.1822 -1.1917 -0.7833
 7894TIP3    H245098   0.641   0.697  17.383 -0.8349  1.5847 -0.5130
 7895TIP3   OH245099   3.582   5.120  12.501  0.5701  0.1810  0.2944
 7895TIP3    H145100   3.582   5.036  12.455  1.6427  0.2524  0.1463
 7895TIP3    H245101   3.490   5.145  12.506  0.3938  0.1166 -1.7376
 7896TIP3   OH245102   1.865   6.514  11.699  0.1416 -0.1482 -0.1898
 7896TIP3    H145103   1.841   6.605  11.716 -0.2477 -0.4630  1.1224
 7896TIP3    H245104   1.957   6.518  11.673  0.8834  0.4646  2.2040
 7897TIP3   OH245105   3.534   6.119  12.619 -0.0655 -0.4917 -0.6970
 7897TIP3    H145106   3.525   6.207  12.582 -0.0857 -0.1518  0.0929
 7897TIP3    H245107   3.612   6.125  12.674 -1.1833 -0.3935  0.9331
 7898TIP3   OH245108   0.254   2.527  15.277 -0.1571 -0.6561 -0.3914
 7898TIP3    H145109   0.162   2.504  15.291 -0.2070 -0.0679  0.3253
 7898TIP3    H245110   0.270   2.510  15.184 -1.6215  1.3606 -1.0848
 7899TIP3   OH245111   2.031   5.725  16.087  0.1024 -0.1943 -0.1762
 7899TIP3    H145112   1.950   5.702  16.041 -0.5721 -0.4203  1.0621
 7899TIP3    H245113   2.039   5.820  16.074 -1.1117  0.0727  0.7936
 7900TIP3   OH245114   3.065   2.566   1.147  0.2203  0.1928 -0.5735
 7900TIP3    H145115   3.116   2.608   1.077  1.2532 -0.8988 -0.5074
 7900TIP3    H245116   3.130   2.524   1.203 -0.7115 -0.6509 -0.0835
 7901TIP3   OH245117   5.136   5.258  13.003 -0.3822 -0.4760 -0.4607
 7901TIP3    H145118   5.113   5.331  12.946 -1.4724  0.2357  0.8358
 7901TIP3    H245119   5.065   5.194  12.990 -1.5482  0.3981  1.2585
 7902TIP3   OH245120   2.550   2.337   4.459 -0.0390  0.2294  0.7035
 7902TIP3    H145121   2.469   2.308   4.500  0.5133 -2.3092  0.1697
 7902TIP3    H245122   2.522   2.401   4.394 -1.1521  2.5502  3.2483
 7903TIP3   OH245123   4.493   6.633   4.937  0.8741  0.3889 -0.0222
 7903TIP3    H145124   4.573   6.685   4.939  0.6401  0.7611  2.1860
 7903TIP3    H245125   4.422   6.697   4.932  0.6528  0.1775  0.3242
 7904TIP3   OH245126   6.524   4.223  16.168  0.1675  0.4722 -0.0234
 7904TIP3    H145127   6.480   4.142  16.141  0.2590 -0.5015  2.4889
 7904TIP3    H245128   6.571   4.199  16.248 -1.0137  3.3476  1.6849
 7905TIP3   OH245129   4.795   1.678   0.206  0.2036 -0.1131 -0.3068
 7905TIP3    H145130   4.738   1.612   0.244 -0.1195 -0.0690 -0.6991
 7905TIP3    H245131   4.882   1.659   0.240  0.2477 -1.1830 -0.9853
 7906TIP3   OH245132   5.577   2.584   4.308 -0.4246 -0.2392 -0.2047
 7906TIP3    H145133   5.486   2.611   4.291  0.1053  1.4599 -0.5223
 7906TIP3    H245134   5.574   2.542   4.394 -1.5123 -0.2721 -0.2430
 7907TIP3   OH245135   0.468   1.031  16.497  0.1383 -0.0048 -0.6245
 7907TIP3    H145136   0.442   1.026  16.589 -0.0441 -1.0232 -0.7114
 7907TIP3    H245137   0.483   0.939  16.472 -0.9897  0.1245 -1.9230
 7908TIP3   OH245138   0.529   5.116   6.233  0.1073  0.7223  0.4554
 7908TIP3    H145139   0.577   5.085   6.156  1.1923  1.5677  0.7693
 7908TIP3    H245140   0.550   5.053   6.302 -0.4656  0.2475  0.2110
 7909TIP3   OH245141   1.921   6.507   0.394  0.2578  0.2037  0.0905
 7909TIP3    H145142   1.963   6.424   0.418  1.6598  0.1998 -2.0620
 7909TIP3    H245143   1.993   6.567   0.376 -0.7221  1.4705  0.2227
 7910TIP3   OH245144   6.291   6.537   0.008 -0.2484  0.9365  0.2930
 7910TIP3    H145145   6.386   6.546   0.015 -0.1589  0.7579 -0.5096
 7910TIP3    H245146   6.277   6.504  -0.081 -1.0691  1.0488  0.3719
 7911TIP3   OH245147   5.439   1.647  13.010  0.2134  0.5978 -0.6804
 7911TIP3    H145148   5.502   1.655  13.082 -2.5998 -1.2802  2.2311
 7911TIP3    H245149   5.487   1.599  12.943  1.7189 -1.6465  1.7819
 7912TIP3   OH245150   0.153   1.360   3.128  0.1783  0.5969  0.6761
 7912TIP3    H145151   0.200   1.413   3.064  0.1250  2.4950  2.1345
 7912TIP3    H245152   0.196   1.379   3.211 -2.5474  1.7532  1.9313
 7913TIP3   OH245153   1.123   5.368   5.931 -0.1997 -0.3204  0.2397
 7913TIP3    H145154   1.204   5.317   5.940  0.1091  0.1217  0.0137
 7913TIP3    H245155   1.067   5.313   5.876  0.3064 -0.2201 -0.3988
 7914TIP3   OH245156   1.476   0.638   5.161 -0.2053  0.1016 -0.2146
 7914TIP3    H145157   1.532   0.692   5.105  0.2145 -1.5083 -1.4229
 7914TIP3    H245158   1.391   0.638   5.117 -0.2772 -0.0109 -0.0757
 7915TIP3   OH245159   1.289   3.965   5.580  0.1145  0.1113  0.1059
 7915TIP3    H145160   1.322   3.915   5.655  1.1073 -0.2517 -0.5460
 7915TIP3    H245161   1.362   3.964   5.517 -0.9477 -0.1951 -1.1578
 7916TIP3   OH245162   1.350   4.949   5.030 -0.1189  0.7751 -0.5737
 7916TIP3    H145163   1.436   4.971   4.995 -0.3966  1.1547 -1.0118
 7916TIP3    H245164   1.349   4.990   5.117  1.8709 -2.8742  1.4342
 7917TIP3   OH245165   4.156   0.124   2.021  0.0475 -0.2073  0.2376
 7917TIP3    H145166   4.231   0.122   1.963 -0.0369 -0.0605  0.1228
 7917TIP3    H245167   4.081   0.105   1.965  0.3051 -4.0614  0.8953
 7918TIP3   OH245168   6.521   0.436   4.516  0.3951 -0.0939  0.5019
 7918TIP3    H145169   6.538   0.517   4.564  2.1641 -0.1721  0.0684
 7918TIP3    H245170   6.585   0.373   4.552 -1.1172 -1.4042  1.0295
 7919TIP3   OH245171   0.563   4.583   1.253 -0.4104 -0.4288 -0.6091
 7919TIP3    H145172   0.629   4.549   1.192  0.6329  0.2846  0.0880
 7919TIP3    H245173   0.509   4.641   1.200  0.8953  0.7064 -0.7627
 7920TIP3   OH245174   3.100   5.034   2.126  0.1285  0.3791  0.1607
 7920TIP3    H145175   3.030   4.969   2.132 -1.1818  1.8303  1.4175
 7920TIP3    H245176   3.157   5.014   2.200 -0.1615  0.5424  0.4273
 7921TIP3   OH245177   6.158   6.313   2.277 -0.1639 -0.8065 -0.5121
 7921TIP3    H145178   6.108   6.322   2.195 -1.7064 -0.9709  0.3689
 7921TIP3    H245179   6.127   6.386   2.331  3.5945  1.6552 -1.3540
 7922TIP3   OH245180   3.944   0.093  11.741  0.0391 -0.1422 -0.0406
 7922TIP3    H145181   3.883   0.158  11.776  0.0816 -0.3058  0.3467
 7922TIP3    H245182   3.889   0.016  11.724 -0.3623  0.5406 -2.1969
 7923TIP3   OH245183   1.037   2.863  14.600 -0.0186 -0.4359  0.0164
 7923TIP3    H145184   1.064   2.893  14.687 -1.4111 -0.6536  0.5608
 7923TIP3    H245185   1.110   2.810  14.568  1.1383  0.8713  0.4037
 7924TIP3   OH245186   5.597   4.498  13.830 -0.0993 -0.4547  0.1806
 7924TIP3    H145187   5.563   4.554  13.760 -0.6225  1.6209  1.9752
 7924TIP3    H245188   5.522   4.444  13.856 -0.5731  0.4357  0.6880
 7925TIP3   OH245189   0.878   5.339   1.875 -0.1296 -0.1152 -0.2417
 7925TIP3    H145190   0.906   5.383   1.795 -0.7489 -0.1770 -0.4950
 7925TIP3    H245191   0.926   5.384   1.945  2.2598 -1.6032 -0.8285
 7926TIP3   OH245192   5.255   5.624  11.817 -0.0297  0.2696  0.5242
 7926TIP3    H145193   5.219   5.693  11.761 -2.3880 -0.6316  0.7875
 7926TIP3    H245194   5.240   5.656  11.906 -0.6334 -0.3124  0.6411
 7927TIP3   OH245195   5.605   3.241  11.443  0.5353  0.2591 -0.0583
 7927TIP3    H145196   5.664   3.311  11.414  1.2267 -1.0976 -2.1184
 7927TIP3    H245197   5.554   3.219  11.366 -0.9476 -0.3117  1.0383
 7928TIP3   OH245198   5.533   5.805  13.731  0.2841 -0.4760 -0.1002
 7928TIP3    H145199   5.467   5.871  13.751  0.3875 -0.7701  1.2959
 7928TIP3    H245200   5.549   5.761  13.814 -1.2436 -3.6338 -1.3347
 7929TIP3   OH245201   2.886   0.576   6.259 -0.2133  0.1327 -0.1958
 7929TIP3    H145202   2.871   0.490   6.299  0.3878 -0.1023 -0.4644
 7929TIP3    H245203   2.826   0.635   6.306  0.2705 -0.1927  0.8586
 7930TIP3   OH245204   5.919   3.655  15.305 -0.2919 -0.3408 -0.3599
 7930TIP3    H145205   5.986   3.667  15.372 -0.1996  0.3641 -0.5649
 7930TIP3    H245206   5.897   3.744  15.277 -0.7761 -0.5975 -0.8253
 7931TIP3   OH245207   6.189   0.536  11.160  0.4799  0.9282  0.6999
 7931TIP3    H145208   6.257   0.492  11.110  1.1076  1.4050  1.1184
 7931TIP3    H245209   6.205   0.511  11.251 -2.8546 -2.9948  0.5022
 7932TIP3   OH245210   3.157   6.375   5.052  0.3773  0.4402  0.2925
 7932TIP3    H145211   3.118   6.437   4.990  1.1915 -0.1518 -0.8628
 7932TIP3    H245212   3.083   6.340   5.102 -0.4685  0.0369 -1.1897
 7933TIP3   OH245213   0.624   4.825  14.977  0.8133 -0.1293  0.2080
 7933TIP3    H145214   0.641   4.831  15.071 -0.5243  0.7624  0.4174
 7933TIP3    H245215   0.634   4.915  14.945 -0.0669 -0.1949 -0.2598
 7934TIP3   OH245216   6.443   5.917   2.339 -0.4546  0.4970  0.2682
 7934TIP3    H145217   6.374   5.878   2.394  0.4307 -0.4651  0.7406
 7934TIP3    H245218   6.436   5.871   2.256 -1.2284  1.3408 -0.1519
 7935TIP3   OH245219   4.261   4.681   3.960 -0.0036  0.3848 -0.4529
 7935TIP3    H145220   4.262   4.739   3.884 -0.2709  0.8398 -0.1114
 7935TIP3    H245221   4.230   4.597   3.925  1.1646  0.2024 -1.1093
 7936TIP3   OH245222   4.109   1.374   4.012  0.1016 -0.1353 -0.0669
 7936TIP3    H145223   4.067   1.322   3.943  1.3519 -0.0179 -0.9521
 7936TIP3    H245224   4.055   1.360   4.089 -1.7150  0.2233 -1.2127
 7937TIP3   OH245225   2.008   0.857  15.500 -0.0935  0.1462 -0.3375
 7937TIP3    H145226   2.003   0.781  15.442 -2.7025 -1.7969  2.1832
 7937TIP3    H245227   2.084   0.839  15.556 -0.3437 -0.3195 -0.1429
 7938TIP3   OH245228   2.297   1.345  15.153 -0.1900  0.0703  0.3757
 7938TIP3    H145229   2.280   1.338  15.059  0.4924 -1.0547  0.3256
 7938TIP3    H245230   2.231   1.289  15.193 -0.0271 -0.0253  0.5117
 7939TIP3   OH245231   1.148   4.609   3.649  0.3589  0.3785 -0.2749
 7939TIP3    H145232   1.059   4.629   3.620 -0.4819 -1.1294  1.0512
 7939TIP3    H245233   1.136   4.542   3.717  2.5911 -0.7748 -0.9302
 7940TIP3   OH245234   6.066   5.000  14.058  0.0093  0.0254  0.4053
 7940TIP3    H145235   6.130   4.929  14.061 -0.8713 -0.7893  0.6031
 7940TIP3    H245236   6.007   4.977  13.986 -0.9120 -0.0266  1.1431
 7941TIP3   OH245237   2.936   0.068  11.539  0.2314  0.3488 -0.2553
 7941TIP3    H145238   2.864   0.057  11.477  0.8022  0.4382 -0.9477
 7941TIP3    H245239   3.009   0.102  11.486  0.4952  1.1668  0.6093
 7942TIP3   OH245240   5.769   1.745  15.619 -0.2313 -0.2861 -0.4149
 7942TIP3    H145241   5.707   1.711  15.684 -2.2253  1.5529 -1.2153
 7942TIP3    H245242   5.754   1.692  15.541  0.0060 -0.5720 -0.2648
 7943TIP3   OH245243   5.257   0.499   5.437 -0.0974  0.4080 -0.0944
 7943TIP3    H145244   5.308   0.520   5.359  1.0618  0.2999  0.6033
 7943TIP3    H245245   5.310   0.532   5.509 -1.6826  1.5594  0.6062
 7944TIP3   OH245246   2.718   6.025  17.359 -0.4325 -0.3406 -0.2289
 7944TIP3    H145247   2.677   6.052  17.276  0.4353 -0.2241 -0.6307
 7944TIP3    H245248   2.690   6.091  17.422 -1.6587 -0.8021 -0.2527
 7945TIP3   OH245249   1.596   4.786  16.243 -0.3301 -0.0580 -0.0536
 7945TIP3    H145250   1.633   4.822  16.162 -0.6802  1.5851  0.4790
 7945TIP3    H245251   1.519   4.737  16.214  0.3419 -0.6834 -0.8434
 7946TIP3   OH245252   5.520   4.276   2.781  0.2148 -0.0007 -0.0609
 7946TIP3    H145253   5.602   4.227   2.782  0.0142 -0.3554 -0.3464
 7946TIP3    H245254   5.461   4.225   2.838  1.1990  2.1210  3.1327
 7947TIP3   OH245255   0.273   6.272  14.829 -0.6795  0.0505 -0.2068
 7947TIP3    H145256   0.308   6.189  14.863  1.6381  0.6135 -1.0243
 7947TIP3    H245257   0.256   6.255  14.737 -3.0949 -0.3152  0.2426
 7948TIP3   OH245258   4.703   0.604   1.724  0.7830  0.4166 -0.7269
 7948TIP3    H145259   4.776   0.656   1.759  0.7755 -0.3379  0.4597
 7948TIP3    H245260   4.741   0.559   1.648  1.9524 -0.9039  0.5716
 7949TIP3   OH245261   4.005   1.053   2.924 -0.2696  0.3125 -0.0729
 7949TIP3    H145262   4.097   1.079   2.929  0.1519 -0.9393 -0.9703
 7949TIP3    H245263   4.004   0.963   2.956 -1.3268  0.5642  0.6612
 7950TIP3   OH245264   0.836   3.923  14.216 -0.0058  0.1972 -0.0619
 7950TIP3    H145265   0.852   3.909  14.123 -0.7661 -1.8870  0.0770
 7950TIP3    H245266   0.741   3.916  14.225 -0.1500  2.2268  0.6335
 7951TIP3   OH245267   0.614   6.200   5.553 -0.5741  0.3186 -0.0134
 7951TIP3    H145268   0.629   6.269   5.618 -0.9688  1.8787 -1.5019
 7951TIP3    H245269   0.698   6.155   5.546 -0.2178  0.8365  0.7694
 7952TIP3   OH245270   6.342   5.170  15.351  0.1535  0.1747  0.0201
 7952TIP3    H145271   6.285   5.177  15.428  0.1769  1.3464 -0.0541
 7952TIP3    H245272   6.309   5.236  15.291  1.7461  1.0638  0.0814
 7953TIP3   OH245273   0.094   2.644  11.477  0.1725  0.1299 -0.1192
 7953TIP3    H145274   0.096   2.705  11.551 -0.3725 -0.1127  0.1024
 7953TIP3    H245275   0.125   2.561  11.513  0.2838  0.1120 -0.2571
 7954TIP3   OH245276   6.577   4.810  15.019 -0.5593 -0.2720  0.3514
 7954TIP3    H145277   6.586   4.851  15.105  1.0461  0.2595 -0.0255
 7954TIP3    H245278   6.606   4.720  15.032 -0.0299 -0.1107  0.3229
 7955TIP3   OH245279   2.770   6.263   0.561 -0.1186 -0.1778 -0.7490
 7955TIP3    H145280   2.838   6.282   0.497  0.5174 -1.1088 -0.3665
 7955TIP3    H245281   2.781   6.170   0.581  0.6593  0.4088  1.8272
 7956TIP3   OH245282   3.431   0.808  15.411 -0.5937  0.6350 -0.3636
 7956TIP3    H145283   3.441   0.898  15.442 -2.4581  0.3561  1.1970
 7956TIP3    H245284   3.355   0.774  15.458  1.4515 -2.5640  1.0151
 7957TIP3   OH245285   2.087   4.233   1.421  0.3751  0.1799 -0.0934
 7957TIP3    H145286   2.132   4.317   1.430  1.7916 -0.6495  0.8391
 7957TIP3    H245287   2.121   4.179   1.492 -1.0145 -0.9789 -0.2571
 7958TIP3   OH245288   2.038   1.223  17.275  0.1144 -0.1014  0.1115
 7958TIP3    H145289   2.010   1.133  17.258 -0.0687 -0.0285  0.0154
 7958TIP3    H245290   2.124   1.215  17.316  0.1734 -0.3137 -0.0537
 7959TIP3   OH245291   2.662   0.508  12.377  0.5271  0.5707  0.7451
 7959TIP3    H145292   2.746   0.554  12.372  1.2061 -0.7168 -0.7771
 7959TIP3    H245293   2.615   0.536  12.299 -0.3083  0.9631  1.3792
 7960TIP3   OH245294   3.100   0.835  14.828  0.0545 -0.7191  0.1533
 7960TIP3    H145295   3.143   0.764  14.878  0.5009 -1.5009 -1.2954
 7960TIP3    H245296   3.167   0.865  14.767  0.1188  1.4923  1.1870
 7961TIP3   OH245297   3.453   0.154  16.883  0.4962 -0.3088 -0.3728
 7961TIP3    H145298   3.359   0.135  16.891  0.3743 -1.6811 -3.4499
 7961TIP3    H245299   3.497   0.079  16.923  0.2540 -0.2743 -0.0411
 7962TIP3   OH245300   6.499   2.637  15.760  0.9801  0.0456 -0.4459
 7962TIP3    H145301   6.423   2.609  15.811  0.1528  1.7919 -0.6536
 7962TIP3    H245302   6.524   2.721  15.799  1.3610  0.6104 -1.8523
 7963TIP3   OH245303   0.881   5.706  12.037  0.0766 -0.2176 -0.1014
 7963TIP3    H145304   0.956   5.716  11.978  1.3277  0.7705  1.5613
 7963TIP3    H245305   0.920   5.675  12.119 -1.0980  1.8570  1.3069
 7964TIP3   OH245306   4.544   6.514   5.986 -0.1473  0.5463 -0.6132
 7964TIP3    H145307   4.600   6.507   5.909  0.1694 -1.1935 -0.2746
 7964TIP3    H245308   4.456   6.527   5.951  0.2798  2.0698 -1.1807
 7965TIP3   OH245309   0.183   0.141   5.964 -0.1883  0.0678 -0.1765
 7965TIP3    H145310   0.212   0.168   6.052 -1.7277  0.8875  0.1143
 7965TIP3    H245311   0.114   0.077   5.981 -1.3031  1.0845 -0.7381
 7966TIP3   OH245312   0.282   3.199   2.029  0.0475  0.0511 -0.0417
 7966TIP3    H145313   0.353   3.140   2.055  1.2064  0.0307 -2.8919
 7966TIP3    H245314   0.262   3.174   1.939 -1.9261  1.6832 -0.1241
 7967TIP3   OH245315   6.039   1.849   3.562 -0.5128 -0.2103 -0.2521
 7967TIP3    H145316   5.992   1.776   3.602 -1.0950 -0.1801 -0.8547
 7967TIP3    H245317   6.008   1.926   3.610  0.3479 -0.3879  0.6000
 7968TIP3   OH245318   5.191   0.424   6.053 -0.2312 -0.3479  0.3518
 7968TIP3    H145319   5.286   0.422   6.054 -0.1551  0.1465  2.8474
 7968TIP3    H245320   5.168   0.496   6.112 -2.0968 -2.5377  2.5600
 7969TIP3   OH245321   6.032   1.977  14.825 -0.2698  1.0566 -0.0691
 7969TIP3    H145322   6.102   2.041  14.836  0.8569 -0.0865 -0.2686
 7969TIP3    H245323   5.983   2.007  14.748 -0.3606  2.1909  0.4303
 7970TIP3   OH245324   5.654   1.491   6.251  0.1989  0.6767  0.0823
 7970TIP3    H145325   5.734   1.540   6.234  0.0335  1.8481  2.2024
 7970TIP3    H245326   5.618   1.532   6.330 -1.6631 -0.8317  0.0908
 7971TIP3   OH245327   0.409   6.221  16.077  0.1698 -0.0758 -0.9153
 7971TIP3    H145328   0.499   6.234  16.049  1.2350 -0.4084  2.0250
 7971TIP3    H245329   0.409   6.138  16.124 -1.5793  0.1004 -0.5025
 7972TIP3   OH245330   4.738   2.559  16.791  0.2309  0.5706  0.4939
 7972TIP3    H145331   4.744   2.522  16.879  0.9603  0.0767  0.2459
 7972TIP3    H245332   4.681   2.498  16.744  1.9218 -0.6404 -0.0869
 7973TIP3   OH245333   5.665   3.770  14.409  0.0616  0.1856  0.2200
 7973TIP3    H145334   5.719   3.789  14.333  1.2684 -0.7160  0.8096
 7973TIP3    H245335   5.642   3.677  14.400  0.6213 -0.0681  1.1636
 7974TIP3   OH245336   2.654   4.958   1.475 -0.4098  0.3379 -0.2032
 7974TIP3    H145337   2.714   4.992   1.409 -0.5739  1.0433  0.0064
 7974TIP3    H245338   2.586   4.913   1.425 -0.9502  1.5367 -0.5651
 7975TIP3   OH245339   3.245   4.733   6.589 -0.6648 -0.0773 -0.4148
 7975TIP3    H145340   3.274   4.776   6.509  0.4383  2.5759  1.2994
 7975TIP3    H245341   3.325   4.698   6.628 -1.1295 -0.9671 -0.2251
 7976TIP3   OH245342   0.154   2.605  14.215  0.2234 -0.4336  0.2708
 7976TIP3    H145343   0.083   2.616  14.152 -0.6782 -0.9912  1.1507
 7976TIP3    H245344   0.134   2.669  14.284  0.1391 -1.1105  0.8851
 7977TIP3   OH245345   5.918   5.098   6.368  0.1612  0.5914 -0.3198
 7977TIP3    H145346   5.958   5.136   6.446  1.1279  1.7093 -1.3234
 7977TIP3    H245347   5.956   5.147   6.295  1.4601 -2.3018 -1.7249
 7978TIP3   OH245348   2.750   1.274   2.707  0.1805  0.1910  0.4050
 7978TIP3    H145349   2.715   1.185   2.711 -0.7334  0.5201  0.0796
 7978TIP3    H245350   2.674   1.330   2.722  0.0285  0.9921 -2.6183
 7979TIP3   OH245351   1.565   5.569  13.191  0.5215  0.0974 -0.2126
 7979TIP3    H145352   1.610   5.646  13.157 -0.2512 -0.0609 -1.6843
 7979TIP3    H245353   1.575   5.503  13.123 -1.0621 -0.2477 -0.1622
 7980TIP3   OH245354   1.310   5.562  12.076  0.7233 -0.0273 -0.8363
 7980TIP3    H145355   1.378   5.523  12.022  1.6614  0.3563  0.0202
 7980TIP3    H245356   1.254   5.610  12.015  1.3618 -0.1546 -1.5258
 7981TIP3   OH245357   0.746   4.269   2.736  0.5428 -0.1680 -0.0752
 7981TIP3    H145358   0.751   4.245   2.828  0.1899 -2.2861 -0.5630
 7981TIP3    H245359   0.654   4.261   2.713  0.7162 -0.2744 -0.7666
 7982TIP3   OH245360   1.931   6.351  13.385 -0.8016  0.3687  0.0455
 7982TIP3    H145361   1.897   6.273  13.341 -0.1715 -0.4767  0.9954
 7982TIP3    H245362   1.937   6.417  13.316 -1.9843 -0.2021 -0.6451
 7983TIP3   OH245363   3.156   3.535   4.877 -0.4340 -0.7253  0.0262
 7983TIP3    H145364   3.134   3.564   4.789  2.7359  1.5075 -0.1763
 7983TIP3    H245365   3.182   3.444   4.867 -1.4970 -0.9315 -1.0329
 7984TIP3   OH245366   1.856   1.448  14.035  0.5778  0.3001 -0.1378
 7984TIP3    H145367   1.769   1.444  13.995  0.8608 -0.7671 -0.6914
 7984TIP3    H245368   1.850   1.390  14.111  0.5518  0.9588  0.3775
 7985TIP3   OH245369   2.622   6.330  12.746 -0.2971  0.4604  0.3668
 7985TIP3    H145370   2.662   6.305  12.829  0.9289 -0.8397 -0.5624
 7985TIP3    H245371   2.690   6.314  12.681 -0.6159  3.0994 -0.7379
 7986TIP3   OH245372   5.229   2.671   1.254 -0.3340 -0.1090 -0.1699
 7986TIP3    H145373   5.152   2.648   1.305 -0.6197  3.5246  1.3181
 7986TIP3    H245374   5.196   2.721   1.179  0.4651  1.9821  0.7789
 7987TIP3   OH245375   1.983   1.706  17.187  0.0881 -0.1162 -0.4308
 7987TIP3    H145376   2.064   1.724  17.141  0.2537  0.2217 -0.0171
 7987TIP3    H245377   1.997   1.741  17.275 -1.0005  1.1758 -0.7487
 7988TIP3   OH245378   2.615   4.624  12.330  0.8038 -0.4158 -0.2240
 7988TIP3    H145379   2.613   4.632  12.425 -0.1193  0.3619 -0.2971
 7988TIP3    H245380   2.667   4.699  12.301  1.2679 -0.7723 -0.3311
 7989TIP3   OH245381   3.844   2.227   0.414 -0.7982 -1.1080 -0.5196
 7989TIP3    H145382   3.924   2.196   0.457  0.0987  0.5450 -0.9037
 7989TIP3    H245383   3.830   2.165   0.342  0.5117 -1.0868 -0.8252
 7990TIP3   OH245384   1.291   1.944   4.986 -0.2161 -0.4671  0.3232
 7990TIP3    H145385   1.378   1.921   4.952 -0.9361 -0.0268 -1.9944
 7990TIP3    H245386   1.295   1.921   5.078  2.3654 -0.4636  0.2932
 7991TIP3   OH245387   6.155   5.588   5.146 -0.0733 -0.3026 -0.6179
 7991TIP3    H145388   6.087   5.521   5.156  0.3891 -0.8432 -1.0181
 7991TIP3    H245389   6.108   5.670   5.142 -0.7588 -0.7282 -1.6171
 7992TIP3   OH245390   5.071   1.390   1.517 -0.2558  0.2833 -0.5522
 7992TIP3    H145391   4.979   1.415   1.511 -0.3096 -0.0787 -1.3332
 7992TIP3    H245392   5.114   1.466   1.557 -0.9408  0.3301  0.1074
 7993TIP3   OH245393   1.033   0.430  15.605  0.0256 -0.0517  0.6007
 7993TIP3    H145394   1.037   0.375  15.527 -0.0049  1.8427 -0.8293
 7993TIP3    H245395   0.972   0.385  15.664  1.8059 -2.7146  0.5751
 7994TIP3   OH245396   4.001   1.276   4.410 -0.2120  0.0154  0.2935
 7994TIP3    H145397   4.047   1.214   4.353 -1.6172 -0.0644 -0.8192
 7994TIP3    H245398   4.019   1.362   4.371 -1.3832 -0.0596 -0.5015
 7995TIP3   OH245399   4.277   1.064   2.923  0.7126 -0.3345 -0.0721
 7995TIP3    H145400   4.331   0.988   2.902  1.2951  0.3242 -1.0385
 7995TIP3    H245401   4.320   1.105   2.997 -0.6456 -1.9639  1.7141
 7996TIP3   OH245402   0.209   5.022   5.341 -0.5056  0.0685 -0.3363
 7996TIP3    H145403   0.256   5.087   5.288  2.2940 -2.4084 -1.1518
 7996TIP3    H245404   0.214   5.057   5.430  1.9603  0.5432 -0.5746
 7997TIP3   OH245405   5.177   4.205  15.165  0.5322  0.1431 -0.3803
 7997TIP3    H145406   5.181   4.266  15.238  2.0622  0.9211 -1.0749
 7997TIP3    H245407   5.145   4.258  15.092 -1.4558 -0.7411 -0.2167
 7998TIP3   OH245408   6.548   2.898  15.849 -0.6697  0.4290  0.4251
 7998TIP3    H145409   6.506   2.904  15.763 -0.3162  1.5102  0.3126
 7998TIP3    H245410   6.483   2.936  15.909  0.0040  1.8456  0.2904
 7999TIP3   OH245411   5.743   1.098   5.202 -0.1101  0.5116 -0.0952
 7999TIP3    H145412   5.740   1.132   5.291 -0.7581  2.2777 -0.7379
 7999TIP3    H245413   5.652   1.107   5.171  0.1277  0.0088 -0.9607
 8000TIP3   OH245414   1.326   0.407   3.891 -0.0505  0.0650 -0.4176
 8000TIP3    H145415   1.312   0.395   3.985 -0.6226 -0.6388 -0.5797
 8000TIP3    H245416   1.326   0.502   3.879 -1.0648  0.1513  0.1490
 8001TIP3   OH245417   3.683   5.431   1.123  0.6437  0.0143 -0.9335
 8001TIP3    H145418   3.733   5.461   1.047  1.5008 -0.8958 -0.7452
 8001TIP3    H245419   3.749   5.393   1.181  0.1503  1.4802  0.6806
 8002TIP3   OH245420   2.447   2.024   0.003 -0.7695  0.3884 -0.0417
 8002TIP3    H145421   2.518   2.055   0.059  0.2363 -0.1754 -0.9676
 8002TIP3    H245422   2.447   2.084  -0.071  0.3164 -0.9603 -1.1942
 8003TIP3   OH245423   0.683   2.342  11.718 -0.5702  0.0512  0.0707
 8003TIP3    H145424   0.699   2.261  11.669  0.5972  0.5058 -0.3300
 8003TIP3    H245425   0.705   2.412  11.657 -0.0024  0.6422  0.9188
 8004TIP3   OH245426   0.852   2.701  11.580  0.8519  0.1424  0.2608
 8004TIP3    H145427   0.820   2.618  11.545 -1.8192  1.2354 -0.1312
 8004TIP3    H245428   0.925   2.725  11.523  0.3344 -0.9435 -0.8909
 8005TIP3   OH245429   4.255   0.948  13.806 -0.4028 -0.5788  0.2669
 8005TIP3    H145430   4.249   0.855  13.785  0.5243 -0.7050  0.5082
 8005TIP3    H245431   4.256   0.951  13.902 -0.1233 -0.3555  0.2607
 8006TIP3   OH245432   2.447   3.044   2.408 -0.0685  0.0960  0.3651
 8006TIP3    H145433   2.510   3.043   2.336  0.3979  1.7743  0.7092
 8006TIP3    H245434   2.365   3.070   2.367  0.3959  1.9921  0.5172
 8007TIP3   OH245435   1.092   3.254  12.568  0.4106 -0.2860  0.3582
 8007TIP3    H145436   1.034   3.327  12.547  0.4684 -0.4109 -0.2434
 8007TIP3    H245437   1.039   3.176  12.549  1.3460 -0.4294 -1.9191
 8008TIP3   OH245438   4.154   6.151  11.700  0.0486 -0.1035  0.7164
 8008TIP3    H145439   4.065   6.183  11.686 -0.0295 -0.5351  0.1931
 8008TIP3    H245440   4.170   6.091  11.627  1.0175  0.4782  0.4423
 8009TIP3   OH245441   4.595   4.158   3.382  0.3406 -0.0932 -0.2152
 8009TIP3    H145442   4.522   4.103   3.356  1.7182 -2.2123  0.1660
 8009TIP3    H245443   4.669   4.124   3.331  1.3566  1.0867  0.4252
 8010TIP3   OH245444   2.629   5.332  15.682  0.4964 -0.7665 -0.5951
 8010TIP3    H145445   2.583   5.375  15.754  1.4619 -1.0005  0.1932
 8010TIP3    H245446   2.678   5.261  15.724  0.2179 -1.6102 -1.6460
 8011TIP3   OH245447   4.884   6.383  13.784 -0.0726  0.1205 -0.2357
 8011TIP3    H145448   4.945   6.340  13.724 -0.9742  1.0111 -1.8374
 8011TIP3    H245449   4.922   6.470  13.798  0.3362 -0.2113  0.8413
 8012TIP3   OH245450   0.169   0.359   3.090  0.3950 -0.0050  0.5198
 8012TIP3    H145451   0.171   0.272   3.131 -0.4238  0.2793  1.1987
 8012TIP3    H245452   0.190   0.419   3.162  0.4988  0.3913  0.1580
 8013TIP3   OH245453   6.248   2.304   1.426  0.2236 -1.0109  0.1419
 8013TIP3    H145454   6.215   2.353   1.350 -1.3008 -2.3232 -0.1060
 8013TIP3    H245455   6.176   2.305   1.488  1.3334 -0.2714  1.4617
 8014TIP3   OH245456   4.593   4.962  11.741  0.2764  1.0340  0.0586
 8014TIP3    H145457   4.596   4.881  11.691  0.8438  0.7055  0.6100
 8014TIP3    H245458   4.522   4.948  11.805  1.3536  0.3600  1.1497
 8015TIP3   OH245459   4.629   1.784  15.891 -0.6178  0.0990 -0.4385
 8015TIP3    H145460   4.626   1.702  15.941  0.6808 -0.0110 -0.5070
 8015TIP3    H245461   4.692   1.838  15.939 -0.0373  0.3314 -1.4329
 8016TIP3   OH245462   0.026   4.175   3.240 -0.0835 -0.1902 -0.3478
 8016TIP3    H145463  -0.010   4.099   3.195 -1.5329  0.9184 -1.1642
 8016TIP3    H245464   0.016   4.247   3.177 -0.8466  1.1128  1.1811
 8017TIP3   OH245465   3.017   2.580   6.555 -0.4770  0.2363  0.4886
 8017TIP3    H145466   3.100   2.587   6.601  1.8345  0.9033 -3.2979
 8017TIP3    H245467   2.983   2.669   6.554  0.1957  0.5010 -0.2037
 8018TIP3   OH245468   0.695   2.779   4.700  0.0307  0.1994 -0.1279
 8018TIP3    H145469   0.763   2.739   4.754 -0.9533  0.2149  1.1568
 8018TIP3    H245470   0.737   2.856   4.661  1.1265 -0.5247 -0.4142
 8019TIP3   OH245471   5.571   6.622  11.635 -0.3418  0.1203  0.6497
 8019TIP3    H145472   5.617   6.668  11.565 -0.1878  1.2455  1.4514
 8019TIP3    H245473   5.641   6.581  11.686 -0.1120  2.0652  2.0330
 8020TIP3   OH245474   0.635   2.036  16.664 -0.0037 -0.3335 -0.0976
 8020TIP3    H145475   0.718   2.068  16.700 -0.3863  1.1581 -0.4557
 8020TIP3    H245476   0.575   2.036  16.739  0.2799 -1.3258  0.1422
 8021TIP3   OH245477   4.849   5.160   5.264 -0.1703 -0.4489 -0.1451
 8021TIP3    H145478   4.779   5.218   5.235  0.6517  0.5975 -0.0833
 8021TIP3    H245479   4.848   5.088   5.200  0.8146  1.2047 -2.1420
 8022TIP3   OH245480   5.529   2.292  12.635  0.2241 -0.1920 -0.1566
 8022TIP3    H145481   5.526   2.361  12.569  1.3680  0.7009  0.6796
 8022TIP3    H245482   5.443   2.295  12.677  0.3259  0.8755  0.0041
 8023TIP3   OH245483   6.372   3.630   3.654  0.0077 -0.8166 -0.2776
 8023TIP3    H145484   6.451   3.653   3.606  0.5389 -1.2263  0.3967
 8023TIP3    H245485   6.315   3.590   3.588  1.0073 -2.0131 -0.4299
 8024TIP3   OH245486   6.170   1.485  17.380 -0.2434 -0.3974  0.7197
 8024TIP3    H145487   6.169   1.566  17.430 -0.6459  0.5749 -0.7917
 8024TIP3    H245488   6.106   1.429  17.424 -0.9589  0.6134  1.0007
 8025TIP3   OH245489   1.765   0.455  15.539 -0.1498  0.1005  0.2989
 8025TIP3    H145490   1.684   0.406  15.527 -0.7214  1.1984 -0.5041
 8025TIP3    H245491   1.789   0.484  15.451  2.2931 -1.9608  0.1774
 8026TIP3   OH245492   2.428   4.975  15.331  0.0452 -0.2419  0.3115
 8026TIP3    H145493   2.400   4.927  15.409  1.0276 -1.4651 -0.0655
 8026TIP3    H245494   2.389   4.927  15.258 -0.5899  0.6998  0.0062
 8027TIP3   OH245495   6.195   1.329  15.102 -0.2617  0.1991  0.8425
 8027TIP3    H145496   6.234   1.382  15.033 -2.9371  0.0955 -0.9144
 8027TIP3    H245497   6.130   1.386  15.143  1.3153  0.2803  3.4461
 8028TIP3   OH245498   2.971   4.018  16.302 -0.4277  0.1346  0.0929
 8028TIP3    H145499   2.977   4.028  16.207  0.6636 -1.0982  0.0026
 8028TIP3    H245500   2.902   3.952  16.314 -0.5156  0.2385  0.1642
 8029TIP3   OH245501   6.289   2.388   3.833 -0.2787  0.2983  0.3183
 8029TIP3    H145502   6.285   2.358   3.924 -0.4312 -1.4265 -0.2366
 8029TIP3    H245503   6.200   2.416   3.813 -0.1072  1.3279  0.8715
 8030TIP3   OH245504   4.653   6.142  14.450 -0.3743  0.2208  0.1408
 8030TIP3    H145505   4.564   6.151  14.417 -0.0813 -0.3863 -0.8921
 8030TIP3    H245506   4.644   6.137  14.545 -1.4161  0.4126  0.0587
 8031TIP3   OH245507   2.262   5.817  16.560 -0.7222  0.0763 -0.1772
 8031TIP3    H145508   2.270   5.911  16.546 -0.5575 -0.0097 -0.7020
 8031TIP3    H245509   2.168   5.801  16.565 -0.8421  0.0419 -1.8516
 8032TIP3   OH245510   2.282   6.233   5.427  0.0200 -0.1198 -0.3311
 8032TIP3    H145511   2.354   6.266   5.481  0.5388 -0.7633 -0.6171
 8032TIP3    H245512   2.214   6.300   5.434 -0.0500 -0.3473  1.3827
 8033TIP3   OH245513   5.704   6.696  14.330  0.2265 -0.5263 -0.2182
 8033TIP3    H145514   5.768   6.755  14.370  0.6758 -0.8786 -0.4101
 8033TIP3    H245515   5.756   6.636  14.277 -0.2703 -0.7767 -0.4310
 8034TIP3   OH245516   0.549   4.755   5.915  0.0128  0.5750  0.4135
 8034TIP3    H145517   0.573   4.709   5.996 -1.2094  1.2126  1.1700
 8034TIP3    H245518   0.496   4.691   5.867 -1.9683  1.2010  1.6162
 8035TIP3   OH245519   4.229   0.851   0.897  0.1348  0.6393  0.6158
 8035TIP3    H145520   4.193   0.783   0.839 -0.2173 -1.2150  2.8643
 8035TIP3    H245521   4.234   0.929   0.842  0.1676 -1.0836 -1.9891
 8036TIP3   OH245522   2.607   0.413  17.319  0.1384  0.4705 -0.3391
 8036TIP3    H145523   2.551   0.335  17.321 -0.2865  0.7257  2.2595
 8036TIP3    H245524   2.650   0.413  17.405  0.3334  2.9514 -0.3705
 8037TIP3   OH245525   0.043   0.676  15.573  0.6136 -0.2801 -0.6841
 8037TIP3    H145526  -0.025   0.733  15.609  1.7989  0.6303  0.1988
 8037TIP3    H245527   0.004   0.641  15.493 -1.0590 -0.1728  0.0282
 8038TIP3   OH245528   5.207   3.027   4.399  0.3809 -0.1081 -0.0427
 8038TIP3    H145529   5.285   3.008   4.451  0.0954 -0.3335  0.3123
 8038TIP3    H245530   5.240   3.065   4.318  1.0523 -2.5994 -1.0548
 8039TIP3   OH245531   1.247   1.618  13.797 -0.4684 -0.4360  0.1830
 8039TIP3    H145532   1.273   1.535  13.837 -0.0854 -0.3002  0.2206
 8039TIP3    H245533   1.306   1.683  13.835 -1.3431  0.0088  0.8308
 8040TIP3   OH245534   4.505   2.597  16.020  0.3169 -0.0801  0.1393
 8040TIP3    H145535   4.422   2.549  16.019 -0.9218  1.9017  1.2042
 8040TIP3    H245536   4.523   2.615  15.928 -1.5211  1.1170 -0.0535
 8041TIP3   OH245537   2.979   3.827   1.755 -0.2527 -0.2207 -0.0983
 8041TIP3    H145538   3.036   3.900   1.780 -0.7921  0.4288 -0.7154
 8041TIP3    H245539   2.902   3.837   1.811 -0.2766 -0.3791 -0.1040
 8042TIP3   OH245540   2.374   1.900  12.563 -0.0162 -0.2171  0.0025
 8042TIP3    H145541   2.374   1.953  12.483  1.4539 -1.0159 -0.5880
 8042TIP3    H245542   2.372   1.963  12.634 -0.5992  0.5434 -0.6752
 8043TIP3   OH245543   2.225   3.626  13.786 -0.2003  0.4386 -0.1175
 8043TIP3    H145544   2.226   3.712  13.744  0.0640  0.2122 -0.5780
 8043TIP3    H245545   2.307   3.585  13.759  1.7570  1.6156  3.3876
 8044TIP3   OH245546   0.434   0.928  15.612 -0.5269  0.2752 -0.4018
 8044TIP3    H145547   0.348   0.897  15.639 -0.9002  1.9539  0.4732
 8044TIP3    H245548   0.459   0.992  15.679  1.6944 -0.6095 -0.2845
 8045TIP3   OH245549   5.020   6.556   4.202 -0.5123  0.4769 -0.3660
 8045TIP3    H145550   4.955   6.561   4.131 -0.4647 -0.0458 -0.4516
 8045TIP3    H245551   4.973   6.582   4.280 -0.6429  0.7784 -0.5454
 8046TIP3   OH245552   1.689   2.622   1.236 -0.1638 -0.0714  0.2807
 8046TIP3    H145553   1.652   2.541   1.200  1.3862 -1.2336  1.1401
 8046TIP3    H245554   1.710   2.675   1.159 -0.4928 -0.8242 -0.3421
 8047TIP3   OH245555   2.305   3.873  13.292  0.1566 -0.1231  0.1435
 8047TIP3    H145556   2.370   3.811  13.258 -2.0670 -2.0545 -0.8333
 8047TIP3    H245557   2.229   3.861  13.235 -1.4586  1.2679  1.9054
 8048TIP3   OH245558   3.093   5.877  13.334  0.1320  0.1313 -0.2526
 8048TIP3    H145559   3.186   5.888  13.357  0.1678  1.2706 -0.8419
 8048TIP3    H245560   3.063   5.805  13.388  1.0375  0.5859  0.9052
 8049TIP3   OH245561   0.340   4.673   1.895  0.2158  0.3241 -0.3860
 8049TIP3    H145562   0.250   4.700   1.911 -0.3514 -0.9173 -1.2946
 8049TIP3    H245563   0.384   4.752   1.864 -0.2228  1.2369  1.1993
 8050TIP3   OH245564   4.088   6.120  14.205  0.1390  0.3757 -0.6820
 8050TIP3    H145565   4.001   6.100  14.172 -0.2115  0.6184  0.0915
 8050TIP3    H245566   4.146   6.065  14.152 -0.3913  0.8483 -1.7798
 8051TIP3   OH245567   0.675   5.800  15.492 -0.1399 -0.8299  0.0843
 8051TIP3    H145568   0.713   5.857  15.426  0.5905 -0.0411  1.1536
 8051TIP3    H245569   0.583   5.824  15.494 -0.0834 -0.5654 -0.3580
 8052TIP3   OH245570   5.725   1.114  17.083 -0.1498  0.0181  0.4638
 8052TIP3    H145571   5.738   1.200  17.043  1.2756 -0.6859 -0.7220
 8052TIP3    H245572   5.753   1.125  17.174  2.1538  0.3623 -0.2038
 8053TIP3   OH245573   0.511   0.579  16.795 -0.3148  0.1627 -0.6970
 8053TIP3    H145574   0.487   0.601  16.705 -1.6029 -0.1783 -0.4496
 8053TIP3    H245575   0.475   0.650  16.847  0.6467  0.4923 -0.4454
 8054TIP3   OH245576   6.371   1.890  15.605 -0.4907  0.1217 -0.4695
 8054TIP3    H145577   6.420   1.966  15.636  0.7445 -0.1445 -1.6883
 8054TIP3    H245578   6.438   1.826  15.582 -1.4481 -0.5562 -1.4449
 8055TIP3   OH245579   0.498   0.790   2.133 -0.5226  0.7706 -0.6806
 8055TIP3    H145580   0.440   0.856   2.171 -1.4281 -0.2060 -0.3183
 8055TIP3    H245581   0.539   0.747   2.207  0.1006  0.9542 -0.9156
 8056TIP3   OH245582   6.306   6.496   5.995 -0.4363 -0.2357 -0.6280
 8056TIP3    H145583   6.281   6.572   5.942  0.2023 -0.6024 -1.4613
 8056TIP3    H245584   6.235   6.434   5.984 -0.2845 -0.3280 -1.0887
 8057TIP3   OH245585   2.398   6.325   2.815  0.1107  0.1285 -0.4410
 8057TIP3    H145586   2.362   6.259   2.874  2.5034 -1.3587 -0.5005
 8057TIP3    H245587   2.430   6.394   2.874 -1.6142  0.9080 -0.3372
 8058TIP3   OH245588   2.328   2.653   1.402 -0.0503  0.2555  0.1199
 8058TIP3    H145589   2.293   2.645   1.491 -1.7949  0.7637 -0.4776
 8058TIP3    H245590   2.363   2.742   1.397  2.1528 -0.4925  0.9531
 8059TIP3   OH245591   3.433   2.714   1.584 -0.3042 -0.4953  0.0691
 8059TIP3    H145592   3.463   2.635   1.539 -0.4165 -0.8389  0.5767
 8059TIP3    H245593   3.501   2.779   1.567 -1.2692  0.0025 -2.2112
 8060TIP3   OH245594   1.320   5.996   6.166  0.2855 -0.3611  0.3186
 8060TIP3    H145595   1.346   5.970   6.254  1.2720  1.3691  0.5614
 8060TIP3    H245596   1.350   6.086   6.157  1.9483 -1.0766 -2.4746
 8061TIP3   OH245597   2.985   4.807   2.619 -0.4733  0.3344  0.2674
 8061TIP3    H145598   3.058   4.830   2.676 -2.1283  1.6348  1.9773
 8061TIP3    H245599   2.996   4.713   2.603  1.1961  0.3678  0.9634
 8062TIP3   OH245600   0.699   1.711   2.180  0.6744  0.4339  0.8711
 8062TIP3    H145601   0.712   1.799   2.216  0.1343  0.9274 -0.0934
 8062TIP3    H245602   0.610   1.687   2.205  0.6247  0.3937  0.6581
 8063TIP3   OH245603   6.130   3.810   4.224 -0.3096 -0.1029  0.2078
 8063TIP3    H145604   6.183   3.731   4.239  0.3499  0.0881 -1.0291
 8063TIP3    H245605   6.194   3.877   4.202 -0.8717  0.7850  1.1707
 8064TIP3   OH245606   1.575   4.408  12.868  0.6696  0.1867 -0.2738
 8064TIP3    H145607   1.490   4.366  12.883  1.0293  0.0470  1.7123
 8064TIP3    H245608   1.553   4.493  12.831 -0.2599 -0.3549 -1.0230
 8065TIP3   OH245609   2.461   4.736  17.131 -0.1118  0.1058  0.2696
 8065TIP3    H145610   2.494   4.679  17.062  1.0925  0.9294  0.1400
 8065TIP3    H245611   2.366   4.720  17.132  0.2411 -2.2972  0.6370
 8066TIP3   OH245612   0.343   4.129  14.232  0.1400 -0.2631 -0.0830
 8066TIP3    H145613   0.278   4.150  14.165  0.4812 -2.9197 -1.3705
 8066TIP3    H245614   0.294   4.080  14.298  0.4838 -0.7754 -0.2040
 8067TIP3   OH245615   0.441   4.398  15.805 -0.1653 -0.4562  0.4303
 8067TIP3    H145616   0.389   4.318  15.801 -0.4341 -0.3196  1.0408
 8067TIP3    H245617   0.499   4.385  15.880 -0.7638  0.2335  1.0382
 8068TIP3   OH245618   0.854   6.692   5.416 -0.0733  0.3916 -0.2095
 8068TIP3    H145619   0.933   6.702   5.363  1.1399 -3.5457  0.5060
 8068TIP3    H245620   0.880   6.718   5.504  0.5281 -0.9108  0.0280
 8069TIP3   OH245621   1.917   5.876  16.329  0.0941 -0.9640  0.1444
 8069TIP3    H145622   1.828   5.908  16.314 -0.2902 -2.5707 -1.3855
 8069TIP3    H245623   1.928   5.806  16.265  3.0954  0.3180 -0.9167
 8070TIP3   OH245624   5.941   2.066  11.639  0.4675  0.2627 -0.2619
 8070TIP3    H145625   5.846   2.058  11.634  0.3852  1.4307 -1.0591
 8070TIP3    H245626   5.969   1.993  11.694 -0.7316 -1.1522 -1.4406
 8071TIP3   OH245627   5.558   5.397   6.147 -0.2367 -0.0616 -0.1755
 8071TIP3    H145628   5.492   5.448   6.194 -0.1653 -1.3170  1.3455
 8071TIP3    H245629   5.507   5.342   6.088 -0.3913  0.6509 -0.7275
 8072TIP3   OH245630   1.064   2.552  17.256  0.1657 -0.3051 -0.7879
 8072TIP3    H145631   0.972   2.542  17.230  0.0366 -0.6148 -0.2366
 8072TIP3    H245632   1.074   2.645  17.274 -1.1990 -0.7194  3.1936
 8073TIP3   OH245633   2.593   5.620  14.905 -0.9313 -0.4139  0.3120
 8073TIP3    H145634   2.574   5.710  14.932 -0.8394 -0.8838  2.0885
 8073TIP3    H245635   2.543   5.608  14.824 -0.7380  1.3000 -0.1041
 8074TIP3   OH245636   0.060   2.659  10.845 -0.1383  0.2690 -0.0338
 8074TIP3    H145637   0.065   2.753  10.829 -1.8286  0.7335  1.6657
 8074TIP3    H245638  -0.018   2.631  10.797 -0.5838  0.0934  0.7694
 8075TIP3   OH245639   5.854   5.462  14.581  0.0641 -0.2596 -0.0984
 8075TIP3    H145640   5.852   5.366  14.575  1.5019 -0.6125  3.2059
 8075TIP3    H245641   5.908   5.489  14.506 -0.9589 -1.9053 -1.5188
 8076TIP3   OH245642   6.618   1.744   1.597  0.0919 -0.4564 -0.3038
 8076TIP3    H145643   6.669   1.667   1.573  0.8246 -0.2643  0.5560
 8076TIP3    H245644   6.632   1.754   1.692  1.2659  1.5885 -0.6207
 8077TIP3   OH245645   6.496   1.819   6.504 -0.0972  0.4120  0.1049
 8077TIP3    H145646   6.533   1.735   6.474  2.5742  1.7896 -0.7246
 8077TIP3    H245647   6.550   1.844   6.578 -1.3038  1.1100  0.7675
 8078TIP3   OH245648   0.265   6.670  14.451  0.1826  0.1905  0.6758
 8078TIP3    H145649   0.242   6.580  14.431 -0.9702  0.4491  0.7935
 8078TIP3    H245650   0.237   6.720  14.375 -0.4290  0.6244  1.1719
 8079TIP3   OH245651   0.440   3.642  13.112 -0.3789  0.1264 -0.0100
 8079TIP3    H145652   0.525   3.683  13.099 -0.2590 -0.5071 -1.3501
 8079TIP3    H245653   0.431   3.581  13.039 -1.3370 -0.9117  0.9309
 8080TIP3   OH245654   4.797   0.395   0.227  0.2051  0.2834 -0.1032
 8080TIP3    H145655   4.840   0.395   0.141 -1.1274  1.5990 -0.8293
 8080TIP3    H245656   4.706   0.418   0.208 -0.6855 -1.6793  1.4441
 8081TIP3   OH245657   6.587   6.242   2.124 -0.6444  0.1902  0.2489
 8081TIP3    H145658   6.543   6.221   2.207 -2.3176  3.8200  0.4623
 8081TIP3    H245659   6.523   6.295   2.076  1.6536  1.2755 -1.7984
 8082TIP3   OH245660   2.888   3.719   2.394 -0.2938 -0.1369  0.0409
 8082TIP3    H145661   2.978   3.707   2.365 -0.3457  0.6850 -0.4790
 8082TIP3    H245662   2.890   3.700   2.488  0.3777 -0.2947 -0.0051
 8083TIP3   OH245663   5.608   5.529  16.404  0.1916 -0.0903  0.2660
 8083TIP3    H145664   5.642   5.458  16.458 -0.4893  0.4396  1.4404
 8083TIP3    H245665   5.581   5.487  16.323 -3.2370 -1.8586  2.0996
 8084TIP3   OH245666   3.654   5.366  17.145 -0.1162  0.1322  0.0297
 8084TIP3    H145667   3.589   5.346  17.213 -0.5545  1.9556  0.2004
 8084TIP3    H245668   3.710   5.289  17.143 -0.7026 -0.3948  1.7547
 8085TIP3   OH245669   1.341   1.376   2.043  1.0376  0.5490  0.6770
 8085TIP3    H145670   1.341   1.425   1.961  0.0728 -1.1672 -0.4111
 8085TIP3    H245671   1.279   1.423   2.099  0.2107  0.6738 -0.3028
 8086TIP3   OH245672   3.180   1.554   0.059 -0.0394 -0.1976 -0.2623
 8086TIP3    H145673   3.123   1.481   0.035 -1.0391  0.3817  0.2805
 8086TIP3    H245674   3.223   1.578  -0.023  0.3395 -1.4064 -0.4416
 8087TIP3   OH245675   0.847   3.442   3.913  0.2554 -0.9206  0.0082
 8087TIP3    H145676   0.752   3.452   3.900  0.2471 -1.3489 -0.2944
 8087TIP3    H245677   0.861   3.348   3.912  0.8334 -0.8426 -1.0866
 8088TIP3   OH245678   5.462   0.866  12.955  0.3613 -0.0194  0.0623
 8088TIP3    H145679   5.471   0.812  12.876  1.0518  1.8391 -1.2183
 8088TIP3    H245680   5.552   0.895  12.974  0.0739  0.2853  0.9896
 8089TIP3   OH245681   1.812   3.076   5.946 -0.0249  0.2071 -0.2491
 8089TIP3    H145682   1.838   3.077   6.039  0.3103  0.5528 -0.3441
 8089TIP3    H245683   1.754   3.000   5.939  1.0536 -0.6798 -0.0496
 8090TIP3   OH245684   6.381   4.565   2.688  0.2781 -0.4293  0.2489
 8090TIP3    H145685   6.355   4.641   2.740  1.9285 -0.7263  1.6376
 8090TIP3    H245686   6.394   4.599   2.600 -2.6506  0.0840 -0.0794
 8091TIP3   OH245687   4.839   5.909  12.494 -0.1650 -0.3857  0.7149
 8091TIP3    H145688   4.762   5.914  12.437 -1.0048 -0.9935  1.7448
 8091TIP3    H245689   4.851   5.999  12.526  1.0367  0.2119 -1.2859
 8092TIP3   OH245690   6.557   4.828  12.491 -0.1306 -0.0787  0.3988
 8092TIP3    H145691   6.642   4.801  12.526 -0.1947  0.2367  0.8019
 8092TIP3    H245692   6.542   4.768  12.417  1.1284  0.8368 -0.6459
 8093TIP3   OH245693   3.586   5.499  14.537 -0.4884 -0.7259 -0.4943
 8093TIP3    H145694   3.567   5.424  14.480 -0.6399 -0.6473 -0.5455
 8093TIP3    H245695   3.682   5.506  14.536 -0.4071 -1.5221  0.2756
 8094TIP3   OH245696   2.574   2.864   0.013 -0.4233  0.2734 -0.6833
 8094TIP3    H145697   2.632   2.935  -0.016 -0.0105  0.3854  0.3538
 8094TIP3    H245698   2.550   2.889   0.102 -1.4991 -0.1371 -0.8525
 8095TIP3   OH245699   0.907   3.899  13.923 -0.6699  0.5871 -0.0887
 8095TIP3    H145700   0.896   3.912  13.829  1.0922 -0.9371 -0.5738
 8095TIP3    H245701   1.001   3.900  13.937 -0.9157  2.6111  2.0059
 8096TIP3   OH245702   5.290   4.035  11.393 -0.1001 -0.2143 -0.5193
 8096TIP3    H145703   5.257   4.125  11.387 -0.5970 -0.4140 -0.8014
 8096TIP3    H245704   5.236   3.985  11.332 -1.3256 -1.1485  1.2521
 8097TIP3   OH245705   2.759   3.158   3.138  0.2199  0.0248  0.0733
 8097TIP3    H145706   2.682   3.110   3.106  0.9455  0.9618 -3.4228
 8097TIP3    H245707   2.723   3.232   3.186 -0.9680 -1.1726  1.1008
 8098TIP3   OH245708   2.826   1.886   3.415  0.5085 -0.2982  0.1979
 8098TIP3    H145709   2.779   1.967   3.399  1.2077  0.4932  1.8996
 8098TIP3    H245710   2.914   1.901   3.380  1.1690  0.3791  2.0282
 8099TIP3   OH245711   0.515   0.778   5.299 -0.5318  0.2903  0.1924
 8099TIP3    H145712   0.515   0.814   5.210  0.0754  0.3218  0.1989
 8099TIP3    H245713   0.608   0.763   5.319 -0.7631 -1.4163  0.1333
 8100TIP3   OH245714   3.716   6.383  11.915 -0.6717 -0.4295 -0.4043
 8100TIP3    H145715   3.654   6.311  11.901 -1.2058 -0.2616  0.9758
 8100TIP3    H245716   3.726   6.387  12.010 -0.9885  1.6068 -0.4302
 8101TIP3   OH245717   6.122   5.055   4.300  0.0491  0.2968 -0.2495
 8101TIP3    H145718   6.106   4.983   4.361  2.2785 -0.5094 -0.5263
 8101TIP3    H245719   6.145   5.012   4.217 -1.1072  1.3643 -1.1659
 8102TIP3   OH245720   4.770   3.887   2.679  0.1865  0.0706  0.3010
 8102TIP3    H145721   4.734   3.972   2.704 -0.4904 -0.1062 -0.0279
 8102TIP3    H245722   4.856   3.907   2.643  1.2014  0.3327  2.7078
 8103TIP3   OH245723   3.255   6.526  12.822 -0.2473 -0.5620  0.3968
 8103TIP3    H145724   3.170   6.532  12.865 -1.0630 -1.4755 -0.9813
 8103TIP3    H245725   3.234   6.498  12.733  1.4664 -0.1880 -0.1591
 8104TIP3   OH245726   6.695   3.063   2.710 -1.0048  0.1273  0.5183
 8104TIP3    H145727   6.772   3.056   2.766 -1.0287  0.3571  0.5803
 8104TIP3    H245728   6.727   3.103   2.629 -0.4498 -2.4758 -0.6436
 8105TIP3   OH245729   5.219   4.328  14.098  0.0204 -0.1595  0.4004
 8105TIP3    H145730   5.153   4.260  14.108  1.1543 -1.5712 -1.0895
 8105TIP3    H245731   5.181   4.405  14.140 -2.4996 -0.9268 -0.2814
 8106TIP3   OH245732   3.633   2.041   1.480 -0.4250 -0.1223 -0.3462
 8106TIP3    H145733   3.647   2.108   1.547 -0.4242  2.2629 -2.5821
 8106TIP3    H245734   3.538   2.036   1.471 -0.5692 -2.2954  1.4636
 8107TIP3   OH245735   4.064   3.382   1.422 -0.2644  0.0810  0.1707
 8107TIP3    H145736   4.112   3.453   1.465 -0.3865  0.5644 -0.4741
 8107TIP3    H245737   4.101   3.378   1.334  0.6179 -1.4997  0.5747
 8108TIP3   OH245738   6.388   0.269   6.261  0.0547  0.2957 -0.1830
 8108TIP3    H145739   6.481   0.259   6.277  0.0841  1.3722  0.4635
 8108TIP3    H245740   6.381   0.345   6.203 -0.3577 -0.5703 -1.3023
 8109TIP3   OH245741   0.007   2.748  16.682 -0.5575  0.3020  0.2606
 8109TIP3    H145742   0.014   2.777  16.772  1.0066 -0.2178  0.3368
 8109TIP3    H245743  -0.033   2.822  16.636  1.7827  2.0018  0.7531
 8110TIP3   OH245744   0.784   3.094   0.060 -0.0320 -0.4581  0.6231
 8110TIP3    H145745   0.698   3.130   0.080  0.3244 -0.0641  1.4970
 8110TIP3    H245746   0.766   3.005   0.031 -0.6477 -0.8546  2.1203
 8111TIP3   OH245747   5.329   5.705   1.588 -0.2054  0.1042 -0.3271
 8111TIP3    H145748   5.263   5.774   1.587 -0.8187 -0.3806  1.5969
 8111TIP3    H245749   5.282   5.626   1.562 -0.6173 -0.3708  1.6920
 8112TIP3   OH245750   0.151   5.405   5.441 -0.2737  0.1820 -0.3869
 8112TIP3    H145751   0.140   5.375   5.532 -1.1553 -1.7513 -1.0690
 8112TIP3    H245752   0.093   5.481   5.434  0.5358  0.9699  0.9001
 8113TIP3   OH245753   2.419   6.460   4.910 -0.2062 -0.1475 -0.4305
 8113TIP3    H145754   2.440   6.456   4.817  1.3360  1.3065 -0.2224
 8113TIP3    H245755   2.398   6.552   4.925 -0.1778 -0.3109  0.6922
 8114TIP3   OH245756   3.061   6.555  13.024 -0.6807 -0.1723  0.3230
 8114TIP3    H145757   3.009   6.481  13.055 -2.1000  0.9843  0.8568
 8114TIP3    H245758   3.118   6.576  13.097  0.8194 -1.6305 -0.3685
 8115TIP3   OH245759   2.767   4.034   2.123  0.8325  0.4397  0.4906
 8115TIP3    H145760   2.817   4.023   2.205  0.1640 -0.4298  0.7994
 8115TIP3    H245761   2.676   4.044   2.151  0.5562 -0.1819 -0.1589
 8116TIP3   OH245762   2.377   4.842   4.816  0.1645  0.0500  0.6433
 8116TIP3    H145763   2.290   4.867   4.848 -0.6228 -0.3456 -1.0538
 8116TIP3    H245764   2.396   4.905   4.747 -0.5224 -2.0427 -1.6146
 8117TIP3   OH245765   3.538   2.151  15.587 -0.2847 -0.1190  0.9802
 8117TIP3    H145766   3.508   2.179  15.673  0.5083 -2.6497  2.1886
 8117TIP3    H245767   3.632   2.137  15.598 -0.6023 -3.3161  0.6818
 8118TIP3   OH245768   1.858   1.807   4.255  0.0957 -0.7018 -0.3719
 8118TIP3    H145769   1.830   1.818   4.346 -0.1356  0.3124 -0.5482
 8118TIP3    H245770   1.927   1.873   4.243 -1.3360  0.6877 -1.4986
 8119TIP3   OH245771   3.415   3.270   1.251  0.6353  0.0315 -0.6002
 8119TIP3    H145772   3.412   3.233   1.339 -2.3130 -2.4995 -1.6041
 8119TIP3    H245773   3.474   3.211   1.203 -0.2859 -0.5325 -1.0550
 8120TIP3   OH245774   1.219   4.849   5.864  0.4866  0.2656  0.6815
 8120TIP3    H145775   1.215   4.886   5.953 -1.0003  0.2448  0.6555
 8120TIP3    H245776   1.189   4.758   5.875  0.4921  0.2011  0.1859
 8121TIP3   OH245777   1.021   3.433  12.891 -0.8088 -0.3321  0.2242
 8121TIP3    H145778   0.970   3.357  12.865 -1.8808  0.2577  0.5761
 8121TIP3    H245779   0.959   3.506  12.890  0.1487  0.5072  0.0909
 8122TIP3   OH245780   0.579   6.098   4.905  0.1766 -0.1687  0.2624
 8122TIP3    H145781   0.619   6.164   4.849 -0.7402 -0.2542 -0.5358
 8122TIP3    H245782   0.651   6.040   4.929  0.8680  0.7374  0.4286
 8123TIP3   OH245783   3.757   3.856   5.887  0.0948 -0.3214 -0.8360
 8123TIP3    H145784   3.770   3.899   5.972 -0.6058 -1.3037 -0.2129
 8123TIP3    H245785   3.808   3.776   5.894  0.6007 -0.0708 -1.6203
 8124TIP3   OH245786   4.920   0.927  12.064 -0.1781 -0.4136  0.0596
 8124TIP3    H145787   4.881   0.914  11.977 -1.4875  0.3805  0.5029
 8124TIP3    H245788   4.994   0.986  12.048 -0.1149 -0.6537 -0.5762
 8125TIP3   OH245789   1.421   0.956   2.862  0.1731  0.6858 -0.0195
 8125TIP3    H145790   1.395   0.917   2.946 -0.0726 -0.7407 -0.7156
 8125TIP3    H245791   1.428   1.050   2.880  1.2524  0.3039  1.8708
 8126TIP3   OH245792   1.512   5.498  11.884 -0.5050  0.2073  0.4062
 8126TIP3    H145793   1.509   5.405  11.907  0.9623  0.2222  0.7787
 8126TIP3    H245794   1.549   5.499  11.796  1.6307  0.4820  1.2298
 8127TIP3   OH245795   1.892   4.448   2.206  0.1448 -0.0401  0.0991
 8127TIP3    H145796   1.974   4.441   2.158  0.3636 -1.5374  0.6348
 8127TIP3    H245797   1.855   4.359   2.205 -0.6661  0.2521  1.2294
 8128TIP3   OH245798   0.737   0.090  13.380  0.0142 -0.5842  0.7249
 8128TIP3    H145799   0.797   0.035  13.330  0.1296  1.0594 -1.0776
 8128TIP3    H245800   0.793   0.150  13.428 -0.1190  0.3635 -0.2596
 8129TIP3   OH245801   3.766   4.357   0.251  0.3200 -0.6553  0.1512
 8129TIP3    H145802   3.711   4.401   0.316  0.3059 -0.4690  0.0143
 8129TIP3    H245803   3.799   4.279   0.296 -1.2699 -1.6029 -0.2390
 8130TIP3   OH245804   4.034   4.255  13.020 -0.0281 -0.5107  0.3249
 8130TIP3    H145805   4.035   4.278  12.927 -2.9712 -2.0657 -0.2147
 8130TIP3    H245806   4.126   4.257  13.046  0.9719 -0.6718 -2.7846
 8131TIP3   OH245807   3.728   2.262  11.430 -0.0749  0.1059 -0.5526
 8131TIP3    H145808   3.765   2.193  11.376  0.9045  0.2007 -0.0436
 8131TIP3    H245809   3.638   2.272  11.400  0.1545 -0.5194 -1.4727
 8132TIP3   OH245810   3.760   3.106  13.005 -0.2416  0.2662 -0.5674
 8132TIP3    H145811   3.782   3.152  13.085  0.2923 -0.8313 -0.0637
 8132TIP3    H245812   3.739   3.175  12.942  0.8542  1.1995  0.0585
 8133TIP3   OH245813   2.685   0.535   5.778  0.6739  0.7921  0.2727
 8133TIP3    H145814   2.710   0.450   5.742  1.0464  1.1849 -0.4040
 8133TIP3    H245815   2.709   0.530   5.871 -0.9619 -0.4900  0.6747
 8134TIP3   OH245816   6.481   1.977  14.952 -0.1217 -0.1942 -0.0366
 8134TIP3    H145817   6.462   1.933  15.035  0.5208  0.2914  0.3804
 8134TIP3    H245818   6.511   2.064  14.978  1.0417 -0.3699 -0.7172
 8135TIP3   OH245819   5.961   3.676   0.472 -0.8453 -0.2688  0.3443
 8135TIP3    H145820   5.925   3.592   0.443  1.7785 -1.2376 -0.3675
 8135TIP3    H245821   6.047   3.681   0.431 -1.3809  3.4044 -0.6759
 8136TIP3   OH245822   0.609   4.994   4.920  0.0018  0.0370  0.0794
 8136TIP3    H145823   0.698   5.023   4.902  0.0650  0.9933  1.7707
 8136TIP3    H245824   0.563   5.074   4.948 -0.9780 -0.7308  0.7166
 8137TIP3   OH245825   1.884   4.740  11.597  0.1391  0.2378 -0.1624
 8137TIP3    H145826   1.814   4.701  11.546 -0.0983 -0.4488  0.6554
 8137TIP3    H245827   1.960   4.684  11.581 -0.5858 -1.6467  2.2406
 8138TIP3   OH245828   4.338   3.320  15.677 -0.4567  0.3212  0.0607
 8138TIP3    H145829   4.371   3.254  15.616 -2.4257  1.3584 -2.2811
 8138TIP3    H245830   4.243   3.306  15.679 -1.0848  3.5237 -1.2312
 8139TIP3   OH245831   6.595   5.453   0.932 -0.4999 -0.1722 -0.2963
 8139TIP3    H145832   6.554   5.539   0.940 -0.2009 -0.0620  0.1175
 8139TIP3    H245833   6.546   5.396   0.991  0.0399  0.0022  0.3347
 8140TIP3   OH245834   4.659   4.743   0.909  0.2936  0.3835 -0.3717
 8140TIP3    H145835   4.664   4.663   0.857 -0.8640  0.0425 -0.0008
 8140TIP3    H245836   4.689   4.718   0.996  3.2922  1.2103 -1.0562
 8141TIP3   OH245837   4.178   3.457   4.707 -0.4339  0.1458 -0.3360
 8141TIP3    H145838   4.118   3.385   4.688 -0.8434  0.7344 -1.3396
 8141TIP3    H245839   4.148   3.529   4.652 -0.4668  1.3264  1.1567
 8142TIP3   OH245840   3.081   1.554  11.615  0.4244 -0.0194 -0.6641
 8142TIP3    H145841   3.087   1.647  11.636  0.0050 -0.2005  0.3084
 8142TIP3    H245842   3.159   1.516  11.655  0.3137 -0.1622 -0.5820
 8143TIP3   OH245843   5.134   4.913   5.392  0.2645  0.5321  0.0488
 8143TIP3    H145844   5.186   4.840   5.358  0.3507 -0.3081  1.8407
 8143TIP3    H245845   5.132   4.977   5.321 -0.4568 -1.5213 -1.9037
 8144TIP3   OH245846   1.728   1.811  11.040  0.5618  0.2345  0.1449
 8144TIP3    H145847   1.704   1.730  11.086 -0.9407  1.1810  1.1413
 8144TIP3    H245848   1.820   1.799  11.016 -0.3687 -3.0039 -2.4690
 8145TIP3   OH245849   1.624   0.567   4.798 -0.1058 -0.1324  0.4304
 8145TIP3    H145850   1.644   0.529   4.883  0.1781  0.7928  0.7854
 8145TIP3    H245851   1.529   0.564   4.792 -0.0906 -0.9053  0.4389
 8146TIP3   OH245852   0.264   1.123  14.371 -0.0561  0.2114 -0.6733
 8146TIP3    H145853   0.222   1.059  14.429 -1.7879  0.0780 -2.0077
 8146TIP3    H245854   0.315   1.178  14.431  0.4722 -1.6167  0.6473
 8147TIP3   OH245855   3.151   5.053  14.597 -0.0210 -0.1599 -0.2597
 8147TIP3    H145856   3.130   5.051  14.503 -0.5886 -0.6497 -0.1273
 8147TIP3    H245857   3.177   5.144  14.613  0.2630 -0.1159 -0.9319
 8148TIP3   OH245858   0.824   5.870   2.119  0.0947  0.0190 -0.6605
 8148TIP3    H145859   0.894   5.886   2.182 -0.0853 -0.8847 -0.2157
 8148TIP3    H245860   0.781   5.791   2.151  0.0926 -0.5387 -1.9959
 8149TIP3   OH245861   0.935   0.973   2.567 -0.2299  0.1924 -0.2389
 8149TIP3    H145862   0.941   0.960   2.473 -0.7980 -0.1326 -0.2359
 8149TIP3    H245863   0.900   1.062   2.577  0.5056  0.4968 -0.3163
 8150TIP3   OH245864   0.935   4.067   3.578 -0.1783 -0.0648  0.0765
 8150TIP3    H145865   0.890   4.033   3.655  0.2558  0.1632  0.4343
 8150TIP3    H245866   0.888   4.029   3.504 -0.6284 -0.2441  0.4526
 8151TIP3   OH245867   0.640   6.575  11.529  0.0465 -0.6576 -0.2311
 8151TIP3    H145868   0.600   6.604  11.447  0.2409 -0.7520 -0.3574
 8151TIP3    H245869   0.566   6.556  11.586 -0.1141  1.1952  0.2513
 8152TIP3   OH245870   1.792   0.347  12.530 -0.8147 -0.1491  0.3558
 8152TIP3    H145871   1.796   0.333  12.436  1.5904  1.6557  0.1062
 8152TIP3    H245872   1.815   0.261  12.567 -3.2071 -1.2914 -0.5479
 8153TIP3   OH245873   3.820   3.091  11.615 -0.1217 -0.4868 -0.8283
 8153TIP3    H145874   3.807   3.072  11.522  0.5374 -0.6421 -0.8990
 8153TIP3    H245875   3.786   3.179  11.627  1.3797  0.2346 -1.6099
 8154TIP3   OH245876   2.942   5.713   3.980  0.3907 -0.1674  0.0715
 8154TIP3    H145877   3.029   5.680   4.003 -0.0490 -0.5358  1.2961
 8154TIP3    H245878   2.958   5.801   3.946  1.4740 -1.1083 -2.0709
 8155TIP3   OH245879   5.632   2.577   2.892 -0.0500 -0.4145  0.0756
 8155TIP3    H145880   5.555   2.578   2.835  0.0818  1.1863 -0.1177
 8155TIP3    H245881   5.661   2.486   2.891 -1.3944 -0.8693 -0.5705
 8156TIP3   OH245882   4.863   6.507   4.424 -0.7051  0.1325  0.1475
 8156TIP3    H145883   4.823   6.591   4.447  0.6238  0.8209 -0.0135
 8156TIP3    H245884   4.793   6.461   4.376 -0.9864  1.7530 -1.1066
 8157TIP3   OH245885   1.320   3.083  15.003  0.4234  0.7296 -0.0154
 8157TIP3    H145886   1.285   2.998  14.974 -0.0710  1.3140 -1.1899
 8157TIP3    H245887   1.333   3.072  15.098  0.3558 -0.6445 -0.1385
 8158TIP3   OH245888   2.267   1.896  15.121 -0.3745  0.0225  0.2832
 8158TIP3    H145889   2.284   1.811  15.161  2.1807 -0.3997 -1.4087
 8158TIP3    H245890   2.353   1.939  15.120 -1.3809  2.1423  0.0306
 8159TIP3   OH245891   5.520   4.356   0.848 -0.1562  0.5337 -0.3216
 8159TIP3    H145892   5.494   4.290   0.913  0.2132 -0.9999 -1.6572
 8159TIP3    H245893   5.590   4.406   0.891  1.0977 -1.3749 -0.0100
 8160TIP3   OH245894   0.049   5.766   1.179 -0.2701 -0.0057 -0.1266
 8160TIP3    H145895  -0.004   5.805   1.249 -0.2016 -1.3469  0.7275
 8160TIP3    H245896   0.128   5.819   1.176 -0.5476  0.4463  0.3979
 8161TIP3   OH245897   0.242   5.946   4.760 -0.0698 -0.0045  0.7501
 8161TIP3    H145898   0.147   5.957   4.767 -0.0067  0.2514  1.2776
 8161TIP3    H245899   0.254   5.876   4.697 -0.6051  0.1810  0.4378
 8162TIP3   OH245900   1.801   3.855  15.069  0.7197 -0.0616  0.3142
 8162TIP3    H145901   1.729   3.795  15.087 -0.6197  1.8057  1.4359
 8162TIP3    H245902   1.847   3.864  15.152  1.8629 -0.6873 -0.2246
 8163TIP3   OH245903   2.122   2.906   6.444 -0.1512 -0.0554  0.6390
 8163TIP3    H145904   2.027   2.900   6.451 -0.2793  0.8340 -0.0134
 8163TIP3    H245905   2.154   2.818   6.463 -1.2348 -0.8697 -1.0276
 8164TIP3   OH245906   2.488   3.127  16.343  0.5056 -0.2869  0.0022
 8164TIP3    H145907   2.457   3.165  16.425 -0.3012  2.7138 -1.5075
 8164TIP3    H245908   2.408   3.103  16.296  0.8573 -0.2415 -0.6341
 8165TIP3   OH245909   3.898   5.150  16.353  0.2954  0.4250 -0.1830
 8165TIP3    H145910   3.870   5.099  16.277  2.0389  1.1860 -1.3938
 8165TIP3    H245911   3.979   5.108  16.382  0.4334  1.0275  0.3289
 8166TIP3   OH245912   3.964   1.836  13.082 -0.5639  0.1036  0.4178
 8166TIP3    H145913   4.025   1.909  13.067  0.3253 -0.6169  0.4814
 8166TIP3    H245914   4.014   1.758  13.060 -1.9838 -0.4294 -1.1234
 8167TIP3   OH245915   4.559   2.522   5.178  0.4657  0.0062  0.4274
 8167TIP3    H145916   4.579   2.545   5.087  0.6317 -0.0884  0.4390
 8167TIP3    H245917   4.485   2.577   5.201  2.2354  2.2249  1.1702
 8168TIP3   OH245918   4.166   3.221   5.486  0.5736 -0.3679 -0.5092
 8168TIP3    H145919   4.168   3.136   5.442  1.6450 -1.2974  1.2145
 8168TIP3    H245920   4.084   3.221   5.535  1.6943 -1.5563  1.4960
 8169TIP3   OH245921   2.794   4.390  11.594  0.2241  0.1021 -0.5498
 8169TIP3    H145922   2.801   4.315  11.535 -1.3134 -0.1610 -0.4252
 8169TIP3    H245923   2.703   4.418  11.588  0.9620  2.5869 -1.3131
 8170TIP3   OH245924   4.930   1.283  13.050 -0.5975  0.0336  0.1171
 8170TIP3    H145925   4.976   1.330  12.981  1.0699 -1.6495 -0.0076
 8170TIP3    H245926   4.922   1.193  13.016 -0.1566 -0.7222  1.8942
 8171TIP3   OH245927   1.107   5.847   6.107  0.1215 -0.1426 -0.3274
 8171TIP3    H145928   1.178   5.912   6.110  1.8184 -1.8956 -0.5109
 8171TIP3    H245929   1.084   5.841   6.014 -0.1949  0.3309 -0.2841
 8172TIP3   OH245930   1.172   2.501   4.072  0.0637  0.2476 -0.3688
 8172TIP3    H145931   1.169   2.406   4.079  1.1837  0.2154 -0.0757
 8172TIP3    H245932   1.177   2.531   4.163  0.4344  0.5475 -0.4863
 8173TIP3   OH245933   1.301   0.279   3.124  0.2050 -0.3487 -0.0984
 8173TIP3    H145934   1.380   0.309   3.169  0.1518 -0.0484 -0.2005
 8173TIP3    H245935   1.254   0.226   3.188 -0.2464  0.6831  0.4513
 8174TIP3   OH245936   5.401   3.883   2.133 -0.0823  0.0653  0.1776
 8174TIP3    H145937   5.440   3.814   2.079  0.0280  0.6326 -0.4812
 8174TIP3    H245938   5.449   3.962   2.108  0.2781  0.2589  1.4426
 8175TIP3   OH245939   2.861   0.259   3.753 -0.5720  0.0263 -0.4743
 8175TIP3    H145940   2.797   0.330   3.761  0.1183  0.5625  0.5387
 8175TIP3    H245941   2.811   0.185   3.719 -1.5359  0.6904 -0.5323
 8176TIP3   OH245942   6.145   0.739  10.480 -0.1277 -0.5026 -0.0316
 8176TIP3    H145943   6.154   0.816  10.536 -0.4973  0.8983 -1.7784
 8176TIP3    H245944   6.128   0.667  10.540 -0.6033  0.9287  1.6414
 8177TIP3   OH245945   2.191   6.637  16.284 -0.0765 -0.3946  0.3485
 8177TIP3    H145946   2.154   6.700  16.223 -0.2204  0.0722  0.9130
 8177TIP3    H245947   2.241   6.577  16.229 -1.0545 -0.5966 -0.3381
 8178TIP3   OH245948   1.117   6.131   4.286 -0.0233 -0.1014  0.0908
 8178TIP3    H145949   1.040   6.107   4.234  1.0280 -0.6459 -1.2637
 8178TIP3    H245950   1.087   6.204   4.340 -1.6507 -0.6664  0.0249
 8179TIP3   OH245951   2.246   3.642   2.626 -0.0806 -0.1644 -0.0289
 8179TIP3    H145952   2.265   3.710   2.690  0.4964  2.4329 -2.7465
 8179TIP3    H245953   2.330   3.598   2.612  0.4438  1.0498 -0.8709
 8180TIP3   OH245954   1.231   5.112  16.476 -0.0673  0.2426  0.1771
 8180TIP3    H145955   1.312   5.069  16.447 -1.1832  0.5272 -3.8702
 8180TIP3    H245956   1.243   5.204  16.455 -0.1988  0.9774  2.8706
 8181TIP3   OH245957   0.277   3.541   2.288 -0.1631  0.3186 -0.1989
 8181TIP3    H145958   0.305   3.576   2.204  0.1463 -1.1852 -0.7512
 8181TIP3    H245959   0.248   3.452   2.269  2.3895 -1.0408  1.6196
 8182TIP3   OH245960   1.370   3.499  13.131  0.2913  0.1314 -0.3612
 8182TIP3    H145961   1.443   3.445  13.100  1.6649  2.3880 -1.3483
 8182TIP3    H245962   1.386   3.511  13.224  1.7479  1.3229 -0.7286
 8183TIP3   OH245963   3.968   4.684  11.904 -0.0824 -0.0861  0.1625
 8183TIP3    H145964   3.990   4.773  11.876  0.0934 -0.0958  0.2661
 8183TIP3    H245965   3.946   4.638  11.823 -0.8125  0.2270  0.1738
 8184TIP3   OH245966   1.683   0.892   2.039 -0.3114  0.0044 -0.1874
 8184TIP3    H145967   1.640   0.811   2.010  0.2179 -0.0708 -0.7816
 8184TIP3    H245968   1.653   0.904   2.129 -1.5245 -0.0866 -0.5503
 8185TIP3   OH245969   2.069   4.690   4.355 -0.5922  0.5335 -0.1639
 8185TIP3    H145970   2.019   4.728   4.283 -1.3093 -2.8378 -1.6382
 8185TIP3    H245971   2.147   4.652   4.314  0.3062  0.7397  1.2571
 8186TIP3   OH245972   3.263   6.598   3.409 -0.6445 -0.4239 -0.1632
 8186TIP3    H145973   3.235   6.642   3.489  1.0113  0.4956 -0.0467
 8186TIP3    H245974   3.265   6.505   3.433  1.3427 -0.0538  1.4158
 8187TIP3   OH245975   2.067   6.116  15.382  0.2199 -0.1768 -0.1621
 8187TIP3    H145976   2.010   6.070  15.444  0.4350  0.3882  0.4780
 8187TIP3    H245977   2.045   6.079  15.297 -1.7460  0.6520 -0.0636
 8188TIP3   OH245978   0.065   0.012   5.500 -0.0026  0.5027  0.5530
 8188TIP3    H145979   0.066   0.104   5.526 -2.0723  0.9541 -0.7310
 8188TIP3    H245980  -0.021  -0.001   5.461  0.9223 -1.5087 -0.9995
 8189TIP3   OH245981   1.494   4.852  12.248  0.4298 -0.3133  0.6873
 8189TIP3    H145982   1.534   4.934  12.276 -1.1085  0.6886  0.0530
 8189TIP3    H245983   1.427   4.834  12.314 -0.5844  0.0141 -0.2299
 8190TIP3   OH245984   1.959   3.968  14.732 -0.1938 -0.8613 -0.0672
 8190TIP3    H145985   1.994   3.945  14.818 -0.0657  0.5971  0.2902
 8190TIP3    H245986   1.877   4.013  14.751  0.0808 -0.0902 -0.6847
 8191TIP3   OH245987   5.778   3.949  12.084 -0.5035  0.0054 -0.5366
 8191TIP3    H145988   5.752   3.877  12.140 -2.5613  0.6020 -0.6581
 8191TIP3    H245989   5.726   3.938  12.004  1.8533 -0.4451 -2.1317
 8192TIP3   OH245990   4.263   1.083  16.785  0.7117  0.2201 -0.2841
 8192TIP3    H145991   4.262   1.028  16.706  0.0104 -0.4030  0.1399
 8192TIP3    H245992   4.289   1.170  16.753  1.5636 -0.2810 -1.0134
 8193TIP3   OH245993   4.399   3.620  16.793 -0.8240  0.1584  0.7524
 8193TIP3    H145994   4.396   3.716  16.794  0.3284  0.2344 -0.4719
 8193TIP3    H245995   4.478   3.599  16.743 -1.5766 -1.4297  0.1690
 8194TIP3   OH245996   0.102   3.080   6.056 -0.4214 -0.4038 -0.2386
 8194TIP3    H145997   0.062   3.035   5.982 -2.4982  0.7722  0.1080
 8194TIP3    H245998   0.101   3.015   6.127 -1.0855 -0.6187 -0.4361
 8195TIP3   OH245999   1.989   3.953   3.251  0.4019  0.0370  0.1739
 8195TIP3    H146000   2.033   3.871   3.275  0.8568  0.0816 -0.4731
 8195TIP3    H246001   1.984   3.950   3.155  1.6496  1.3740  0.0315
 8196TIP3   OH246002   0.589   6.574   1.876 -0.3579  0.2309  0.4580
 8196TIP3    H146003   0.671   6.620   1.891 -0.2331 -0.5914  2.5720
 8196TIP3    H246004   0.613   6.499   1.821 -0.0879  1.0881 -0.6395
 8197TIP3   OH246005   3.833   6.017  15.284 -0.5588  0.7474  0.0593
 8197TIP3    H146006   3.816   5.925  15.304  0.1999  0.5782 -0.0618
 8197TIP3    H246007   3.764   6.065  15.332 -1.2671  0.0967 -0.2847
 8198TIP3   OH246008   3.037   4.545   3.417 -0.1072 -0.0875  0.0007
 8198TIP3    H146009   3.053   4.521   3.508 -0.7356 -1.6119 -0.2664
 8198TIP3    H246010   2.972   4.615   3.422  2.6687  2.6901  0.8425
 8199TIP3   OH246011   6.285   3.705  11.172 -0.0073 -0.1644 -0.0830
 8199TIP3    H146012   6.287   3.611  11.189 -1.4761  0.3309  3.6778
 8199TIP3    H246013   6.220   3.716  11.103 -0.0783 -1.8553 -0.3111
 8200TIP3   OH246014   6.622   4.058   5.903  0.1295  0.5741 -0.1212
 8200TIP3    H146015   6.626   4.126   5.836 -0.2495  1.4386  0.7083
 8200TIP3    H246016   6.713   4.043   5.929  0.1536  1.4481  0.3445
 8201TIP3   OH246017   2.560   5.248   2.147 -0.1360 -0.3539  0.0198
 8201TIP3    H146018   2.630   5.193   2.112  1.3107  0.1105  2.0230
 8201TIP3    H246019   2.515   5.281   2.069  1.5847 -1.0296 -1.3371
 8202TIP3   OH246020   2.330   0.910  11.464 -0.4809 -0.0800  0.5730
 8202TIP3    H146021   2.393   0.845  11.432 -0.1507 -0.1838  1.4158
 8202TIP3    H246022   2.369   0.994  11.441 -0.0028 -0.1438  1.1314
 8203TIP3   OH246023   0.406   0.224  13.653  0.0075  0.1747  0.3353
 8203TIP3    H146024   0.373   0.218  13.563  2.5269 -0.3910 -0.6287
 8203TIP3    H246025   0.445   0.138  13.669 -1.5137 -0.1950  2.5109
 8204TIP3   OH246026   1.178   3.386  13.688 -0.7117 -0.2938 -0.7943
 8204TIP3    H146027   1.122   3.452  13.730 -0.2646 -0.1255 -0.4522
 8204TIP3    H246028   1.150   3.386  13.597 -0.5006  0.6154 -0.8763
 8205TIP3   OH246029   6.498   1.885  12.109  0.4372 -0.1727  0.2728
 8205TIP3    H146030   6.502   1.976  12.140 -0.1725 -0.4856  1.3186
 8205TIP3    H246031   6.405   1.870  12.090  0.6207 -0.3990 -0.4828
 8206TIP3   OH246032   2.154   4.762   0.473  0.2482 -0.0779 -0.2942
 8206TIP3    H146033   2.229   4.725   0.520  2.2630 -0.3478 -3.4318
 8206TIP3    H246034   2.089   4.691   0.473  0.6425 -0.4692  1.0056
 8207TIP3   OH246035   3.484   3.388  11.770 -0.3829  0.0085  0.3102
 8207TIP3    H146036   3.547   3.327  11.809  1.8600  1.3407 -1.0291
 8207TIP3    H246037   3.474   3.456  11.836 -0.1266 -0.0174  0.3775
 8208TIP3   OH246038   5.529   5.958   1.601 -0.0676 -0.8244 -0.3698
 8208TIP3    H146039   5.553   5.997   1.517  1.7336  1.6066  1.1112
 8208TIP3    H246040   5.434   5.966   1.605  0.0555  2.4977 -0.7496
 8209TIP3   OH246041   3.563   1.568  14.167  0.2455 -0.1685 -0.3334
 8209TIP3    H146042   3.493   1.583  14.231  0.7022  0.1660  0.0877
 8209TIP3    H246043   3.639   1.613  14.203  0.8290 -0.9719 -0.5338
 8210TIP3   OH246044   4.524   0.811  11.579  0.0253  0.1094 -0.2338
 8210TIP3    H146045   4.610   0.854  11.571  0.2250 -0.4080 -1.0762
 8210TIP3    H246046   4.461   0.882  11.569  0.3471  0.6298  1.2604
 8211TIP3   OH246047   1.023   1.161   0.481  0.3351 -0.3496  0.2590
 8211TIP3    H146048   1.057   1.239   0.437  0.2224  0.7313  1.9884
 8211TIP3    H246049   1.099   1.104   0.492  0.6383 -0.0095 -0.0503
 8212TIP3   OH246050   2.371   0.771   4.674  0.4900  0.3697  0.0307
 8212TIP3    H146051   2.429   0.719   4.620  0.7187 -1.3805  1.8411
 8212TIP3    H246052   2.300   0.711   4.698 -0.7642  1.7335 -0.1056
 8213TIP3   OH246053   4.737   6.437   0.589  0.1458  0.5131 -0.5759
 8213TIP3    H146054   4.746   6.524   0.551 -2.0967  0.8847 -0.3902
 8213TIP3    H246055   4.643   6.426   0.602  0.3058 -2.1422 -1.0754
 8214TIP3   OH246056   2.366   5.628   1.057 -0.0970 -0.3712 -0.0908
 8214TIP3    H146057   2.423   5.624   0.981  1.1470 -0.0307  0.7856
 8214TIP3    H246058   2.301   5.560   1.042  1.9231 -2.4397 -0.0687
 8215TIP3   OH246059   1.168   1.400  15.135  0.8238 -0.1802  0.3174
 8215TIP3    H146060   1.196   1.422  15.047  0.2582 -1.5076 -0.2235
 8215TIP3    H246061   1.184   1.306  15.143 -0.2696 -0.3189  1.1777
 8216TIP3   OH246062   6.622   3.845   2.810 -0.3398 -0.5851 -0.5720
 8216TIP3    H146063   6.674   3.891   2.744  0.0198  0.0355  0.1317
 8216TIP3    H246064   6.599   3.762   2.768  0.6007 -0.5642 -1.1662
 8217TIP3   OH246065   4.870   0.013   0.664  0.1137  0.1414 -0.2307
 8217TIP3    H146066   4.845   0.005   0.572 -1.1166 -0.6088  0.1479
 8217TIP3    H246067   4.810   0.078   0.700 -0.4400 -0.6888  0.3806
 8218TIP3   OH246068   5.835   1.022   3.819 -0.6961  0.1659  0.5336
 8218TIP3    H146069   5.743   1.033   3.796 -0.3046 -0.4006 -1.4526
 8218TIP3    H246070   5.860   0.939   3.780  0.2025 -0.6523  2.6864
 8219TIP3   OH246071   0.921   0.936  17.120  0.1639  0.0555  0.0360
 8219TIP3    H146072   1.005   0.897  17.143 -0.5811 -1.1650  0.7756
 8219TIP3    H246073   0.930   0.960  17.028  1.3407  0.0356  0.1271
 8220TIP3   OH246074   6.089   1.209   4.895 -0.4896  0.2273  0.0016
 8220TIP3    H146075   6.178   1.244   4.903 -1.0280  1.3401  1.8673
 8220TIP3    H246076   6.075   1.197   4.801  1.5054  0.3354 -0.3426
 8221TIP3   OH246077   1.111   3.598   0.929 -0.0616  0.0730  0.3230
 8221TIP3    H146078   1.136   3.681   0.969  0.4096 -0.3550  0.9466
 8221TIP3    H246079   1.126   3.611   0.836 -0.4090  0.8245  0.3618
 8222TIP3   OH246080   6.099   4.552  12.438 -0.3659  0.5607  0.1433
 8222TIP3    H146081   6.047   4.525  12.513  1.4897 -2.7215  0.4633
 8222TIP3    H246082   6.189   4.533  12.463  0.3350 -0.6490 -2.8018
 8223TIP3   OH246083   1.318   1.755   3.289 -0.2301 -0.1127  0.6733
 8223TIP3    H146084   1.398   1.806   3.301  0.3138 -0.9633  0.6882
 8223TIP3    H246085   1.334   1.701   3.212 -1.2973  0.6613 -0.1262
 8224TIP3   OH246086   6.378   3.803  17.161  0.1747 -0.4872  0.5249
 8224TIP3    H146087   6.319   3.731  17.139  0.0749 -1.0999  2.6524
 8224TIP3    H246088   6.324   3.882  17.150 -0.2053 -0.8293 -0.1579
 8225TIP3   OH246089   4.323   6.316   0.286 -0.5003 -0.1738 -0.4501
 8225TIP3    H146090   4.396   6.378   0.288 -1.1645  0.6226 -0.1177
 8225TIP3    H246091   4.293   6.312   0.377 -0.6595 -0.7481 -0.5276
 8226TIP3   OH246092   1.814   0.875   6.039 -0.1862 -0.1609  0.0030
 8226TIP3    H146093   1.833   0.921   5.957  0.2517 -0.2052  0.0766
 8226TIP3    H246094   1.854   0.789   6.029 -0.9324 -0.4999 -0.0987
 8227TIP3   OH246095   3.267   0.797  13.424  0.2996  0.1470  0.0914
 8227TIP3    H146096   3.229   0.776  13.339  0.5518  0.4818 -0.1076
 8227TIP3    H246097   3.284   0.892  13.420  1.1827 -0.0030  0.1571
 8228TIP3   OH246098   3.294   4.821  13.896 -0.1976  0.1455 -0.2218
 8228TIP3    H146099   3.296   4.823  13.800  0.9532 -1.1053 -0.2599
 8228TIP3    H246100   3.221   4.763  13.917  0.5003 -0.8214 -0.4018
 8229TIP3   OH246101   0.421   1.732  13.304 -0.3682  0.2675  0.4058
 8229TIP3    H146102   0.417   1.651  13.354 -0.7255  0.2570  0.3641
 8229TIP3    H246103   0.358   1.720  13.233  0.2842  0.1997 -0.1740
 8230TIP3   OH246104   0.648   5.936  12.651  0.2481  0.1854 -0.1392
 8230TIP3    H146105   0.663   5.841  12.658  1.8826  0.2778 -1.6749
 8230TIP3    H246106   0.694   5.972  12.726  0.0398 -0.1953  0.1788
 8231TIP3   OH246107   4.111   2.085  13.080 -0.3204 -0.4757  0.0833
 8231TIP3    H146108   4.050   2.150  13.044  0.3264  0.8449  1.2387
 8231TIP3    H246109   4.120   2.111  13.172 -0.3794 -2.5097  0.6987
 8232TIP3   OH246110   0.123   5.190  12.937  0.2792 -0.5741  0.1872
 8232TIP3    H146111   0.112   5.283  12.916 -1.4359 -0.9336 -0.6423
 8232TIP3    H246112   0.113   5.186  13.032  0.8071  0.1316  0.2842
 8233TIP3   OH246113   2.953   0.524  12.085 -0.2850  0.0231  0.6676
 8233TIP3    H146114   3.014   0.555  12.017  0.4582 -0.0197  1.2989
 8233TIP3    H246115   2.866   0.548  12.052  0.1319  0.9535  0.1879
 8234TIP3   OH246116   1.305   4.248  15.815 -0.2631 -0.0700 -0.7424
 8234TIP3    H146117   1.218   4.288  15.816  1.3817  4.0107 -0.3938
 8234TIP3    H246118   1.316   4.212  15.903 -1.0185  0.8478 -0.2530
 8235TIP3   OH246119   0.994   2.546   2.758 -0.1487  0.8705  0.3593
 8235TIP3    H146120   1.051   2.591   2.695  0.8977 -1.0377 -0.1338
 8235TIP3    H246121   1.033   2.566   2.843  1.0794 -0.0493  0.0563
 8236TIP3   OH246122   2.203   5.517   1.754 -0.4724  0.3046  0.1434
 8236TIP3    H146123   2.240   5.603   1.771  1.1571  0.0121 -1.5842
 8236TIP3    H246124   2.167   5.523   1.665 -1.4109 -0.4760  0.4413
 8237TIP3   OH246125   2.116   2.198  14.497  0.4041 -0.2248 -0.1249
 8237TIP3    H146126   2.031   2.164  14.525 -0.1675 -0.0273 -1.5378
 8237TIP3    H246127   2.117   2.289  14.525  1.5396 -1.0149  2.8028
 8238TIP3   OH246128   6.080   1.347   5.676  0.4697 -0.1203  0.2756
 8238TIP3    H146129   5.992   1.386   5.674  1.2693  1.7440 -0.5299
 8238TIP3    H246130   6.077   1.286   5.750 -1.4291  0.0481  0.3965
 8239TIP3   OH246131   6.012   0.244   2.128  0.3294 -0.3126 -1.0533
 8239TIP3    H146132   6.101   0.280   2.123 -0.1077  0.8851 -0.4639
 8239TIP3    H246133   5.955   0.320   2.131 -0.5690 -0.9977  1.1058
 8240TIP3   OH246134   0.993   0.344  17.155  0.2825  0.3587  0.3118
 8240TIP3    H146135   1.084   0.325  17.132  0.1093  0.7174 -0.7261
 8240TIP3    H246136   0.942   0.304  17.084 -0.2822  1.4453  0.0877
 8241TIP3   OH246137   1.090   3.006   6.761 -0.3376 -0.7162 -0.2213
 8241TIP3    H146138   1.102   2.991   6.855  1.2669 -2.9193 -0.7082
 8241TIP3    H246139   1.020   2.947   6.736  2.0680 -3.4097 -1.0871
 8242TIP3   OH246140   6.449   2.097  17.292  0.2340  0.1855  0.0211
 8242TIP3    H146141   6.495   2.028  17.339  0.4343 -0.2234 -0.7541
 8242TIP3    H246142   6.361   2.063  17.278  0.5928 -0.3323 -1.1693
 8243TIP3   OH246143   3.557   6.076   1.130 -0.0415  0.4225 -0.2569
 8243TIP3    H146144   3.581   6.098   1.220 -1.4212  1.2529 -0.0551
 8243TIP3    H246145   3.621   6.010   1.103 -0.7999 -1.4045  2.0464
 8244TIP3   OH246146   2.995   1.417   1.286  0.7567 -0.0608  0.2712
 8244TIP3    H146147   3.046   1.477   1.231  2.1301  0.5775  2.1401
 8244TIP3    H246148   2.904   1.442   1.269  1.2274  1.4075 -0.2996
 8245TIP3   OH246149   4.926   2.764  15.610 -0.4451  0.1606 -0.3664
 8245TIP3    H146150   5.007   2.806  15.639 -1.0016  1.4723 -0.6398
 8245TIP3    H246151   4.866   2.773  15.684  0.1790 -2.4951  0.5811
 8246TIP3   OH246152   2.044   3.118  15.535 -0.7317 -0.0575  0.4960
 8246TIP3    H146153   1.983   3.148  15.602 -2.8826 -0.7611 -1.0268
 8246TIP3    H246154   2.119   3.178  15.542 -1.9775  1.4378  1.8393
 8247TIP3   OH246155   4.944   0.333  17.591 -0.9580  0.1362 -0.3924
 8247TIP3    H146156   4.877   0.287  17.541  0.3250 -0.5013 -1.6294
 8247TIP3    H246157   4.980   0.267  17.650 -0.5467  0.1063 -0.6692
 8248TIP3   OH246158   1.283   6.093  16.720  0.2564 -0.2983  0.4062
 8248TIP3    H146159   1.273   6.003  16.750 -0.1581  0.1518  1.6608
 8248TIP3    H246160   1.329   6.137  16.791 -0.3657  0.6987  0.2046
 8249TIP3   OH246161   3.885   5.151  12.420 -0.4609 -0.0857  0.1919
 8249TIP3    H146162   3.913   5.186  12.505  1.1847  0.7549 -0.6537
 8249TIP3    H246163   3.891   5.225  12.360  1.2194 -1.2959 -1.2498
 8250TIP3   OH246164   0.077   3.161  16.477 -0.5506 -0.0997  0.0490
 8250TIP3    H146165   0.164   3.200  16.489 -0.5457 -0.0884 -0.0252
 8250TIP3    H246166   0.078   3.128  16.388 -0.0936 -1.4279  0.5255
 8251TIP3   OH246167   2.318   4.367  15.166 -0.2370 -0.0300 -0.5626
 8251TIP3    H146168   2.412   4.357  15.151  0.0840 -0.8165  1.5605
 8251TIP3    H246169   2.289   4.279  15.190 -1.4049  0.3365 -0.5926
 8252TIP3   OH246170   6.546   2.484   1.149 -0.0952 -0.2631 -0.2015
 8252TIP3    H146171   6.504   2.553   1.097  0.0128 -0.5702 -0.6978
 8252TIP3    H246172   6.475   2.425   1.173 -0.4062  0.6697  1.2821
 8253TIP3   OH246173   2.496   2.154  16.019  0.2722  0.1573 -0.4335
 8253TIP3    H146174   2.557   2.168  16.091 -0.8835  2.1921  0.2091
 8253TIP3    H246175   2.430   2.094  16.055  0.7268 -0.3687 -0.4562
 8254TIP3   OH246176   6.520   5.190   1.026 -0.0329  0.2033 -0.3728
 8254TIP3    H146177   6.535   5.136   0.949  0.4879 -2.4709  1.4600
 8254TIP3    H246178   6.427   5.176   1.048 -0.1262  0.7771 -0.3757
 8255TIP3   OH246179   3.946   3.042  13.354 -0.4863 -0.6712  0.2014
 8255TIP3    H146180   3.888   3.111  13.321 -1.5481 -1.6726 -0.1326
 8255TIP3    H246181   3.927   3.037  13.447  1.2262  0.9627  0.6915
 8256TIP3   OH246182   6.087   4.957   3.049 -0.9956  0.0035  0.2772
 8256TIP3    H146183   5.993   4.938   3.038 -1.0426  0.9811 -1.3574
 8256TIP3    H246184   6.093   4.994   3.137 -2.0698 -0.4532  0.5702
 8257TIP3   OH246185   6.497   0.256  12.549  0.0655  0.2515 -0.4830
 8257TIP3    H146186   6.405   0.235  12.563 -0.2450  1.7228 -0.2009
 8257TIP3    H246187   6.534   0.176  12.511 -0.7852 -1.1909  1.5474
 8258TIP3   OH246188   4.220   0.752  13.544 -0.2838 -0.0774  0.0265
 8258TIP3    H146189   4.152   0.819  13.538  0.1912  0.6714  2.1334
 8258TIP3    H246190   4.173   0.669  13.547 -1.1108  0.4196  1.2848
 8259TIP3   OH246191   6.055   2.925  14.068 -0.2421 -0.4988 -0.0085
 8259TIP3    H146192   6.055   3.006  14.017  0.3604 -0.2552  0.3675
 8259TIP3    H246193   6.119   2.869  14.025  3.0809  1.0539  2.5011
 8260TIP3   OH246194   3.739   6.366  12.177  0.3758  0.0101 -0.1858
 8260TIP3    H146195   3.810   6.430  12.173 -0.8036  1.3135 -1.0411
 8260TIP3    H246196   3.756   6.316  12.257  1.8187  0.7969  0.0326
 8261TIP3   OH246197   2.481   1.662   0.567 -0.3588  0.0472  0.1787
 8261TIP3    H146198   2.553   1.603   0.545 -0.8452 -0.7174  0.5783
 8261TIP3    H246199   2.409   1.634   0.511 -0.8707 -0.3532  1.0050
 8262TIP3   OH246200   5.069   0.704  12.790 -0.2408 -0.8243 -0.2022
 8262TIP3    H146201   5.096   0.778  12.845 -1.6626 -0.1529 -0.3711
 8262TIP3    H246202   5.030   0.642  12.852 -2.1038  0.0563 -0.4370
 8263TIP3   OH246203   6.210   1.938  17.389  0.0532 -0.3426  0.3675
 8263TIP3    H146204   6.118   1.941  17.414 -0.0366  0.2414 -0.0020
 8263TIP3    H246205   6.255   1.987  17.457 -0.1765  1.1441 -0.5007
 8264TIP3   OH246206   2.770   5.080   2.038  0.0237 -0.7353 -0.2023
 8264TIP3    H146207   2.840   5.112   1.982  0.5564 -1.1289  0.2349
 8264TIP3    H246208   2.806   5.003   2.081 -0.8534 -1.2480 -0.3623
 8265TIP3   OH246209   4.523   5.857   2.882 -0.7353  0.9917  0.4197
 8265TIP3    H146210   4.477   5.774   2.888  1.8077 -0.6162 -0.5784
 8265TIP3    H246211   4.583   5.857   2.956  0.1011  1.3902 -0.2403
 8266TIP3   OH246212   1.139   5.317  17.244 -0.3494 -0.4810 -0.0811
 8266TIP3    H146213   1.168   5.396  17.200 -1.8068  0.3209  0.3158
 8266TIP3    H246214   1.067   5.284  17.190  0.7708 -2.0391 -0.6973
 8267TIP3   OH246215   5.251   2.723   4.489 -0.3519  0.1981 -0.1531
 8267TIP3    H146216   5.247   2.652   4.426  1.6839 -1.4631  1.4390
 8267TIP3    H246217   5.202   2.794   4.448 -0.9460 -1.4904 -2.6072
 8268TIP3   OH246218   1.785   6.610   3.794  0.1642 -0.7936 -0.5072
 8268TIP3    H146219   1.822   6.580   3.711 -0.7377 -0.3469 -1.0911
 8268TIP3    H246220   1.792   6.706   3.789  1.6836 -0.8084  0.6958
 8269TIP3   OH246221   1.207   4.321  14.835 -0.0164 -0.0219  0.2597
 8269TIP3    H146222   1.132   4.361  14.879 -0.5261 -1.2712  0.5803
 8269TIP3    H246223   1.282   4.339  14.893 -0.2489  0.3768  0.4388
 8270TIP3   OH246224   2.657   5.069  16.898  0.2600 -0.0119  0.9414
 8270TIP3    H146225   2.673   4.980  16.867 -0.5495  0.1797 -0.1118
 8270TIP3    H246226   2.738   5.094  16.943  0.9136 -0.8723  0.2805
 8271TIP3   OH246227   5.801   5.984  17.345 -0.1088  0.0171  0.3962
 8271TIP3    H146228   5.779   6.000  17.436 -1.2237  1.5494 -0.1065
 8271TIP3    H246229   5.725   5.939  17.309  1.0204 -2.1782  0.5898
 8272TIP3   OH246230   6.570   1.266  14.549  0.2322  0.0688 -0.1852
 8272TIP3    H146231   6.585   1.183  14.504  3.4827  0.4156  0.0266
 8272TIP3    H246232   6.488   1.253  14.597 -0.4244 -2.2456 -1.7681
 8273TIP3   OH246233   6.020   4.349  12.886 -0.1587 -0.2433  0.0284
 8273TIP3    H146234   6.088   4.407  12.853 -0.8360  0.4624 -0.1693
 8273TIP3    H246235   5.955   4.408  12.925 -0.8098 -0.8745 -0.0761
 8274TIP3   OH246236   4.023   1.324  15.643  0.5220  0.3404  0.4219
 8274TIP3    H146237   3.965   1.381  15.593 -1.2169 -2.0616 -0.4609
 8274TIP3    H246238   3.966   1.276  15.702  1.8163 -1.0309  0.6249
 8275TIP3   OH246239   3.691   5.074   5.693 -0.7556  0.0820 -0.2136
 8275TIP3    H146240   3.690   5.046   5.601 -0.7014  1.8623 -0.7841
 8275TIP3    H246241   3.711   5.167   5.690 -0.9398  0.2174  1.6140
 8276TIP3   OH246242   6.176   0.695  13.794  0.4897  0.9443  0.4146
 8276TIP3    H146243   6.142   0.755  13.728 -1.1327 -0.1104  0.2201
 8276TIP3    H246244   6.187   0.749  13.873  2.6700  2.2698 -0.7019
 8277TIP3   OH246245   3.430   5.169   5.583 -0.2355  0.3085  0.1617
 8277TIP3    H146246   3.465   5.164   5.672  0.9610 -0.3544 -0.3372
 8277TIP3    H246247   3.507   5.176   5.527 -0.9555  0.0728 -0.8778
 8278TIP3   OH246248   6.535   0.738   3.011  0.1201 -0.4686 -0.7963
 8278TIP3    H146249   6.469   0.747   2.942  0.9634 -1.8719 -1.8283
 8278TIP3    H246250   6.485   0.718   3.090 -0.7119 -1.4501 -1.5483
 8279TIP3   OH246251   4.054   4.861   4.095  0.3305 -0.4810  0.1759
 8279TIP3    H146252   4.016   4.869   4.183  2.8614  0.5074  1.2536
 8279TIP3    H246253   4.068   4.767   4.085  0.6979 -0.5433  1.1435
 8280TIP3   OH246254   5.797   0.503  15.118 -0.2731  0.1381  0.3577
 8280TIP3    H146255   5.739   0.434  15.086 -0.9311  0.4475  0.8653
 8280TIP3    H246256   5.855   0.459  15.180  1.0302 -0.4762 -1.2067
 8281TIP3   OH246257   1.746   0.747   3.681  0.3148  1.2155  0.3250
 8281TIP3    H146258   1.706   0.798   3.610  0.3661 -1.7185 -2.0059
 8281TIP3    H246259   1.684   0.676   3.696  1.6533  0.2106  1.2336
 8282TIP3   OH246260   1.998   0.044  16.861  0.0020  0.1746  0.1915
 8282TIP3    H146261   2.039   0.019  16.944 -1.1197  0.1723  0.7693
 8282TIP3    H246262   1.984   0.139  16.870  1.0355  0.4065 -0.5336
 8283TIP3   OH246263   5.839   4.699   6.227 -0.4661 -0.0769  0.0113
 8283TIP3    H146264   5.932   4.693   6.249 -0.5856  1.9558  1.3026
 8283TIP3    H246265   5.794   4.655   6.299 -0.5450 -1.1095 -0.6413
 8284TIP3   OH246266   2.451   0.867   1.290 -0.2657  0.3572  0.2125
 8284TIP3    H146267   2.372   0.867   1.344  0.1136 -0.3933  0.7850
 8284TIP3    H246268   2.513   0.810   1.337  0.3480  0.3193 -0.6097
 8285TIP3   OH246269   0.766   6.384  13.062  0.3951 -0.7109  0.2929
 8285TIP3    H146270   0.744   6.295  13.087 -0.3988 -0.2060  1.4984
 8285TIP3    H246271   0.689   6.417  13.016  0.4936 -0.4990  0.2750
 8286TIP3   OH246272   6.653   0.449   2.048 -0.1787  0.2012 -0.1662
 8286TIP3    H146273   6.592   0.382   2.017 -1.1432  2.1513 -2.8332
 8286TIP3    H246274   6.599   0.513   2.093  0.2957  0.6470 -0.2194
 8287TIP3   OH246275   2.428   2.907  16.561  0.6208  0.6756  0.2392
 8287TIP3    H146276   2.519   2.880  16.573  0.2869 -0.5473  0.1401
 8287TIP3    H246277   2.424   2.994  16.602  1.8926  0.8817 -0.0232
 8288TIP3   OH246278   2.178   0.836  11.161 -0.3044  0.5019 -0.0765
 8288TIP3    H146279   2.143   0.791  11.238 -0.6269  1.9757  0.6708
 8288TIP3    H246280   2.210   0.765  11.104 -1.1807 -0.6751  0.8493
 8289TIP3   OH246281   4.116   2.109  15.992  0.2225  0.5759 -0.8821
 8289TIP3    H146282   4.127   2.107  15.897  0.9964  1.1319 -0.8090
 8289TIP3    H246283   4.097   2.200  16.012 -0.8467  0.3094 -0.5860
 8290TIP3   OH246284   4.542   4.899   2.047  0.3376 -0.5380 -0.5928
 8290TIP3    H146285   4.556   4.823   2.103  3.5013  0.0712 -0.4042
 8290TIP3    H246286   4.553   4.865   1.958 -1.6602 -0.9000 -0.7469
 8291TIP3   OH246287   3.521   3.631  11.014 -0.5660 -0.3390 -0.6172
 8291TIP3    H146288   3.557   3.618  10.927 -0.7554 -0.9694 -0.6067
 8291TIP3    H246289   3.531   3.546  11.057  1.1860  0.4096  0.6015
 8292TIP3   OH246290   5.194   6.497   2.388  0.0841  0.1333  0.6597
 8292TIP3    H146291   5.102   6.487   2.411  0.5233 -0.7626  2.1856
 8292TIP3    H246292   5.209   6.431   2.320  0.2376 -1.8565  2.5002
 8293TIP3   OH246293   4.291   1.336  16.623 -0.0356 -0.2892 -0.1300
 8293TIP3    H146294   4.344   1.293  16.556 -0.5244 -0.1386 -0.6185
 8293TIP3    H246295   4.345   1.409  16.653 -0.0950  0.0696 -0.8700
 8294TIP3   OH246296   1.669   2.374  13.926 -0.1344 -0.6688 -0.2181
 8294TIP3    H146297   1.592   2.365  13.982 -0.9346 -0.6316 -1.2969
 8294TIP3    H246298   1.672   2.467  13.904  0.4867 -0.5886  0.1778
 8295TIP3   OH246299   4.865   3.311  11.548 -0.4351 -0.4440 -0.3048
 8295TIP3    H146300   4.849   3.342  11.459 -0.4134 -0.7306 -0.4075
 8295TIP3    H246301   4.915   3.230  11.537 -0.9698 -0.8085 -0.0443
 8296TIP3   OH246302   5.989   0.673   1.650  0.2757 -0.3665  0.5294
 8296TIP3    H146303   5.906   0.665   1.604 -0.5190 -0.3079  1.8956
 8296TIP3    H246304   6.047   0.717   1.587 -0.3314 -1.5053 -0.8820
 8297TIP3   OH246305   3.112   0.795   6.383  0.4403 -0.4032 -0.3938
 8297TIP3    H146306   3.028   0.831   6.411  1.3422  1.2979  0.2362
 8297TIP3    H246307   3.092   0.747   6.303 -0.9517  0.9091 -0.8805
 8298TIP3   OH246308   2.878   5.954   1.293  0.3803  0.8714 -0.2777
 8298TIP3    H146309   2.794   5.969   1.251 -0.0784 -0.9203 -0.0849
 8298TIP3    H246310   2.864   5.980   1.385 -0.8806 -1.9893  0.4316
 8299TIP3   OH246311   5.736   0.212  12.413 -0.2651  0.1011 -0.3817
 8299TIP3    H146312   5.686   0.162  12.478  0.4679  1.4974  1.3105
 8299TIP3    H246313   5.824   0.173  12.415  0.1898  1.1148  0.6361
 8300TIP3   OH246314   0.848   2.271  12.059 -0.2124 -0.1714 -0.2602
 8300TIP3    H146315   0.830   2.204  12.125 -0.9581 -1.0515 -1.3104
 8300TIP3    H246316   0.778   2.261  11.994  0.6511  0.4522 -1.3408
 8301TIP3   OH246317   1.972   4.286  13.676 -0.0428 -0.0220  0.4434
 8301TIP3    H146318   2.041   4.224  13.652 -1.4404 -1.7249  0.6366
 8301TIP3    H246319   2.001   4.324  13.759  0.8498 -0.4117  0.3166
 8302TIP3   OH246320   2.714   1.749  16.255  0.2053 -0.2430  0.0519
 8302TIP3    H146321   2.671   1.800  16.323  1.4223  0.3000  0.4428
 8302TIP3    H246322   2.680   1.660  16.266 -0.4545  0.0740  0.6340
 8303TIP3   OH246323   5.743   0.324   0.522  0.1285  0.1115 -0.1038
 8303TIP3    H146324   5.833   0.303   0.495  0.1759  0.1006  0.0612
 8303TIP3    H246325   5.703   0.239   0.539  0.1273  0.1233 -0.0483
 8304TIP3   OH246326   4.508   3.333  13.914 -0.2776 -0.3440 -0.1409
 8304TIP3    H146327   4.587   3.322  13.967 -0.0314 -3.3464 -0.9646
 8304TIP3    H246328   4.537   3.320  13.824 -1.6399 -1.2168 -0.4812
 8305TIP3   OH246329   5.917   0.372  11.319 -0.5782 -0.1725  0.1108
 8305TIP3    H146330   5.956   0.445  11.369  0.1524 -0.6536  0.2725
 8305TIP3    H246331   5.954   0.380  11.232 -1.0257  0.0439 -0.0604
 8306TIP3   OH246332   4.039   4.865  16.536 -0.3027 -0.5191 -0.6184
 8306TIP3    H146333   4.048   4.960  16.525  0.8473 -0.3841  1.1111
 8306TIP3    H246334   3.962   4.854  16.590  0.2914 -0.4586  0.2664
 8307TIP3   OH246335   0.658   4.674   3.848  0.5436  0.6993 -0.3344
 8307TIP3    H146336   0.677   4.650   3.757  3.1471  1.3363 -0.0468
 8307TIP3    H246337   0.563   4.686   3.851  0.5747  2.9794 -3.5617
 8308TIP3   OH246338   1.794   1.844  16.749  0.8383  0.1734 -0.4378
 8308TIP3    H146339   1.821   1.821  16.660  0.9288 -0.5205 -0.2360
 8308TIP3    H246340   1.725   1.909  16.737 -1.1261 -1.9112 -1.1101
 8309TIP3   OH246341   2.144   1.721   6.208  0.5773 -0.0291 -0.0065
 8309TIP3    H146342   2.201   1.754   6.139 -1.1614  1.2206 -0.9601
 8309TIP3    H246343   2.092   1.798   6.233 -1.1502 -1.2392  0.2842
 8310TIP3   OH246344   2.206   3.360  14.921  0.4403 -0.0384 -0.6738
 8310TIP3    H146345   2.183   3.267  14.926  2.8165 -0.6398  1.1323
 8310TIP3    H246346   2.277   3.363  14.857  0.5666  0.4733 -0.5128
 8311TIP3   OH246347   6.485   4.393   5.467  0.2498 -0.4203  0.1060
 8311TIP3    H146348   6.439   4.475   5.450 -1.1944 -1.2929 -0.3780
 8311TIP3    H246349   6.521   4.368   5.382  4.2693  1.6789  0.9410
 8312TIP3   OH246350   1.666   6.617  16.183 -0.0609 -0.1172 -0.1256
 8312TIP3    H146351   1.578   6.605  16.149  0.2857 -2.0305 -0.4834
 8312TIP3    H246352   1.669   6.564  16.262  0.9672 -0.6550 -0.5013
 8313TIP3   OH246353   1.060   2.566   0.669 -0.0060 -0.1548  0.4033
 8313TIP3    H146354   1.100   2.617   0.598 -1.1205 -0.2154 -0.2922
 8313TIP3    H246355   0.998   2.508   0.624 -1.6788  0.7052  1.5088
 8314TIP3   OH246356   1.172   1.126  15.153  0.2450  0.1253  0.0554
 8314TIP3    H146357   1.103   1.102  15.215 -0.8775 -0.6953 -1.4638
 8314TIP3    H246358   1.251   1.088  15.190 -0.4766 -0.7213  0.7855
 8315TIP3   OH246359   0.302   0.143  16.909 -0.2551  0.0130 -0.0742
 8315TIP3    H146360   0.242   0.108  16.844  0.0222 -0.8053  0.1013
 8315TIP3    H246361   0.304   0.077  16.978  0.4459  0.2716  0.1612
 8316TIP3   OH246362   4.466   6.087   6.291  0.6783  0.1712  0.0082
 8316TIP3    H146363   4.491   6.166   6.243 -1.1021  0.8361  0.0995
 8316TIP3    H246364   4.408   6.119   6.361 -0.0041 -1.2027  0.1045
 8317TIP3   OH246365   2.827   5.589  16.716 -0.6457 -0.0061  0.1372
 8317TIP3    H146366   2.917   5.616  16.733 -0.8731  0.2508  1.0136
 8317TIP3    H246367   2.807   5.528  16.787 -1.0591 -0.3069 -0.2354
 8318TIP3   OH246368   5.075   1.544  13.568 -0.0086  0.7472 -0.2406
 8318TIP3    H146369   5.145   1.488  13.599 -0.8104  0.0783  0.3915
 8318TIP3    H246370   5.046   1.504  13.486 -0.9616 -0.1246  0.4936
 8319TIP3   OH246371   3.372   4.060   0.917 -0.2949  0.1719 -0.3523
 8319TIP3    H146372   3.327   4.019   0.843 -1.2724 -1.0007  0.8470
 8319TIP3    H246373   3.378   4.153   0.893 -0.3574 -0.2222 -1.9919
 8320TIP3   OH246374   6.448   5.154  11.863  0.0673  0.1825  0.6020
 8320TIP3    H146375   6.387   5.210  11.911 -0.2667 -0.3157  0.7587
 8320TIP3    H246376   6.400   5.129  11.784  0.2284  0.1385  0.5173
 8321TIP3   OH246377   3.090   6.090  11.991 -0.1324  0.0162 -0.1209
 8321TIP3    H146378   3.093   6.007  11.944 -0.0971 -0.4251  0.6468
 8321TIP3    H246379   3.157   6.082  12.060 -1.2608  0.0248  1.0174
 8322TIP3   OH246380   1.347   6.163  13.416  1.0093 -0.5299 -0.1984
 8322TIP3    H146381   1.375   6.098  13.350 -0.0425  0.3284 -1.5360
 8322TIP3    H246382   1.257   6.139  13.436  0.6216  0.4799 -0.6821
 8323TIP3   OH246383   2.720   4.936  15.427 -0.3486  0.2492 -0.5929
 8323TIP3    H146384   2.691   4.861  15.479  0.9469 -1.4016 -2.1122
 8323TIP3    H246385   2.665   4.933  15.349 -0.3145  0.9238 -0.6433
 8324TIP3   OH246386   4.490   6.020  17.444  0.0471 -0.3077  0.4214
 8324TIP3    H146387   4.537   6.039  17.525  1.3188  1.2852 -0.6407
 8324TIP3    H246388   4.558   6.017  17.377 -1.2241  0.9233 -0.9774
 8325TIP3   OH246389   0.029   2.414   5.716 -0.0267 -0.0502 -0.2434
 8325TIP3    H146390  -0.048   2.437   5.768 -0.9621 -0.2316 -1.5104
 8325TIP3    H246391   0.036   2.484   5.651  1.1716  0.2085  0.1316
 8326TIP3   OH246392   6.378   5.971  16.298  0.5365  0.3783  0.2083
 8326TIP3    H146393   6.334   5.903  16.350  1.7191 -1.9983 -1.6952
 8326TIP3    H246394   6.471   5.953  16.309  0.8395  0.3228 -1.9408
 8327TIP3   OH246395   5.702   0.326   5.410  0.3062 -0.0744 -0.2165
 8327TIP3    H146396   5.719   0.401   5.352 -1.4204 -0.6187 -1.5235
 8327TIP3    H246397   5.690   0.365   5.496  1.4882  0.9193 -0.4686
 8328TIP3   OH246398   3.204   3.243  11.493 -0.2234 -1.0957 -0.2686
 8328TIP3    H146399   3.111   3.250  11.474  0.0282 -0.6048 -1.4071
 8328TIP3    H246400   3.227   3.152  11.472 -0.6577 -1.5482  1.1113
 8329TIP3   OH246401   4.215   1.057   0.706  0.0434 -0.4401 -0.2401
 8329TIP3    H146402   4.212   1.136   0.652 -0.8200  0.0416  0.4946
 8329TIP3    H246403   4.308   1.032   0.706  0.2025  0.1090 -1.1265
 8330TIP3   OH246404   2.052   4.006   4.698 -0.3434 -0.1465  0.0551
 8330TIP3    H146405   2.113   3.990   4.770  1.9538 -1.8052 -2.1058
 8330TIP3    H246406   1.978   3.949   4.716  0.2676 -0.6619  1.0151
 8331TIP3   OH246407   5.809   3.820  16.413 -0.5790  0.1146  0.7484
 8331TIP3    H146408   5.719   3.851  16.422 -0.1074  1.5767  0.7125
 8331TIP3    H246409   5.816   3.791  16.322 -0.9381  0.2659  0.6739
 8332TIP3   OH246410   3.972   2.082  14.822  0.2468  0.2921 -0.2875
 8332TIP3    H146411   3.896   2.075  14.763 -0.2061 -0.0511  0.3156
 8332TIP3    H246412   3.974   2.174  14.848 -1.7500 -0.1557  1.9234
 8333TIP3   OH246413   1.438   2.340   6.210  0.0532  0.4805  1.0037
 8333TIP3    H146414   1.369   2.274   6.218 -0.6805  1.2727  1.3955
 8333TIP3    H246415   1.423   2.399   6.284  1.8462  0.0607  1.7576
 8334TIP3   OH246416   3.767   4.969   1.352 -0.3754  0.1972 -0.0477
 8334TIP3    H146417   3.828   5.042   1.351 -0.5570  0.4021  1.2489
 8334TIP3    H246418   3.687   5.004   1.313 -0.6376  0.8915  1.0495
 8335TIP3   OH246419   1.042   1.964   5.179 -0.3564  0.3399  0.0537
 8335TIP3    H146420   0.949   1.975   5.202 -0.0923  0.8912  0.9344
 8335TIP3    H246421   1.054   2.016   5.100 -0.8929 -0.1090 -0.3333
 8336TIP3   OH246422   6.399   3.009  14.018 -0.3891 -0.4158 -0.1302
 8336TIP3    H146423   6.318   3.004  13.967 -1.0971  2.2222  0.6201
 8336TIP3    H246424   6.464   2.963  13.964 -1.8368 -0.5527 -1.8413
 8337TIP3   OH246425   3.703   2.110  13.902  0.8814 -0.7429 -0.0647
 8337TIP3    H146426   3.649   2.187  13.920  0.7534 -1.0109  0.7418
 8337TIP3    H246427   3.780   2.122  13.958  2.0450  0.0135 -1.7408
 8338TIP3   OH246428   3.536   4.259   3.075 -0.2679  0.1722 -0.0387
 8338TIP3    H146429   3.484   4.195   3.027 -0.9860  0.2401  0.6267
 8338TIP3    H246430   3.611   4.209   3.108 -0.6692 -0.2546  0.2258
 8339TIP3   OH246431   3.465   5.955  14.156  0.7434 -0.4371 -0.6318
 8339TIP3    H146432   3.516   5.936  14.077  1.1245 -0.9490 -0.2712
 8339TIP3    H246433   3.477   5.878  14.211 -0.6151 -0.6779 -0.6332
 8340TIP3   OH246434   2.506   6.148   0.182  0.2921 -0.2049  0.0791
 8340TIP3    H146435   2.512   6.149   0.278 -1.3047  0.6946  0.2010
 8340TIP3    H246436   2.473   6.061   0.161 -1.5749  0.3432  0.5540
 8341TIP3   OH246437   0.446   1.392  13.978 -0.2810 -0.1182 -0.3149
 8341TIP3    H146438   0.387   1.323  13.949 -0.5169 -0.0898  0.0948
 8341TIP3    H246439   0.534   1.357  13.961 -0.4132  0.0581 -1.4245
 8342TIP3   OH246440   3.275   3.529   5.691 -0.5665  0.1870  0.1321
 8342TIP3    H146441   3.241   3.534   5.781  0.9421 -0.1680  0.7643
 8342TIP3    H246442   3.208   3.481   5.643 -1.0407 -0.3586  1.2798
 8343TIP3   OH246443   3.368   0.218  12.800  0.1244  0.1906 -0.2676
 8343TIP3    H146444   3.277   0.220  12.830  0.5980  1.6626  1.2372
 8343TIP3    H246445   3.387   0.308  12.775  1.7109  0.3446  1.2772
 8344TIP3   OH246446   4.061   3.065   6.819 -0.4945 -0.0512 -0.4947
 8344TIP3    H146447   4.112   2.985   6.832  0.8562  0.8561 -0.0154
 8344TIP3    H246448   4.001   3.044   6.747 -0.4858 -1.6270 -0.0882
 8345TIP3   OH246449   4.406   2.343   2.967  0.1547 -0.0048  0.3406
 8345TIP3    H146450   4.320   2.302   2.957  0.8830 -1.3498 -0.8259
 8345TIP3    H246451   4.461   2.274   3.003  0.9210  0.6229  0.4042
 8346TIP3   OH246452   2.428   1.444   0.735 -0.1908 -0.0940  0.1301
 8346TIP3    H146453   2.506   1.493   0.708  0.4231 -2.2269 -2.3427
 8346TIP3    H246454   2.459   1.355   0.750 -2.0733 -0.9526 -0.7078
 8347TIP3   OH246455   6.550   6.383   4.285 -0.3856 -0.5394  0.6850
 8347TIP3    H146456   6.480   6.333   4.242 -1.2408 -0.3933  1.8228
 8347TIP3    H246457   6.615   6.399   4.217 -0.9482 -1.6419 -0.1414
 8348TIP3   OH246458   1.047   1.139   2.795  0.1464 -0.4869  0.0489
 8348TIP3    H146459   1.080   1.079   2.729 -0.7785 -1.5892  0.5599
 8348TIP3    H246460   0.974   1.184   2.752  1.0345  0.5514 -0.4389
 8349TIP3   OH246461   5.432   3.371   1.890 -0.3401  0.6442 -0.7066
 8349TIP3    H146462   5.382   3.324   1.957 -1.5280  2.7123 -0.0636
 8349TIP3    H246463   5.523   3.360   1.916 -0.6402 -0.5471 -0.1005
 8350TIP3   OH246464   5.095   1.459   5.533 -0.4263  0.1861  0.4064
 8350TIP3    H146465   5.001   1.467   5.515 -0.6926 -0.7289  1.2673
 8350TIP3    H246466   5.102   1.380   5.588  0.5550  1.5662  2.3952
 8351TIP3   OH246467   0.943   1.111   6.047  0.1638  0.2514 -0.7494
 8351TIP3    H146468   0.894   1.041   6.005  0.0012 -0.4822  0.5983
 8351TIP3    H246469   1.011   1.134   5.985  1.1731 -2.1426 -0.6310
 8352TIP3   OH246470   3.507   2.313   1.662 -0.3152 -0.6903  0.1031
 8352TIP3    H146471   3.602   2.321   1.664 -0.2675 -1.3383  0.6393
 8352TIP3    H246472   3.479   2.334   1.751 -0.5951 -1.3732  0.1820
 8353TIP3   OH246473   1.776   2.762   2.537 -0.5355 -0.0169  0.2883
 8353TIP3    H146474   1.746   2.726   2.621 -2.1865 -0.5310 -0.4943
 8353TIP3    H246475   1.718   2.835   2.520 -0.9260 -0.5831 -0.9243
 8354TIP3   OH246476   2.164   4.908  16.097 -0.1962 -0.1416  0.2366
 8354TIP3    H146477   2.175   4.821  16.136  0.0781  0.7835  2.3639
 8354TIP3    H246478   2.071   4.928  16.109 -0.4907 -0.5204 -1.1953
 8355TIP3   OH246479   3.097   1.674  16.917  0.5910 -0.0509  0.8080
 8355TIP3    H146480   3.160   1.742  16.943  0.9746 -0.2051  0.2930
 8355TIP3    H246481   3.093   1.616  16.993  0.6996  0.2277  1.0326
 8356TIP3   OH246482   4.504   0.264  14.903  0.0846 -0.0311 -0.2902
 8356TIP3    H146483   4.576   0.207  14.931  0.7326  0.6718 -0.4996
 8356TIP3    H246484   4.479   0.312  14.981  1.7814  1.8086 -0.8066
 8357TIP3   OH246485   1.549   3.499  16.851 -0.5962  0.2929 -0.4139
 8357TIP3    H146486   1.496   3.484  16.930  1.2140  0.8446  0.9726
 8357TIP3    H246487   1.484   3.510  16.781 -2.3361  1.2891  1.2451
 8358TIP3   OH246488   6.299   5.182   5.963 -0.2205  0.7058 -0.1628
 8358TIP3    H146489   6.289   5.261   5.909  1.0445  2.3353  1.8439
 8358TIP3    H246490   6.391   5.158   5.953  0.0241  1.0199  1.1891
 8359TIP3   OH246491   0.348   4.948  16.139  0.4957  0.2679  0.5023
 8359TIP3    H146492   0.396   4.877  16.182  0.3245  0.6438  1.3396
 8359TIP3    H246493   0.296   4.905  16.072  0.7317 -0.3483  0.7096
 8360TIP3   OH246494   1.740   3.400  17.382 -0.2550 -0.1353 -0.3059
 8360TIP3    H146495   1.731   3.483  17.428  2.3753 -0.8435  1.7679
 8360TIP3    H246496   1.650   3.368  17.372 -1.3165  2.8477 -1.1034
 8361TIP3   OH246497   4.901   1.151  16.078 -0.1879 -0.3989  0.4563
 8361TIP3    H146498   4.884   1.179  16.168 -0.0901 -0.8515  0.6155
 8361TIP3    H246499   4.913   1.233  16.030  1.4393 -0.1526  1.1886
 8362TIP3   OH246500   5.246   2.570  17.126  0.0044 -0.3905  0.3436
 8362TIP3    H146501   5.290   2.553  17.043 -0.0752 -1.2038  0.4580
 8362TIP3    H246502   5.172   2.625  17.103  1.1688  1.1784  0.1756
 8363TIP3   OH246503   2.385   1.902   5.196 -0.0914 -0.3928  0.5972
 8363TIP3    H146504   2.461   1.872   5.246 -0.3840  0.8420  1.8618
 8363TIP3    H246505   2.322   1.831   5.203  0.3875 -0.8034  0.8301
 8364TIP3   OH246506   1.588   4.621   4.466 -0.1728  0.1038 -0.4268
 8364TIP3    H146507   1.579   4.624   4.371 -0.2105 -0.0729 -0.4302
 8364TIP3    H246508   1.665   4.675   4.485  0.9559 -1.3263 -0.7190
 8365TIP3   OH246509   5.875   3.432  12.400 -0.0717 -0.6784 -0.1701
 8365TIP3    H146510   5.788   3.467  12.419 -0.2705 -0.5634 -1.2515
 8365TIP3    H246511   5.879   3.428  12.305  2.2646  2.2526 -0.3148
 8366TIP3   OH246512   2.175   3.613  14.091  0.6977 -0.0047  0.0638
 8366TIP3    H146513   2.227   3.609  14.011  0.6619 -0.6695  0.0681
 8366TIP3    H246514   2.091   3.574  14.068 -0.1095  1.7524 -0.1538
 8367TIP3   OH246515   1.501   5.409   3.394 -0.2799  0.0184  0.2689
 8367TIP3    H146516   1.497   5.456   3.311 -0.3153  0.8148  0.7085
 8367TIP3    H246517   1.489   5.477   3.461 -0.3904 -0.6260  0.9215
 8368TIP3   OH246518   3.756   3.078   4.751 -0.0933 -0.4328 -0.1865
 8368TIP3    H146519   3.735   2.985   4.746  1.9778 -0.9761  0.1911
 8368TIP3    H246520   3.802   3.088   4.835  2.4662  0.2623 -1.5691
 8369TIP3   OH246521   6.137   2.988   5.935  1.1072 -0.2327 -0.8314
 8369TIP3    H146522   6.085   2.930   5.991  3.0926 -0.9187  0.3998
 8369TIP3    H246523   6.143   3.070   5.984  0.6097  0.0926 -1.3016
 8370TIP3   OH246524   5.100   5.419   2.538 -0.3016 -0.1445  1.4656
 8370TIP3    H146525   5.167   5.360   2.573 -0.5233 -1.3466 -0.0014
 8370TIP3    H246526   5.148   5.479   2.482 -0.5057 -2.1040 -1.0115
 8371TIP3   OH246527   3.995   4.870   6.651  0.2062  0.1967  0.4363
 8371TIP3    H146528   4.019   4.810   6.722 -0.2652 -1.0643 -0.4282
 8371TIP3    H246529   3.917   4.914   6.682  0.4591  0.2366  1.0234
 8372TIP3   OH246530   2.698   5.917  11.905 -0.3768 -0.0588 -0.6045
 8372TIP3    H146531   2.662   5.936  11.992  0.0825 -0.9325 -0.2116
 8372TIP3    H246532   2.637   5.959  11.845 -1.3401 -0.3937  0.0994
 8373TIP3   OH246533   6.393   4.384  16.920  0.0752 -0.5603 -0.0866
 8373TIP3    H146534   6.370   4.304  16.873 -0.1722 -0.9783  0.7218
 8373TIP3    H246535   6.344   4.453  16.876 -1.5834 -1.2070  0.6579
 8374TIP3   OH246536   5.760   0.746   4.350 -0.1601  0.6893 -0.3936
 8374TIP3    H146537   5.730   0.729   4.439  0.4047  0.3151 -0.2701
 8374TIP3    H246538   5.753   0.841   4.341 -2.3940  0.5565 -0.7460
 8375TIP3   OH246539   2.218   4.099   1.648 -0.1856 -0.7620  0.2865
 8375TIP3    H146540   2.242   4.017   1.691  1.0930 -1.9981 -2.4833
 8375TIP3    H246541   2.300   4.148   1.643 -0.5734 -0.0901  0.3410
 8376TIP3   OH246542   0.990   2.367   1.801 -0.4684  0.8340  0.2736
 8376TIP3    H146543   1.018   2.454   1.775 -1.4322  1.0330 -0.1338
 8376TIP3    H246544   0.908   2.381   1.848 -0.5188  0.1608  0.4034
 8377TIP3   OH246545   3.356   4.581  15.924  0.1798  0.6686  0.3116
 8377TIP3    H146546   3.431   4.567  15.982 -0.4944  1.1182  1.3274
 8377TIP3    H246547   3.283   4.540  15.969 -0.0322 -0.6137 -1.1243
 8378TIP3   OH246548   0.571   6.659  16.077 -0.1582  0.2866 -0.4212
 8378TIP3    H146549   0.534   6.648  16.165  0.6700 -1.4860 -0.2397
 8378TIP3    H246550   0.611   6.575  16.058  2.2562  1.5315 -1.2907
 8379TIP3   OH246551   2.522   0.105  15.895  0.0110  0.2561 -0.9589
 8379TIP3    H146552   2.452   0.040  15.886 -1.7329  2.0045 -0.7755
 8379TIP3    H246553   2.482   0.187  15.866  2.5828  1.0290 -2.5894
 8380TIP3   OH246554   0.623   1.001  12.574 -0.2513  0.6024  0.6112
 8380TIP3    H146555   0.528   1.012  12.582 -0.4578 -0.7091  0.1524
 8380TIP3    H246556   0.649   0.960  12.657 -0.0504  1.1314  0.8131
 8381TIP3   OH246557   0.628   2.276   6.490  0.3830 -0.1957 -0.3455
 8381TIP3    H146558   0.578   2.288   6.410  1.1716  1.0155 -0.6828
 8381TIP3    H246559   0.604   2.189   6.521 -1.2546  0.0227 -0.9487
 8382TIP3   OH246560   2.415   3.095  13.030 -0.4460 -0.4181 -0.6825
 8382TIP3    H146561   2.505   3.101  13.062 -0.0914 -2.5530 -1.1076
 8382TIP3    H246562   2.373   3.031  13.088 -1.1361 -0.8626 -1.6454
 8383TIP3   OH246563   0.287   2.539   4.956 -0.2778 -1.1336  0.2619
 8383TIP3    H146564   0.348   2.562   4.886 -0.4246 -1.1226  0.1385
 8383TIP3    H246565   0.201   2.562   4.921 -0.2133  0.6456  1.1376
 8384TIP3   OH246566   1.740   3.412   4.883 -0.1281 -0.3233 -0.5303
 8384TIP3    H146567   1.827   3.377   4.868  0.7742  1.7774 -0.5362
 8384TIP3    H246568   1.699   3.412   4.796  0.4601  0.1072 -0.8202
 8385TIP3   OH246569   4.241   1.468  11.488 -0.2652 -0.8058  0.2081
 8385TIP3    H146570   4.162   1.421  11.463 -0.4964 -0.6395  0.6366
 8385TIP3    H246571   4.225   1.559  11.462 -1.0089 -0.3688  2.0411
 8386TIP3   OH246572   4.287   4.449  16.293  0.5557  0.3404 -0.2535
 8386TIP3    H146573   4.353   4.507  16.255 -1.2039  0.9521 -2.6432
 8386TIP3    H246574   4.233   4.507  16.348  0.6257  0.3324 -0.1768
 8387TIP3   OH246575   3.683   5.238   2.240 -0.3745 -0.2771  0.0283
 8387TIP3    H146576   3.595   5.205   2.224 -0.2257 -0.2752 -0.8482
 8387TIP3    H246577   3.672   5.305   2.308 -0.8822 -1.0432  0.7082
 8388TIP3   OH246578   2.723   6.335   5.673  0.1896  0.4971 -0.3404
 8388TIP3    H146579   2.781   6.299   5.606  0.5570  0.9805 -0.2807
 8388TIP3    H246580   2.779   6.344   5.750 -0.6314 -1.7537  0.5990
 8389TIP3   OH246581   2.945   3.469  15.063 -0.2797 -0.7418 -0.0772
 8389TIP3    H146582   2.929   3.377  15.043 -0.0218 -0.6324 -0.8060
 8389TIP3    H246583   2.863   3.514  15.043 -1.1857 -1.1056  2.4216
 8390TIP3   OH246584   4.220   5.041   5.766  0.0018  0.0964 -0.5209
 8390TIP3    H146585   4.192   4.957   5.727  1.5509 -0.9390  0.5118
 8390TIP3    H246586   4.147   5.066   5.822  0.3259 -1.6354  0.7462
 8391TIP3   OH246587   3.767   5.450   0.191 -0.3350 -0.5586  0.5142
 8391TIP3    H146588   3.861   5.450   0.170 -0.3652  1.0570  0.2027
 8391TIP3    H246589   3.764   5.461   0.286 -0.2151 -0.8899  0.5581
 8392TIP3   OH246590   3.820   4.160  11.363  0.6232  0.3016  0.1211
 8392TIP3    H146591   3.912   4.180  11.382  0.6842  1.8689 -1.5596
 8392TIP3    H246592   3.821   4.070  11.332  1.6658  0.4363 -0.2646
 8393TIP3   OH246593   4.299   5.220   4.806 -0.2903  0.9351  0.3998
 8393TIP3    H146594   4.330   5.303   4.769  1.2720  0.7156  1.1381
 8393TIP3    H246595   4.229   5.192   4.747  2.6758  0.1238 -3.0880
 8394TIP3   OH246596   5.286   6.268   2.603  0.1050  0.5572  0.3768
 8394TIP3    H146597   5.262   6.337   2.665 -0.6569  0.4313  0.2216
 8394TIP3    H246598   5.345   6.211   2.653  0.3736  1.0568  0.6438
 8395TIP3   OH246599   4.208   1.553  17.458  0.8269 -0.1845  0.2359
 8395TIP3    H146600   4.161   1.597  17.387  0.4781 -0.1718  0.4687
 8395TIP3    H246601   4.214   1.618  17.527  0.5905 -0.3980  0.4613
 8396TIP3   OH246602   4.500   3.563   1.304 -0.0192 -0.1446 -0.6444
 8396TIP3    H146603   4.497   3.507   1.381 -2.6908  0.8063  0.0561
 8396TIP3    H246604   4.545   3.642   1.333 -0.3075 -0.1099 -0.2883
 8397TIP3   OH246605   2.101   0.454  16.414 -0.0301  0.7135  0.3643
 8397TIP3    H146606   2.149   0.374  16.433 -0.7121 -0.3857 -2.1578
 8397TIP3    H246607   2.159   0.505  16.358 -0.6535  0.7015 -0.3069
 8398TIP3   OH246608   3.924   1.396   0.518  0.3704 -0.2096  0.6531
 8398TIP3    H146609   3.916   1.451   0.440  2.3205 -1.1276 -0.2609
 8398TIP3    H246610   3.897   1.309   0.489  0.8883 -0.5157  1.0806
 8399TIP3   OH246611   3.950   2.348   3.271 -0.3895 -0.1107 -0.2434
 8399TIP3    H146612   3.896   2.269   3.257 -3.1263  1.4405  0.8079
 8399TIP3    H246613   3.983   2.339   3.360 -0.6291 -0.1079 -0.1536
 8400TIP3   OH246614   4.715   4.299  17.069 -0.1633  0.1120 -0.3812
 8400TIP3    H146615   4.622   4.288  17.085 -0.6758  1.4358 -2.1039
 8400TIP3    H246616   4.734   4.244  16.993  0.5406 -0.3776  0.1310
 8401TIP3   OH246617   4.189   4.152   4.298  0.0292  0.5462 -0.5467
 8401TIP3    H146618   4.124   4.089   4.267  0.9325 -0.7782  0.1359
 8401TIP3    H246619   4.239   4.176   4.219  0.1560 -0.1878 -0.6994
 8402TIP3   OH246620   0.549   0.201  17.257 -0.0853 -0.1419  0.6255
 8402TIP3    H146621   0.468   0.164  17.220 -0.6129 -1.0672  2.5445
 8402TIP3    H246622   0.603   0.124  17.276  1.8254  0.5286 -1.7466
 8403TIP3   OH246623   6.168   4.115   1.775  0.1447  0.3193 -0.0324
 8403TIP3    H146624   6.135   4.102   1.686 -1.0975 -0.6331  0.5247
 8403TIP3    H246625   6.089   4.117   1.829  0.8612  1.1969  1.0222
 8404TIP3   OH246626   0.809   4.860  13.919 -0.0795 -0.1997 -0.1770
 8404TIP3    H146627   0.901   4.884  13.930  0.3638 -0.2892 -2.9757
 8404TIP3    H246628   0.770   4.934  13.874 -0.6957 -1.2623 -1.4671
 8405TIP3   OH246629   3.865   6.343  16.373  0.1595 -0.1157 -0.7780
 8405TIP3    H146630   3.918   6.278  16.327  1.4539  0.1446  0.2907
 8405TIP3    H246631   3.783   6.298  16.393  0.8955 -1.3193 -0.3636
 8406TIP3   OH246632   0.944   2.441  15.570 -0.8148 -0.5859 -0.1112
 8406TIP3    H146633   0.938   2.435  15.475  0.3024 -0.0205 -0.2331
 8406TIP3    H246634   0.996   2.365  15.596 -1.7779 -1.1792  0.1460
 8407TIP3   OH246635   0.277   0.621  13.770 -0.1270 -0.7660  0.6568
 8407TIP3    H146636   0.251   0.581  13.853 -0.7436  0.1237  0.9072
 8407TIP3    H246637   0.366   0.590  13.755  0.2391 -0.4199  1.9884
 8408TIP3   OH246638   0.972   2.509   5.457  0.2913  0.7319  0.5709
 8408TIP3    H146639   1.043   2.559   5.418  1.1100 -0.4279  0.5432
 8408TIP3    H246640   0.994   2.417   5.441 -1.9825  0.3286 -0.8453
 8409TIP3   OH246641   4.270   0.337  13.832  0.1156 -0.2952  0.7280
 8409TIP3    H146642   4.211   0.372  13.765  0.6707 -0.1698  0.2958
 8409TIP3    H246643   4.271   0.242  13.815 -0.5315 -0.3984  1.2069
 8410TIP3   OH246644   5.361   6.444  16.952 -0.0228  0.0822 -0.0977
 8410TIP3    H146645   5.414   6.375  16.913  1.7643  1.3148  0.0501
 8410TIP3    H246646   5.339   6.411  17.039  1.7554  0.1080  0.4057
 8411TIP3   OH246647   3.099   6.350   0.138  0.0417  0.4386  0.5897
 8411TIP3    H146648   3.055   6.354   0.053  0.4590 -0.3728  0.3260
 8411TIP3    H246649   3.152   6.430   0.141  0.4532  0.1948 -0.1486
 8412TIP3   OH246650   0.153   0.617  14.250 -0.8530  0.1129 -0.0503
 8412TIP3    H146651   0.147   0.545  14.187 -3.7865  0.7640 -0.6719
 8412TIP3    H246652   0.101   0.687  14.212 -0.4989  1.5182  1.8831
 8413TIP3   OH246653   5.917   4.363   1.227 -0.4381 -0.8755  0.3956
 8413TIP3    H146654   5.909   4.457   1.212 -0.6834 -0.9420  0.0919
 8413TIP3    H246655   5.933   4.326   1.140  1.8029 -0.9004  0.7739
 8414TIP3   OH246656   0.837   1.272   1.998  0.1058  0.0481 -0.4925
 8414TIP3    H146657   0.834   1.207   2.068 -1.7357 -0.5685 -1.0973
 8414TIP3    H246658   0.750   1.269   1.958  0.5291  1.6808 -1.6418
 8415TIP3   OH246659   3.399   6.285   3.218  0.3865  0.6995  0.5778
 8415TIP3    H146660   3.349   6.297   3.299  0.5699  0.5213  0.7179
 8415TIP3    H246661   3.457   6.361   3.214  0.0310  0.9592  0.3619
 8416TIP3   OH246662   5.763   3.616  13.757  0.6418 -0.4765 -0.8021
 8416TIP3    H146663   5.831   3.582  13.815  0.2488 -0.5572 -0.3831
 8416TIP3    H246664   5.753   3.550  13.689 -0.6385 -1.5887  0.4072
 8417TIP3   OH246665   4.466   0.308   3.651  0.1285 -0.0895 -0.0065
 8417TIP3    H146666   4.384   0.327   3.697  0.6721 -1.2625  1.5487
 8417TIP3    H246667   4.463   0.363   3.573 -1.8109  0.4149  0.3659
 8418TIP3   OH246668   1.692   1.683   2.881  0.4571 -0.0802  0.4797
 8418TIP3    H146669   1.766   1.643   2.926  0.7572 -1.1356 -0.8862
 8418TIP3    H246670   1.638   1.610   2.853  0.5604  0.4842 -1.3085
 8419TIP3   OH246671   5.333   1.221  14.243  0.1418  0.2237 -0.3996
 8419TIP3    H146672   5.300   1.307  14.217  1.6705  0.8410 -0.4439
 8419TIP3    H246673   5.350   1.176  14.161 -0.5734 -0.1023 -0.3767
 8420TIP3   OH246674   6.243   5.418  11.773 -0.1632  0.1684  0.3239
 8420TIP3    H146675   6.282   5.499  11.740  0.8508 -0.5733 -0.3595
 8420TIP3    H246676   6.196   5.382  11.697 -1.9444  0.8736  1.0372
 8421TIP3   OH246677   3.188   5.936   5.174 -0.5635  0.1709 -0.6463
 8421TIP3    H146678   3.266   5.984   5.200 -1.2084  0.0587  1.7145
 8421TIP3    H246679   3.217   5.846   5.161 -0.5063 -0.2194  1.7894
 8422TIP3   OH246680   1.255   2.628   6.206  0.1447  0.7985 -0.2107
 8422TIP3    H146681   1.302   2.582   6.277 -0.1281 -0.3289 -0.7400
 8422TIP3    H246682   1.163   2.605   6.219  0.3414 -1.9246 -2.6137
 8423TIP3   OH246683   0.452   2.141  10.944  0.4194  0.0881 -0.0236
 8423TIP3    H146684   0.476   2.233  10.946  1.0621 -0.0859  0.6195
 8423TIP3    H246685   0.413   2.128  10.857  0.9019  0.8170 -0.3567
 8424TIP3   OH246686   2.496   2.961   0.260  0.0461  0.7418  0.4841
 8424TIP3    H146687   2.427   3.027   0.256  0.3859  1.0467 -0.6892
 8424TIP3    H246688   2.469   2.902   0.330 -0.2043  2.1765  1.6287
 8425TIP3   OH246689   6.002   3.621  14.117  0.5075 -0.8364 -0.1470
 8425TIP3    H146690   5.985   3.570  14.038 -1.1887 -1.3289  0.4895
 8425TIP3    H246691   6.056   3.564  14.171  0.2027 -1.1990 -0.2222
 8426TIP3   OH246692   1.042   4.295  12.017  0.0497 -0.0908  0.4963
 8426TIP3    H146693   1.112   4.271  12.077  1.8685  1.4806 -0.8896
 8426TIP3    H246694   1.046   4.230  11.947 -0.1214 -0.2085  0.5951
 8427TIP3   OH246695   1.293   0.407  15.435 -0.6495 -0.2468  0.8455
 8427TIP3    H146696   1.265   0.316  15.448  1.0544 -0.7559  1.1862
 8427TIP3    H246697   1.370   0.416  15.491 -0.5630  1.3001  0.5042
 8428TIP3   OH246698   5.652   4.943  11.956  0.0219  0.1385  0.5186
 8428TIP3    H146699   5.731   4.960  12.007  0.3525 -2.8025  1.1672
 8428TIP3    H246700   5.672   4.974  11.868  1.6988 -0.0829  0.7982
 8429TIP3   OH246701   0.282   4.536  16.024 -0.0599 -0.5796 -0.1506
 8429TIP3    H146702   0.348   4.535  15.954  0.0686  3.1101 -0.2373
 8429TIP3    H246703   0.201   4.508  15.982  0.6148 -1.2924 -1.0099
 8430TIP3   OH246704   5.438   2.629  16.056  0.3767  0.3318 -0.4909
 8430TIP3    H146705   5.424   2.557  15.994  1.4571  0.9214 -1.4448
 8430TIP3    H246706   5.380   2.608  16.130 -1.8850  0.2207 -2.1910
 8431TIP3   OH246707   5.557   0.598  15.216 -0.1219  0.0028 -0.1512
 8431TIP3    H146708   5.529   0.524  15.271  1.7985 -0.1353  0.7194
 8431TIP3    H246709   5.647   0.576  15.192 -0.1251  1.2440 -1.3491
 8432TIP3   OH246710   6.373   2.913   0.545 -0.2844  0.6597  0.3509
 8432TIP3    H146711   6.437   2.937   0.612 -1.3254  0.4925  1.4375
 8432TIP3    H246712   6.297   2.882   0.594 -1.3784  1.2815 -0.8937
 8433TIP3   OH246713   4.917   0.150   1.726 -0.1948 -0.0300  0.4639
 8433TIP3    H146714   4.999   0.170   1.771 -0.9400 -0.7963  2.2713
 8433TIP3    H246715   4.850   0.162   1.793 -1.5578  0.4125 -0.9277
 8434TIP3   OH246716   3.154   1.840  15.593  0.3521  0.0692 -0.2450
 8434TIP3    H146717   3.220   1.885  15.540 -0.3261  2.6424  0.9540
 8434TIP3    H246718   3.120   1.908  15.651 -1.8947 -1.6677  0.5902
 8435TIP3   OH246719   2.016   5.638   2.651  0.7636 -0.4603 -0.1112
 8435TIP3    H146720   2.087   5.576   2.632  2.4337  0.8646  1.4290
 8435TIP3    H246721   2.045   5.684   2.730 -0.6890  1.8534 -0.8267
 8436TIP3   OH246722   3.229   6.115  15.927  0.2154  0.3128 -0.3917
 8436TIP3    H146723   3.165   6.146  15.863 -0.6845 -0.0200  0.3379
 8436TIP3    H246724   3.289   6.189  15.938 -0.7369  1.0752 -0.1838
 8437TIP3   OH246725   0.944   3.751  16.608 -0.2987  0.4002 -0.2485
 8437TIP3    H146726   1.038   3.772  16.611  0.2283 -1.8724  1.3934
 8437TIP3    H246727   0.937   3.666  16.650 -3.4749  1.8484  2.6356
 8438TIP3   OH246728   2.869   1.455   0.308  0.0761  0.0228  0.0344
 8438TIP3    H146729   2.776   1.448   0.326  0.2553 -1.4786  0.5223
 8438TIP3    H246730   2.887   1.386   0.244  0.6225  1.2012 -1.1609
 8439TIP3   OH246731   1.878   2.738  17.457 -0.4787  0.3291 -0.1200
 8439TIP3    H146732   1.821   2.702  17.525  0.7790 -1.4936  0.0359
 8439TIP3    H246733   1.875   2.673  17.386 -0.8171  1.6138 -1.3249
 8440TIP3   OH246734   4.172   5.598  17.506 -0.0807  0.0245  0.1720
 8440TIP3    H146735   4.204   5.681  17.540 -1.0148 -0.5536  2.6724
 8440TIP3    H246736   4.235   5.575  17.437  1.3361  1.8220  0.7735
 8441TIP3   OH246737   1.823   4.196  11.903 -0.2616  0.5722  0.2299
 8441TIP3    H146738   1.898   4.209  11.844 -0.9372 -0.5555 -0.9396
 8441TIP3    H246739   1.848   4.121  11.957 -0.2248  0.7134  0.4113
 8442TIP3   OH246740   0.768   2.404   1.958  0.2893  0.6566 -0.7880
 8442TIP3    H146741   0.778   2.480   2.015  1.5194  0.2527 -0.4502
 8442TIP3    H246742   0.689   2.424   1.906  0.2981  1.9220 -0.3545
 8443TIP3   OH246743   2.391   5.101  11.648 -0.1146 -0.6314  0.2393
 8443TIP3    H146744   2.361   5.159  11.579  1.1375 -1.2314 -0.8489
 8443TIP3    H246745   2.366   5.013  11.620 -0.9622 -0.7548  1.3052
 8444TIP3   OH246746   4.103   4.379   3.330 -0.2557  0.2156  0.8660
 8444TIP3    H146747   4.066   4.302   3.288  1.3038 -0.7651  1.2100
 8444TIP3    H246748   4.115   4.442   3.259  1.8134 -1.2151 -0.1324
 8445TIP3   OH246749   4.318   4.247  16.140  1.0394 -0.3352 -0.0129
 8445TIP3    H146750   4.294   4.323  16.194  1.1379 -1.8357  2.3071
 8445TIP3    H246751   4.396   4.275  16.093  0.8940  1.1196  0.5597
 8446TIP3   OH246752   2.084   0.845  13.557  0.4431  0.4383  0.1331
 8446TIP3    H146753   2.162   0.793  13.538 -1.4854 -1.7351 -2.7141
 8446TIP3    H246754   2.026   0.785  13.603 -1.4539  0.2282 -2.3377
 8447TIP3   OH246755   3.104   1.049   4.343 -0.0496 -0.0644  0.3708
 8447TIP3    H146756   3.030   1.097   4.381 -0.6209 -0.2242 -0.5194
 8447TIP3    H246757   3.104   1.074   4.251  0.3704 -0.8648  0.1425
 8448TIP3   OH246758   2.010   5.013   4.311 -0.1373  0.3081 -0.9964
 8448TIP3    H146759   1.985   4.955   4.240 -1.1763  0.0473 -0.4345
 8448TIP3    H246760   1.936   5.011   4.372  0.4715  0.9888 -0.1967
 8449TIP3   OH246761   3.431   3.621  14.291 -0.5457 -0.5463 -0.7812
 8449TIP3    H146762   3.419   3.713  14.265  0.3688  0.6773  2.6450
 8449TIP3    H246763   3.342   3.589  14.309 -0.7180  0.4739  0.3094
 8450TIP3   OH246764   3.353   2.424  15.836  0.3554  0.3495 -0.6713
 8450TIP3    H146765   3.354   2.405  15.930  2.4526 -0.3006 -0.7666
 8450TIP3    H246766   3.326   2.341  15.795 -1.4915  0.8978 -0.6439
 8451TIP3   OH246767   2.729   0.415  14.871 -0.3492  0.1651 -0.0544
 8451TIP3    H146768   2.823   0.403  14.862  0.3157  2.6041  2.5005
 8451TIP3    H246769   2.712   0.406  14.964 -2.4176  1.1512 -0.2851
 8452TIP3   OH246770   4.379   1.641   0.238 -0.2900  0.1570 -0.1439
 8452TIP3    H146771   4.461   1.604   0.270 -0.6867  0.1861  0.9441
 8452TIP3    H246772   4.365   1.720   0.292 -1.8743 -0.7679  0.8853
 8453TIP3   OH246773   6.097   0.370  16.624 -0.0017 -0.3619 -0.4413
 8453TIP3    H146774   6.018   0.398  16.576 -0.2198  0.4125  0.3337
 8453TIP3    H246775   6.086   0.408  16.711  1.9957  1.1722 -0.7786
 8454TIP3   OH246776   1.969   0.943   5.413 -0.2744  0.0609 -0.3336
 8454TIP3    H146777   2.001   0.874   5.471  0.4837  1.1306  0.5558
 8454TIP3    H246778   2.048   0.975   5.369 -0.9116 -1.3284 -2.7044
 8455TIP3   OH246779   3.136   0.638  14.632  0.2523 -0.3360  0.6536
 8455TIP3    H146780   3.152   0.580  14.706 -0.9448  0.4432  1.5635
 8455TIP3    H246781   3.116   0.579  14.559  1.1935 -1.1049  0.9965
 8456TIP3   OH246782   3.874   2.775  13.307  0.2565 -0.4515 -0.0611
 8456TIP3    H146783   3.907   2.864  13.311 -2.2365  0.5856 -0.6609
 8456TIP3    H246784   3.943   2.722  13.347  1.8350  1.7008  0.2623
 8457TIP3   OH246785   3.569   1.625  11.574  0.5384 -0.0747  0.8577
 8457TIP3    H146786   3.511   1.553  11.550 -1.4417  1.3650  1.1030
 8457TIP3    H246787   3.548   1.644  11.666  0.6741  1.1050  0.6706
 8458TIP3   OH246788   4.093   1.331   1.281  0.3544  0.2113 -0.3183
 8458TIP3    H146789   4.024   1.391   1.310  0.8976  0.5456  0.2789
 8458TIP3    H246790   4.068   1.246   1.318  0.9813  0.6067  1.0515
 8459TIP3   OH246791   3.859   0.550  16.452 -0.0303 -0.1854  0.2486
 8459TIP3    H146792   3.803   0.578  16.380 -0.6461  0.6047  1.0209
 8459TIP3    H246793   3.806   0.560  16.530  1.0693  0.2518  0.9704
 8460TIP3   OH246794   3.753   3.204   6.036 -0.1708 -0.1591 -0.1240
 8460TIP3    H146795   3.728   3.198   5.944  0.5010  2.9208 -0.6044
 8460TIP3    H246796   3.836   3.251   6.036 -0.7450  1.0065  2.0796
 8461TIP3   OH246797   6.418   5.609   2.566  0.0565  0.6377  0.0463
 8461TIP3    H146798   6.444   5.699   2.582  1.5725  0.0541  1.1399
 8461TIP3    H246799   6.429   5.597   2.471  0.7670  1.3335  0.0325
 8462TIP3   OH246800   5.970   5.393   3.309  0.1273 -0.1149  0.8931
 8462TIP3    H146801   6.042   5.353   3.358  1.7714  0.6930 -0.7394
 8462TIP3    H246802   6.014   5.447   3.243 -1.9958 -0.3324 -0.7823
 8463TIP3   OH246803   3.813   3.339   6.753 -0.3034  0.2139 -0.1785
 8463TIP3    H146804   3.840   3.252   6.723 -0.3316  0.9709 -2.6280
 8463TIP3    H246805   3.877   3.363   6.820 -0.2627 -1.6516  0.4891
 8464TIP3   OH246806   2.504   3.618  12.897  0.0697 -0.0984  0.5560
 8464TIP3    H146807   2.422   3.663  12.918 -0.8818 -1.0358 -0.9529
 8464TIP3    H246808   2.535   3.584  12.981 -0.8225  0.6894  1.2292
 8465TIP3   OH246809   3.477   1.239  14.015 -0.0023 -0.1353 -0.0427
 8465TIP3    H146810   3.444   1.311  13.960  2.1020  0.6745 -0.3515
 8465TIP3    H246811   3.411   1.170  14.006 -0.5042  0.5406 -2.3856
 8466TIP3   OH246812   4.671   6.219  15.001 -0.3267 -0.1919 -0.0550
 8466TIP3    H146813   4.642   6.127  15.003 -1.0048  0.0330  0.5765
 8466TIP3    H246814   4.749   6.220  15.058 -0.9927 -0.1529  0.8729
 8467TIP3   OH246815   5.334   3.515   3.225  0.1153  0.4100  0.1625
 8467TIP3    H146816   5.375   3.601   3.218 -0.5092  0.7351  0.4483
 8467TIP3    H246817   5.254   3.530   3.276  1.1751 -0.7377  2.3321
 8468TIP3   OH246818   5.731   6.482  11.789  0.3613  0.0695 -0.2475
 8468TIP3    H146819   5.732   6.389  11.814  0.7958 -0.0751 -0.7738
 8468TIP3    H246820   5.712   6.529  11.870  1.7954 -0.3712  0.3650
 8469TIP3   OH246821   0.548   2.340  15.111  0.4315 -0.0083 -0.4631
 8469TIP3    H146822   0.497   2.259  15.104  1.1428 -0.4544 -0.6364
 8469TIP3    H246823   0.579   2.356  15.022  0.9719 -0.0039 -0.2774
 8470TIP3   OH246824   6.133   0.046   2.329  0.1238 -0.1685  0.2478
 8470TIP3    H146825   6.063   0.056   2.266  0.1162  0.9115  0.3990
 8470TIP3    H246826   6.203   0.102   2.296 -0.6003  2.0404  2.1529
 8471TIP3   OH246827   1.862   3.011   1.716 -0.4629  1.1767  0.1064
 8471TIP3    H146828   1.915   2.973   1.646 -2.2416 -1.2900 -0.0512
 8471TIP3    H246829   1.926   3.037   1.783  1.0656  0.3913 -0.9785
 8472TIP3   OH246830   2.256   2.430  13.928 -0.3814  0.0384 -0.0134
 8472TIP3    H146831   2.198   2.423  13.852 -1.7052  1.8815  0.7518
 8472TIP3    H246832   2.339   2.462  13.892 -1.3741  2.1169 -0.5968
 8473TIP3   OH246833   0.233   5.833  14.152  0.4154 -0.4986  0.5812
 8473TIP3    H146834   0.276   5.798  14.230  1.9249  0.2803  0.1319
 8473TIP3    H246835   0.176   5.903  14.185 -0.8947 -1.7987  1.2237
 8474TIP3   OH246836   4.284   3.330   5.180 -0.2151  0.1659 -0.1279
 8474TIP3    H146837   4.277   3.249   5.130 -0.5268 -0.6144  1.1326
 8474TIP3    H246838   4.332   3.390   5.122  0.8722 -1.2162 -0.7041
 8475TIP3   OH246839   4.022   5.408   5.653  0.3946 -0.0706  0.1554
 8475TIP3    H146840   4.017   5.316   5.677  0.5172 -0.8923 -2.6007
 8475TIP3    H246841   4.110   5.418   5.615  0.3840  1.1917  0.4312
 8476TIP3   OH246842   0.904   1.621  15.605 -0.0917  0.7852 -0.2019
 8476TIP3    H146843   0.883   1.559  15.535 -0.0486  1.8633 -1.1911
 8476TIP3    H246844   0.917   1.705  15.560 -1.0422  1.7206  1.1929
 8477TIP3   OH246845   0.315   5.269  17.283 -0.3438 -0.0303 -0.2860
 8477TIP3    H146846   0.221   5.280  17.270 -0.2063  1.0450 -0.5157
 8477TIP3    H246847   0.350   5.358  17.277  0.6569 -0.3881  0.0543
 8478TIP3   OH246848   3.240   0.585   0.507  0.0246 -0.5173 -0.3176
 8478TIP3    H146849   3.239   0.507   0.563  0.6923 -0.8356 -0.7274
 8478TIP3    H246850   3.172   0.641   0.543 -0.1708 -1.1024  0.2580
 8479TIP3   OH246851   5.320   2.388   1.033  0.0803 -0.0483  0.5854
 8479TIP3    H146852   5.228   2.368   1.016 -0.3779  1.0620  1.6458
 8479TIP3    H246853   5.339   2.463   0.977  0.0627  0.2961  1.0316
 8480TIP3   OH246854   5.192   1.235  13.862 -0.0727  0.2651  0.0563
 8480TIP3    H146855   5.206   1.143  13.887 -0.7182 -1.3294 -4.4315
 8480TIP3    H246856   5.274   1.279  13.883  1.2061 -1.9709  0.0492
 8481TIP3   OH246857   3.388   1.265  15.851 -0.1001  0.1518  0.1648
 8481TIP3    H146858   3.445   1.258  15.927 -1.2489  2.1127  1.3181
 8481TIP3    H246859   3.301   1.243  15.885 -0.1978 -2.2476 -1.4178
 8482TIP3   OH246860   3.388   4.741  13.043 -0.1230  0.3339  0.1818
 8482TIP3    H146861   3.456   4.768  12.982 -0.1306  0.0465  0.0408
 8482TIP3    H246862   3.429   4.744  13.129  0.2337 -0.3386  0.0472
 8483TIP3   OH246863   5.590   3.248  12.221  0.0475  0.1529  0.1484
 8483TIP3    H146864   5.620   3.308  12.153  2.3545  0.1453  1.0668
 8483TIP3    H246865   5.587   3.163  12.178  3.3567 -0.2151  0.3764
 8484TIP3   OH246866   2.492   5.387   1.920 -0.2905 -0.3793  0.4174
 8484TIP3    H146867   2.465   5.385   1.829 -2.5303 -1.5992  1.0442
 8484TIP3    H246868   2.581   5.423   1.918 -0.8866  1.1305 -2.0504
 8485TIP3   OH246869   5.735   0.743   5.047 -0.0374 -0.8308 -0.1068
 8485TIP3    H146870   5.665   0.807   5.030  0.2466 -0.3986  0.3495
 8485TIP3    H246871   5.770   0.723   4.960 -1.0213 -1.3883 -0.3890
 8486TIP3   OH246872   2.751   4.144  13.648 -0.1090 -0.1199  0.0735
 8486TIP3    H146873   2.771   4.215  13.709 -2.0385 -0.1601  0.8124
 8486TIP3    H246874   2.836   4.122  13.609  0.6425  2.1104  0.3146
 8487TIP3   OH246875   3.136   0.037  14.118  0.3175  0.0278 -0.4836
 8487TIP3    H146876   3.119   0.116  14.066 -0.1169  0.9559  0.9915
 8487TIP3    H246877   3.120  -0.035  14.058  0.0645  1.0533 -1.6976
 8488TIP3   OH246878   1.582   4.811   3.740  0.5396 -0.7845  0.3327
 8488TIP3    H146879   1.542   4.724   3.738 -2.1748  0.3412  0.2025
 8488TIP3    H246880   1.547   4.855   3.662  1.3594  0.6222  0.7262
 8489TIP3   OH246881   3.870   3.056  17.331 -0.0445  0.0546 -0.0070
 8489TIP3    H146882   3.842   3.146  17.319  0.6982  0.6217  2.0362
 8489TIP3    H246883   3.888   3.024  17.243  2.5841  2.8649 -0.6567
 8490TIP3   OH246884   3.232   2.859   5.167 -0.6263 -0.0184  0.2908
 8490TIP3    H146885   3.209   2.947   5.196 -1.1303 -0.6352  1.8608
 8490TIP3    H246886   3.151   2.809   5.175 -0.1023 -0.8770  0.4301
 8491TIP3   OH246887   3.253   3.581  12.357 -0.0611  0.9941 -0.1515
 8491TIP3    H146888   3.191   3.653  12.371 -1.0465 -0.0694  1.3081
 8491TIP3    H246889   3.202   3.516  12.308 -0.9694 -0.8387  2.9564
 8492TIP3   OH246890   0.548   1.850   4.113 -0.0921  0.1528  0.3615
 8492TIP3    H146891   0.557   1.883   4.202 -0.3052  1.0815  0.0477
 8492TIP3    H246892   0.618   1.785   4.105  0.7104  0.9278  0.8145
 8493TIP3   OH246893   3.941   3.262   0.009  0.3616 -0.6044 -0.3849
 8493TIP3    H146894   3.883   3.268  -0.067 -1.0893 -2.0979  0.5306
 8493TIP3    H246895   3.965   3.353   0.028 -3.1935  0.3609  0.2489
 8494TIP3   OH246896   5.813   0.370   0.134 -0.1049 -0.7569  0.7409
 8494TIP3    H146897   5.851   0.337   0.052  0.9991  1.4750  0.2792
 8494TIP3    H246898   5.880   0.354   0.200  0.5848  0.7291  0.4493
 8495TIP3   OH246899   2.601   4.474   2.802 -0.2308 -0.1414  0.6028
 8495TIP3    H146900   2.515   4.516   2.799  0.7580  2.1683  2.1568
 8495TIP3    H246901   2.645   4.506   2.723 -0.3545 -0.3451  0.4485
 8496TIP3   OH246902   1.770   1.447   3.640 -0.1126  0.2202 -0.1028
 8496TIP3    H146903   1.787   1.356   3.618  0.2940  0.4276 -0.7112
 8496TIP3    H246904   1.844   1.473   3.696 -0.4899  0.0396  0.4816
 8497TIP3   OH246905   2.658   6.429   5.084  0.4934 -0.3843  0.1158
 8497TIP3    H146906   2.685   6.516   5.054  1.2791 -0.9985 -1.0128
 8497TIP3    H246907   2.580   6.410   5.032 -0.6686  0.2955  1.5261
 8498TIP3   OH246908   4.023   3.402  14.196  0.1159 -0.0993  0.3191
 8498TIP3    H146909   4.094   3.393  14.260 -0.4080  0.4708  0.9960
 8498TIP3    H246910   3.957   3.457  14.240 -0.2237  0.3757 -0.7373
 8499TIP3   OH246911   5.919   5.667  14.974 -0.1477  0.1761  0.2078
 8499TIP3    H146912   5.904   5.762  14.973 -0.1458  0.1774  0.3781
 8499TIP3    H246913   6.003   5.657  15.019  0.0839  0.1278 -0.2208
 8500TIP3   OH246914   3.191   5.884   5.869  0.5418  0.3353 -0.1449
 8500TIP3    H146915   3.096   5.871   5.866  0.1880  1.1893  3.2879
 8500TIP3    H246916   3.227   5.796   5.876 -0.0190  0.0284 -0.9980
 8501TIP3   OH246917   1.109   4.169   0.552 -0.2821  0.1259 -0.1622
 8501TIP3    H146918   1.121   4.260   0.580 -1.3188  0.5935 -1.1554
 8501TIP3    H246919   1.025   4.169   0.506 -1.8344 -1.9419  2.3625
 8502TIP3   OH246920   0.421   4.403   5.395 -0.2322 -0.4076 -0.4285
 8502TIP3    H146921   0.497   4.416   5.451 -1.1601 -3.1852  1.7098
 8502TIP3    H246922   0.351   4.454   5.435 -0.0333  0.5531 -1.2558
 8503TIP3   OH246923   4.388   1.168  12.386  0.7042  0.1252 -0.7659
 8503TIP3    H146924   4.430   1.153  12.471  1.2603 -1.1590 -1.2439
 8503TIP3    H246925   4.294   1.153  12.403  0.7785  0.1452 -0.3180
 8504TIP3   OH246926   6.375   0.675  15.283 -0.5812  0.1034 -0.2335
 8504TIP3    H146927   6.351   0.589  15.249 -0.7952 -0.0754  0.3631
 8504TIP3    H246928   6.305   0.697  15.345 -0.7929  0.9279 -0.7509
 8505TIP3   OH246929   3.633   3.776   3.989  0.0070 -0.2627 -0.3476
 8505TIP3    H146930   3.642   3.699   3.933 -0.0615  1.2063 -2.5592
 8505TIP3    H246931   3.721   3.790   4.025  0.9528  0.4840 -2.6994
 8506TIP3   OH246932   4.408   3.492   0.418  0.0831 -0.3711 -0.0265
 8506TIP3    H146933   4.375   3.417   0.467  0.9893 -0.1197  1.0169
 8506TIP3    H246934   4.342   3.560   0.432  1.1346  0.2661  2.3962
 8507TIP3   OH246935   3.496   2.826  16.851 -0.6147  0.4413 -0.5668
 8507TIP3    H146936   3.428   2.795  16.910 -1.0797  0.1690 -1.2328
 8507TIP3    H246937   3.578   2.799  16.892 -0.8177  1.9113  0.9089
 8508TIP3   OH246938   6.539   0.249   4.781 -0.1797  0.1323 -0.0064
 8508TIP3    H146939   6.504   0.217   4.697 -0.0602  0.0962 -0.0425
 8508TIP3    H246940   6.466   0.297   4.820 -0.8245 -1.3041  0.6639
 8509TIP3   OH246941   1.507   4.785  11.779  0.0829 -0.2273 -0.5441
 8509TIP3    H146942   1.477   4.873  11.801  0.8771  0.6052 -2.4906
 8509TIP3    H246943   1.564   4.760  11.851  0.2429  1.0819 -0.1863
 8510TIP3   OH246944   6.423   2.897   6.498 -0.3183  0.1150 -0.7319
 8510TIP3    H146945   6.403   2.920   6.589 -1.1861 -2.4051 -0.2252
 8510TIP3    H246946   6.482   2.966   6.469  2.0040 -0.2876  2.5161
 8511TIP3   OH246947   4.205   4.990   6.741  0.2467  0.3540  0.0700
 8511TIP3    H146948   4.117   5.007   6.708  0.8749 -0.7106 -2.4234
 8511TIP3    H246949   4.256   5.066   6.713  0.8499 -0.6910 -1.9022
 8512TIP3   OH246950   4.320   4.434   2.036 -0.1153 -0.3725 -0.3458
 8512TIP3    H146951   4.317   4.490   1.958 -0.7741  0.3760  0.1974
 8512TIP3    H246952   4.237   4.387   2.035 -1.2397  1.4268  1.1480
 8513TIP3   OH246953   5.245   5.714   3.550  0.0450  0.3963 -0.0588
 8513TIP3    H146954   5.168   5.760   3.584  1.1459  3.6412 -1.4803
 8513TIP3    H246955   5.290   5.683   3.628 -1.6772  0.1586  0.8987
 8514TIP3   OH246956   2.308   2.237   6.460 -0.2342  0.2540  0.5441
 8514TIP3    H146957   2.376   2.179   6.425 -0.9701 -1.0067  1.1327
 8514TIP3    H246958   2.252   2.256   6.385  0.0370  0.2308  0.3346
 8515TIP3   OH246959   4.819   2.143   0.887 -0.4865 -0.1096  0.1928
 8515TIP3    H146960   4.773   2.110   0.964 -0.7924  0.1647  0.1284
 8515TIP3    H246961   4.891   2.081   0.874  0.6915  0.8263  1.7950
 8516TIP3   OH246962   3.825   0.583  14.628 -0.0262 -0.1660  0.0882
 8516TIP3    H146963   3.813   0.600  14.535 -0.3406  0.1640  0.1858
 8516TIP3    H246964   3.919   0.565  14.637  0.1044  0.3379 -0.2111
 8517TIP3   OH246965   6.350   6.677  13.505  0.2715 -0.5010  0.5651
 8517TIP3    H146966   6.397   6.725  13.438 -2.6053 -0.3466 -1.5288
 8517TIP3    H246967   6.272   6.730  13.524 -2.0938 -3.2658 -0.5095
 8518TIP3   OH246968   6.464   2.123   1.110 -0.2555  0.2909 -0.0313
 8518TIP3    H146969   6.455   2.098   1.018  1.9809  2.9139 -1.0936
 8518TIP3    H246970   6.385   2.174   1.129 -1.4763 -1.5512  0.0505
 8519TIP3   OH246971   5.161   5.036   0.487  0.4332 -0.5998  0.0911
 8519TIP3    H146972   5.093   4.970   0.471 -0.8465  0.8012 -0.4572
 8519TIP3    H246973   5.157   5.094   0.412  1.0698  0.5064  0.8861
 8520TIP3   OH246974   0.938   0.276   0.885  0.0803 -0.5328 -0.5657
 8520TIP3    H146975   0.849   0.267   0.850 -0.4492  1.2657  0.1637
 8520TIP3    H246976   0.948   0.370   0.899  1.7006 -0.8192  0.4296
 8521TIP3   OH246977   5.084   0.400   1.773  0.2591  0.3900 -0.6780
 8521TIP3    H146978   4.992   0.379   1.789 -0.0529  0.1753 -2.4618
 8521TIP3    H246979   5.084   0.493   1.752  0.5202  0.4952 -0.2069
 8522TIP3   OH246980   5.842   4.443   0.731 -0.5314  0.4117 -0.4322
 8522TIP3    H146981   5.922   4.486   0.700 -0.5449 -0.1024 -1.2106
 8522TIP3    H246982   5.870   4.358   0.763 -0.9236 -0.3331 -1.9846
 8523TIP3   OH246983   2.408   6.690  13.994 -0.2866  0.5725  0.1360
 8523TIP3    H146984   2.377   6.601  14.008  1.0030 -0.3157 -2.2097
 8523TIP3    H246985   2.366   6.741  14.063 -1.9307 -1.6369  0.8684
 8524TIP3   OH246986   0.575   4.203  11.708 -0.3649  0.1776  0.0478
 8524TIP3    H146987   0.517   4.218  11.783 -0.1245 -1.4021  0.6060
 8524TIP3    H246988   0.663   4.203  11.746 -0.3729 -5.7467  0.9807
 8525TIP3   OH246989   5.952   4.836  14.772  0.0212  0.0927 -0.0746
 8525TIP3    H146990   5.922   4.758  14.726  1.0031  0.2510 -1.0164
 8525TIP3    H246991   5.906   4.908  14.730  0.3325  0.1689 -0.2824
 8526TIP3   OH246992   0.734   5.560   3.486  0.4502  0.4753  0.6387
 8526TIP3    H146993   0.717   5.599   3.572  0.2322 -2.7043  2.1699
 8526TIP3    H246994   0.829   5.565   3.476  0.3141  3.3180 -0.3290
 8527TIP3   OH246995   1.451   2.688  10.792  0.0839 -0.0604  0.7453
 8527TIP3    H146996   1.479   2.615  10.847  1.3658  0.8433  1.3524
 8527TIP3    H246997   1.447   2.763  10.853  0.9583  0.8366 -0.2698
 8528TIP3   OH246998   1.487   5.239  13.686  0.0514 -0.1537 -0.0580
 8528TIP3    H146999   1.527   5.324  13.703 -2.9882  1.3682  0.0047
 8528TIP3    H247000   1.461   5.207  13.772  0.1407 -0.6236 -0.2010
 8529TIP3   OH247001   4.615   4.081  11.728  0.2826 -0.2296  0.6307
 8529TIP3    H147002   4.555   4.150  11.756 -0.1662  0.3513 -1.6080
 8529TIP3    H247003   4.593   4.006  11.784 -2.2834  0.0767  0.1329
 8530TIP3   OH247004   1.813   3.032  15.887  0.2299  0.4195 -0.1029
 8530TIP3    H147005   1.765   3.071  15.960 -0.0445  0.9196 -0.5466
 8530TIP3    H247006   1.892   3.086  15.878  1.7026 -1.2564  1.5829
 8531TIP3   OH247007   2.294   4.799  13.607 -0.0971 -0.4529  0.3298
 8531TIP3    H147008   2.247   4.742  13.668  1.9317 -0.4229  2.0365
 8531TIP3    H247009   2.340   4.739  13.548  1.4465 -0.6304  1.6596
 8532TIP3   OH247010   0.540   2.884  17.004  0.6421  0.1820 -0.4366
 8532TIP3    H147011   0.529   2.788  17.003 -0.7113  0.2591  1.1938
 8532TIP3    H247012   0.628   2.897  17.038  0.1435 -0.5382  1.2928
 8533TIP3   OH247013   3.426   3.303   2.233 -0.1120 -0.1713  0.0413
 8533TIP3    H147014   3.510   3.257   2.227 -0.6126 -1.1311  0.0599
 8533TIP3    H247015   3.387   3.270   2.314 -1.3578 -1.2798 -0.9590
 8534TIP3   OH247016   4.751   1.745   5.717 -0.3512  0.4386  0.2451
 8534TIP3    H147017   4.738   1.840   5.725 -2.1573  0.1385  1.3607
 8534TIP3    H247018   4.844   1.736   5.693 -0.0808  2.4670  0.3296
 8535TIP3   OH247019   0.273   1.787  14.153 -0.2794 -0.7645  0.0260
 8535TIP3    H147020   0.248   1.715  14.210 -1.0483 -2.4273 -2.2918
 8535TIP3    H247021   0.201   1.850  14.161 -1.6521 -2.1525 -0.9965
 8536TIP3   OH247022   1.875   5.477  15.651 -0.5598 -0.5760 -0.1313
 8536TIP3    H147023   1.916   5.462  15.736 -1.1240  0.7364  0.3999
 8536TIP3    H247024   1.948   5.491  15.591 -0.1439 -1.9294  0.0281
 8537TIP3   OH247025   2.470   2.229  17.381 -0.3114 -0.3125  0.1839
 8537TIP3    H147026   2.428   2.189  17.304 -1.6047  2.4431 -0.6738
 8537TIP3    H247027   2.398   2.244  17.442  0.1969  0.3366  0.6338
 8538TIP3   OH247028   0.809   4.165  12.135  0.8060  0.0642  0.3537
 8538TIP3    H147029   0.723   4.160  12.094  1.2404  0.1257 -0.5841
 8538TIP3    H247030   0.857   4.228  12.081  2.0834 -1.4337 -0.3230
 8539TIP3   OH247031   3.753   5.217  12.695  0.5530  0.4952 -0.0059
 8539TIP3    H147032   3.717   5.152  12.634  1.0803  1.4648 -1.3894
 8539TIP3    H247033   3.685   5.284  12.701  0.3005  0.1732  0.8748
 8540TIP3   OH247034   5.859   1.496  13.195 -0.2097 -0.0094 -0.6472
 8540TIP3    H147035   5.886   1.514  13.285 -3.1319  0.6911  0.2234
 8540TIP3    H247036   5.914   1.424  13.167 -0.2387 -1.3296  2.3185
 8541TIP3   OH247037   1.906   2.754  15.068  0.1222 -0.5090  0.5536
 8541TIP3    H147038   1.867   2.689  15.009  2.3233 -1.6336  0.2301
 8541TIP3    H247039   1.986   2.781  15.025 -1.1472  3.2636  0.2236
 8542TIP3   OH247040   4.202   0.748   3.230 -0.0148 -0.0320  0.1856
 8542TIP3    H147041   4.263   0.705   3.170  0.9563 -2.2859  2.6010
 8542TIP3    H247042   4.118   0.745   3.185  1.0660  0.5626 -2.0305
 8543TIP3   OH247043   2.490   0.304  13.921 -1.1017  0.5829 -0.3322
 8543TIP3    H147044   2.586   0.305  13.923 -1.0740  0.1381 -0.8835
 8543TIP3    H247045   2.469   0.219  13.882 -1.7347  0.4455  0.3072
 8544TIP3   OH247046   0.842   1.221   2.618  0.3564 -0.0888  0.1884
 8544TIP3    H147047   0.871   1.303   2.578  0.6640 -1.0925 -1.8266
 8544TIP3    H247048   0.752   1.237   2.645  0.0396  0.6045 -1.1998
 8545TIP3   OH247049   4.181   5.402  15.893 -0.5486 -0.3684  0.3790
 8545TIP3    H147050   4.123   5.446  15.830 -0.9215 -0.4715  0.6514
 8545TIP3    H247051   4.122   5.359  15.955 -0.2132  0.8861  1.6295
 8546TIP3   OH247052   6.286   5.256   2.196 -0.2891  0.2311  0.2602
 8546TIP3    H147053   6.358   5.258   2.258 -0.2391  0.0795  0.2099
 8546TIP3    H247054   6.295   5.336   2.144 -0.0277  0.1070  0.1106
 8547TIP3   OH247055   5.069   5.638  12.170 -0.2551 -0.0102  0.0445
 8547TIP3    H147056   5.050   5.681  12.087 -0.3362 -0.1165  0.0076
 8547TIP3    H247057   5.165   5.640  12.177 -0.2909  3.5060  1.7925
 8548TIP3   OH247058   2.285   6.313   3.749  0.4012 -0.3360 -0.4902
 8548TIP3    H147059   2.347   6.386   3.746 -1.2346  1.0757 -2.3750
 8548TIP3    H247060   2.251   6.314   3.838  0.1085  1.5127 -0.5932
 8549TIP3   OH247061   5.771   3.260  16.848  0.9566 -0.3306 -0.3342
 8549TIP3    H147062   5.804   3.298  16.929  0.6856  1.3145 -0.9474
 8549TIP3    H247063   5.833   3.191  16.827  0.7848 -1.1099  1.4926
 8550TIP3   OH247064   1.435   5.329  16.718  0.7124  0.4755  0.6313
 8550TIP3    H147065   1.492   5.262  16.681  0.2253 -1.0413  2.4319
 8550TIP3    H247066   1.395   5.372  16.643  2.0983 -0.3054 -0.6010
 8551TIP3   OH247067   2.896   6.602   0.738  0.4674  0.0805  0.5431
 8551TIP3    H147068   2.951   6.533   0.702 -0.1494  0.3236 -0.9424
 8551TIP3    H247069   2.934   6.684   0.706 -0.4863  0.2670 -0.1714
 8552TIP3   OH247070   6.018   5.375  15.954 -0.0167 -0.6144 -0.1219
 8552TIP3    H147071   6.090   5.314  15.941  1.3767  1.1264 -1.1884
 8552TIP3    H247072   6.057   5.461  15.935 -2.2420  0.4392 -0.1908
 8553TIP3   OH247073   2.981   6.478   5.394 -0.4536 -0.7010  0.2218
 8553TIP3    H147074   3.020   6.411   5.451  0.7730  0.3181  0.6367
 8553TIP3    H247075   2.928   6.531   5.452  1.1881  0.6397  0.5874
 8554TIP3   OH247076   1.662   1.696   4.097 -0.3102 -0.1012  0.1093
 8554TIP3    H147077   1.724   1.751   4.144  0.3492 -1.7901  1.3313
 8554TIP3    H247078   1.695   1.693   4.007  0.5244  0.2505  0.3964
 8555TIP3   OH247079   1.820   5.748   2.489  0.5519 -0.2187 -0.5488
 8555TIP3    H147080   1.730   5.756   2.518  0.9832  2.2471  0.3792
 8555TIP3    H247081   1.870   5.731   2.569  1.1931  1.6381 -0.4819
 8556TIP3   OH247082   2.176   4.054  14.161 -0.5073 -0.2586 -0.1265
 8556TIP3    H147083   2.208   4.140  14.190 -0.6838  0.2720 -1.4633
 8556TIP3    H247084   2.206   3.994  14.229  3.9133  0.0566 -1.5020
 8557TIP3   OH247085   1.437   1.882   3.607  0.0422 -0.0710  0.0568
 8557TIP3    H147086   1.424   1.850   3.697  0.7273 -1.4146 -0.2902
 8557TIP3    H247087   1.512   1.832   3.575 -0.0130  0.6031 -1.1715
 8558TIP3   OH247088   2.781   3.662   3.494  0.1365  0.1891 -0.0086
 8558TIP3    H147089   2.873   3.682   3.507 -0.3314  2.4888  0.1942
 8558TIP3    H247090   2.744   3.658   3.582  0.2631 -2.3662  0.0184
 8559TIP3   OH247091   5.192   1.046  13.551 -0.3432 -0.3494 -0.1144
 8559TIP3    H147092   5.138   0.986  13.501 -0.1907 -0.1562 -0.5105
 8559TIP3    H247093   5.187   1.129  13.504  1.0402 -0.5561 -0.6894
 8560TIP3   OH247094   3.639   6.287  16.990  0.0022 -0.5435  0.4741
 8560TIP3    H147095   3.562   6.231  16.975 -1.7044  1.5541  0.8415
 8560TIP3    H247096   3.608   6.354  17.051  2.0949  0.4874  0.4849
 8561TIP3   OH247097   1.811   1.405   2.774 -0.1375  0.0897 -0.0208
 8561TIP3    H147098   1.826   1.431   2.865  0.1036 -0.8860  0.2214
 8561TIP3    H247099   1.893   1.427   2.729 -0.5345  1.3134 -0.1869
 8562TIP3   OH247100   4.867   5.776   5.196  0.0114 -0.0529 -0.7589
 8562TIP3    H147101   4.945   5.743   5.152  0.7077  0.6883 -0.1098
 8562TIP3    H247102   4.900   5.819   5.275 -1.2390 -1.8576  0.8326
 8563TIP3   OH247103   2.668   3.995   5.942 -0.3241  0.2289  0.3587
 8563TIP3    H147104   2.702   4.065   5.887  0.2837 -0.6899 -0.4823
 8563TIP3    H247105   2.578   4.021   5.963  0.2983  1.8519  1.1323
 8564TIP3   OH247106   6.419   0.194  15.817 -0.4035  0.0031  0.1110
 8564TIP3    H147107   6.432   0.173  15.910 -1.8737 -0.7868  0.1662
 8564TIP3    H247108   6.429   0.290  15.813  0.6122 -0.0474  0.8917
 8565TIP3   OH247109   3.176   1.547   3.157 -0.4630  0.2531  0.1958
 8565TIP3    H147110   3.217   1.591   3.082 -0.6701  0.1927  0.0469
 8565TIP3    H247111   3.191   1.453   3.141 -0.4844  0.2415  0.2423
 8566TIP3   OH247112   5.710   1.618  13.656 -0.9603  0.1569  0.5181
 8566TIP3    H147113   5.722   1.581  13.744 -0.1997 -0.3516  0.2181
 8566TIP3    H247114   5.616   1.631  13.647 -0.8693  3.2260  2.5931
 8567TIP3   OH247115   5.482   3.176   1.415 -0.2070 -0.3636 -0.6525
 8567TIP3    H147116   5.513   3.222   1.493  0.7404 -0.9810 -0.6509
 8567TIP3    H247117   5.398   3.217   1.395  0.7329  1.5672 -0.8333
 8568TIP3   OH247118   4.052   6.414  16.018  0.1516  0.0404 -0.4080
 8568TIP3    H147119   4.117   6.462  16.069 -1.0414  2.3658 -0.9428
 8568TIP3    H247120   4.001   6.365  16.083  0.3844  0.7933  0.3580
 8569TIP3   OH247121   0.593   0.781  14.376 -0.1283 -0.4279  0.6948
 8569TIP3    H147122   0.647   0.833  14.316 -1.3269  0.5263  0.4105
 8569TIP3    H247123   0.561   0.844  14.440 -1.0597 -0.9440  0.7470
 8570TIP3   OH247124   2.339   2.467   6.594 -0.4023  0.5236 -0.8253
 8570TIP3    H147125   2.427   2.490   6.567  0.5960 -0.9127  0.9979
 8570TIP3    H247126   2.327   2.376   6.564 -1.2029  0.6471 -0.9152
 8571TIP3   OH247127   5.638   4.033   1.580  0.4022 -0.0652 -0.8434
 8571TIP3    H147128   5.626   4.034   1.485 -0.6676 -0.0493 -0.7215
 8571TIP3    H247129   5.628   3.941   1.604  0.8410 -0.0932 -0.7589
 8572TIP3   OH247130   4.465   6.256   2.564  0.0332 -0.5092 -0.5400
 8572TIP3    H147131   4.374   6.236   2.586 -0.3585  0.6129 -1.0471
 8572TIP3    H247132   4.512   6.174   2.577 -0.4967 -0.4429  2.5787
 8573TIP3   OH247133   6.545   5.813  14.347 -0.4908 -0.0364  0.0005
 8573TIP3    H147134   6.596   5.886  14.381  4.1459 -3.6247  1.7158
 8573TIP3    H247135   6.478   5.797  14.413  0.2006  0.9599  0.9741
 8574TIP3   OH247136   0.311   4.964   5.954 -0.1150 -0.0726 -0.2174
 8574TIP3    H147137   0.304   4.933   5.863 -1.8372 -0.6733  0.0833
 8574TIP3    H247138   0.360   4.895   5.999 -0.0128 -0.1819 -0.4925
 8575TIP3   OH247139   1.948   4.875  11.319  0.0330 -0.5436 -0.3415
 8575TIP3    H147140   2.029   4.824  11.323 -1.1493 -2.6767 -1.3665
 8575TIP3    H247141   1.879   4.812  11.342 -1.3278  1.2899  0.8667
 8576TIP3   OH247142   3.080   4.768  16.394  0.7261 -0.4978  0.2492
 8576TIP3    H147143   3.174   4.751  16.387  0.6028 -1.0184 -0.1478
 8576TIP3    H247144   3.057   4.741  16.483  1.2038  0.8855  0.8200
 8577TIP3   OH247145   2.432   6.099   2.616  0.3867  0.0233  0.0093
 8577TIP3    H147146   2.366   6.168   2.613 -0.4033 -0.6766  0.8267
 8577TIP3    H247147   2.506   6.138   2.662  0.2175  0.5482 -0.1606
 8578TIP3   OH247148   2.569   4.379   2.100  0.3861  0.0545  0.0131
 8578TIP3    H147149   2.522   4.453   2.062 -0.3221  0.0806  0.9165
 8578TIP3    H247150   2.644   4.365   2.041  1.8278  2.8852  0.9892
 8579TIP3   OH247151   1.670   3.520   3.952 -0.1902  0.1776 -0.2082
 8579TIP3    H147152   1.624   3.473   3.883  0.9129 -1.6937  0.2493
 8579TIP3    H247153   1.612   3.515   4.028  1.3324 -3.9320  0.9778
 8580TIP3   OH247154   6.692   4.777  14.502 -0.4008 -0.0042  0.4414
 8580TIP3    H147155   6.749   4.747  14.573 -0.2868 -0.2494  0.2494
 8580TIP3    H247156   6.604   4.776  14.540 -0.3942 -0.5568  0.4499
 8581TIP3   OH247157   0.190   2.804   3.708 -0.4588 -0.3984 -0.0682
 8581TIP3    H147158   0.159   2.802   3.617  0.5637 -1.7584 -0.4146
 8581TIP3    H247159   0.157   2.723   3.746  0.1340 -0.4158  0.4217
 8582TIP3   OH247160   2.370   1.560  13.197 -0.2904 -0.0819  0.2004
 8582TIP3    H147161   2.429   1.509  13.142 -1.8729 -2.4748  0.5273
 8582TIP3    H247162   2.312   1.604  13.136 -0.4255 -0.6633 -0.0980
 8583TIP3   OH247163   2.310   1.910   6.062  1.2226  0.1208 -1.1016
 8583TIP3    H147164   2.356   1.979   6.016 -0.1801  1.5115 -0.4966
 8583TIP3    H247165   2.319   1.933   6.155  0.5712 -0.4021 -0.9018
 8584TIP3   OH247166   3.248   4.808   6.082  0.0188 -0.2094  0.1471
 8584TIP3    H147167   3.217   4.851   6.162  1.3229 -1.0193  1.1365
 8584TIP3    H247168   3.208   4.721   6.085  2.0391 -1.1582  1.2867
 8585TIP3   OH247169   5.756   5.284   1.444  0.6870 -0.1430  0.2851
 8585TIP3    H147170   5.738   5.241   1.527  0.3458 -0.6161 -0.0252
 8585TIP3    H247171   5.669   5.295   1.403  0.9134 -0.5959 -0.3348
 8586TIP3   OH247172   1.147   0.957   3.463 -0.5885 -0.4195  0.0007
 8586TIP3    H147173   1.135   1.052   3.459  0.2043 -0.3157 -0.1056
 8586TIP3    H247174   1.074   0.922   3.412 -0.1510  0.2010 -1.1059
 8587TIP3   OH247175   4.213   4.135  13.716  0.5124 -0.2211 -0.0935
 8587TIP3    H147176   4.165   4.111  13.796 -0.7835  1.3322 -0.3403
 8587TIP3    H247177   4.190   4.227  13.702  0.8166 -0.4178 -2.1865
 8588TIP3   OH247178   4.425   2.932  14.193  0.2745  0.0904 -0.1336
 8588TIP3    H147179   4.344   2.960  14.236  0.3162  0.4931 -0.3189
 8588TIP3    H247180   4.493   2.941  14.260  0.1956 -0.0904 -0.0279
 8589TIP3   OH247181   2.291   5.432  14.835  0.5242  0.1300 -0.1733
 8589TIP3    H147182   2.251   5.503  14.785  1.4649 -0.1622 -1.3937
 8589TIP3    H247183   2.217   5.381  14.869 -0.1980  2.2265  1.6016
 8590TIP3   OH247184   0.021   2.397   0.398 -0.4941 -0.3765  0.3693
 8590TIP3    H147185  -0.002   2.377   0.307  0.8532 -1.0325  0.1433
 8590TIP3    H247186   0.112   2.369   0.406 -0.7253 -0.7367  2.0565
 8591TIP3   OH247187   0.046   4.196  17.258  0.0018 -0.3845 -0.5840
 8591TIP3    H147188  -0.014   4.256  17.213  0.6221 -0.0404 -0.9746
 8591TIP3    H247189   0.007   4.110  17.247 -0.6365 -0.1176 -0.4685
 8592TIP3   OH247190   3.674   5.351   4.011 -0.4111 -0.4519 -0.2589
 8592TIP3    H147191   3.757   5.382   3.976 -0.4042  0.8248  0.8289
 8592TIP3    H247192   3.698   5.293   4.083 -0.4304  1.0222  0.9798
 8593TIP3   OH247193   2.699   4.532   1.836  0.3547  0.3537 -0.1032
 8593TIP3    H147194   2.788   4.567   1.837  0.6554 -0.3963  0.4510
 8593TIP3    H247195   2.649   4.595   1.785  0.8100  1.7615  1.1249
 8594TIP3   OH247196   5.624   6.557   1.645  0.3372  0.1028 -0.2919
 8594TIP3    H147197   5.622   6.643   1.602  3.2492 -0.2654 -1.3744
 8594TIP3    H247198   5.627   6.578   1.739 -0.1266  1.1500 -0.4953
 8595TIP3   OH247199   4.534   6.609  13.191 -0.3077  0.0744  0.1789
 8595TIP3    H147200   4.489   6.557  13.125  1.3450 -0.0795 -0.8985
 8595TIP3    H247201   4.507   6.571  13.275 -1.9740 -0.1224 -0.4155
 8596TIP3   OH247202   5.996   3.159  11.474 -0.8317 -0.2622 -0.3773
 8596TIP3    H147203   6.068   3.214  11.442  1.8211 -2.4302  1.3801
 8596TIP3    H247204   5.992   3.086  11.412 -1.4352 -0.2261 -0.3830
 8597TIP3   OH247205   2.873   0.943  12.569 -0.1533  0.0729  0.4989
 8597TIP3    H147206   2.827   0.980  12.644 -1.3521 -0.6830  0.1846
 8597TIP3    H247207   2.912   0.862  12.602 -0.5133 -0.1567  0.3817
 8598TIP3   OH247208   1.561   5.912  13.920  0.7095 -0.1062 -0.4813
 8598TIP3    H147209   1.597   5.984  13.971 -1.0349 -0.3387  1.1751
 8598TIP3    H247210   1.636   5.855  13.904  1.7271  1.0778 -0.0988
 8599TIP3   OH247211   2.490   4.441   3.259 -0.1692  0.1763 -0.6689
 8599TIP3    H147212   2.431   4.475   3.327 -1.6641 -0.7139 -1.4694
 8599TIP3    H247213   2.474   4.497   3.183  3.1519  2.6578  0.2283
 8600TIP3   OH247214   0.750   6.421   0.568 -0.0988  0.0331  0.1630
 8600TIP3    H147215   0.685   6.428   0.638  1.0658  0.9374  1.2121
 8600TIP3    H247216   0.744   6.505   0.522 -1.8080 -1.0574 -1.7666
 8601TIP3   OH247217   4.562   1.713  13.043  0.5949 -0.0209 -0.7454
 8601TIP3    H147218   4.556   1.806  13.023  1.1880  0.1998  0.0596
 8601TIP3    H247219   4.655   1.693  13.040  0.6847 -0.0888  1.1866
 8602TIP3   OH247220   4.749   1.071  12.278 -0.0540  0.3321 -0.4002
 8602TIP3    H147221   4.746   0.991  12.331 -0.9728  0.8623  0.3718
 8602TIP3    H247222   4.791   1.043  12.196  0.4605 -0.7356  0.1905
 8603TIP3   OH247223   6.082   1.751  12.654  0.3433 -0.1971 -0.9983
 8603TIP3    H147224   6.129   1.832  12.677  0.0737 -0.3744  0.2737
 8603TIP3    H247225   6.134   1.682  12.695  0.5165 -0.6715 -1.9948
 8604TIP3   OH247226   1.212   0.234  15.173 -0.0099 -0.1511 -0.1287
 8604TIP3    H147227   1.226   0.329  15.179 -0.8723 -0.0281  0.0719
 8604TIP3    H247228   1.270   0.205  15.102  1.2405  0.3130  0.6663
 8605TIP3   OH247229   1.240   1.403   1.394  0.2405 -0.1140 -0.4413
 8605TIP3    H147230   1.186   1.482   1.403  1.2272  0.5586 -0.2147
 8605TIP3    H247231   1.177   1.331   1.388 -0.6828  0.7081 -0.8525
 8606TIP3   OH247232   5.891   0.003   2.169 -0.2910 -0.1258  0.6158
 8606TIP3    H147233   5.917   0.090   2.138  1.1077 -0.1944  1.4941
 8606TIP3    H247234   5.801   0.013   2.198 -0.9194  0.4614 -1.3931
 8607TIP3   OH247235   1.417   2.693  16.763 -0.5742  0.3755 -0.5434
 8607TIP3    H147236   1.502   2.683  16.722  0.7846  2.5865  1.4798
 8607TIP3    H247237   1.414   2.626  16.831  0.2245  1.2269  0.3534
 8608TIP3   OH247238   4.713   4.686  16.437 -0.0563 -0.2350  0.7271
 8608TIP3    H147239   4.788   4.730  16.477  0.6394 -1.9579  1.3940
 8608TIP3    H247240   4.669   4.642  16.510 -1.2157  0.0076  0.2012
 8609TIP3   OH247241   4.562   0.593  14.238 -0.2621 -0.3574 -0.2091
 8609TIP3    H147242   4.472   0.576  14.211 -0.1624  0.2840 -0.9842
 8609TIP3    H247243   4.613   0.586  14.158  0.2949 -0.1264  0.1155
 8610TIP3   OH247244   0.257   5.864  13.577  0.1389 -0.4906 -0.2111
 8610TIP3    H147245   0.291   5.779  13.607  1.1595 -0.8764 -2.2639
 8610TIP3    H247246   0.334   5.909  13.542 -1.0577 -0.5661 -3.2145
 8611TIP3   OH247247   2.858   6.315  17.325  0.3079 -0.5729 -0.2363
 8611TIP3    H147248   2.872   6.369  17.248  1.0394 -1.4208 -0.7194
 8611TIP3    H247249   2.764   6.323  17.344  0.6437  2.0800  0.6624
 8612TIP3   OH247250   3.158   5.591   3.336  0.2058  0.1827 -0.1341
 8612TIP3    H147251   3.085   5.652   3.323  0.2859  0.4747  0.7332
 8612TIP3    H247252   3.128   5.533   3.406  0.0938 -0.8545 -1.0105
 8613TIP3   OH247253   4.268   2.139   3.788 -0.4916 -0.2156 -0.2330
 8613TIP3    H147254   4.205   2.104   3.725 -2.1284 -0.3700  1.3957
 8613TIP3    H247255   4.244   2.099   3.871  1.9737 -0.4810  0.4249
 8614TIP3   OH247256   5.694   4.944  13.060 -0.1283 -0.3015 -0.2668
 8614TIP3    H147257   5.661   4.866  13.106 -0.9433  0.1670 -0.0574
 8614TIP3    H247258   5.653   5.018  13.104 -1.3253  0.1577 -2.0565
 8615TIP3   OH247259   6.205   0.806  14.073  0.1220 -0.3232  0.5706
 8615TIP3    H147260   6.272   0.867  14.043 -0.1496 -0.4440 -0.2909
 8615TIP3    H247261   6.222   0.797  14.167  1.6313 -0.7365  0.2884
 8616TIP3   OH247262   0.367   3.545   0.944 -0.1601  0.3663 -0.7974
 8616TIP3    H147263   0.295   3.489   0.914 -0.7386  1.4349 -1.4839
 8616TIP3    H247264   0.432   3.484   0.980 -0.5228 -0.7754 -2.0000
 8617TIP3   OH247265   2.306   6.672   3.977 -0.1467 -0.0437 -1.0046
 8617TIP3    H147266   2.262   6.595   4.013 -0.1725  0.4234 -0.0325
 8617TIP3    H247267   2.253   6.695   3.900 -0.1367 -0.9848 -1.3144
 8618TIP3   OH247268   4.692   3.828   5.446 -0.3182 -0.1343 -0.7751
 8618TIP3    H147269   4.619   3.878   5.409 -0.4565 -0.3208 -0.7549
 8618TIP3    H247270   4.651   3.770   5.510  0.1210  1.6860  1.3040
 8619TIP3   OH247271   2.023   5.151  14.567 -0.4355 -0.2031 -0.0633
 8619TIP3    H147272   2.089   5.162  14.499 -1.5920 -1.7254 -1.5045
 8619TIP3    H247273   2.063   5.091  14.630 -0.0124 -0.1740 -0.3007
 8620TIP3   OH247274   2.464   2.831  17.014 -0.0498  0.5161  0.3116
 8620TIP3    H147275   2.452   2.759  16.951  1.2293 -1.1706  1.8867
 8620TIP3    H247276   2.505   2.901  16.963 -2.6841  0.7898 -1.6221
 8621TIP3   OH247277   5.841   6.555   0.951  0.4130 -0.2985 -0.0592
 8621TIP3    H147278   5.903   6.509   0.894  0.2430 -0.9010  0.2390
 8621TIP3    H247279   5.826   6.495   1.024 -1.8433 -0.9000 -0.9491
 8622TIP3   OH247280   1.213   0.155  13.201  0.4186 -0.8104  0.5236
 8622TIP3    H147281   1.251   0.074  13.168 -1.9616 -2.0510  0.6516
 8622TIP3    H247282   1.199   0.139  13.294  0.1277 -0.1668  0.5950
 8623TIP3   OH247283   5.046   1.101   1.607 -0.0351 -0.0378 -0.0990
 8623TIP3    H147284   5.053   1.191   1.575 -1.8465  0.1404 -0.0639
 8623TIP3    H247285   5.033   1.049   1.528 -2.5236  0.1810  0.0801
 8624TIP3   OH247286   5.673   2.000  11.641 -0.0224 -0.0510  0.1600
 8624TIP3    H147287   5.670   1.917  11.687 -1.2384  0.0575  0.3073
 8624TIP3    H247288   5.609   1.991  11.570 -0.9905  1.1176  0.8403
 8625TIP3   OH247289   6.291   6.687   4.908 -0.3252  0.5643 -0.2625
 8625TIP3    H147290   6.237   6.766   4.906 -0.5966  0.3648 -1.2857
 8625TIP3    H247291   6.246   6.626   4.849  0.4008 -0.0146 -0.2262
 8626TIP3   OH247292   5.892   6.627   4.109  0.5485  0.3401 -0.4243
 8626TIP3    H147293   5.913   6.545   4.065 -2.1657 -0.3934 -0.5617
 8626TIP3    H247294   5.968   6.683   4.093  2.7402 -2.2569  0.1228
 8627TIP3   OH247295   1.088   6.242  16.584  0.0716  0.4518  0.6679
 8627TIP3    H147296   1.016   6.181  16.570  1.4957 -1.0748 -0.4159
 8627TIP3    H247297   1.162   6.186  16.608  2.4011  1.1902 -3.7163
 8628TIP3   OH247298   4.949   0.449   1.013  0.0174  0.0457 -0.2250
 8628TIP3    H147299   4.991   0.535   1.020 -1.1520  0.5142  1.8081
 8628TIP3    H247300   4.886   0.459   0.942 -0.1103  0.8701 -0.0038
 8629TIP3   OH247301   0.263   3.953   0.258  0.6025  0.1723  0.6856
 8629TIP3    H147302   0.184   3.909   0.226  1.6215 -0.3991 -1.1891
 8629TIP3    H247303   0.335   3.905   0.216  1.8263  2.7354 -0.3076
 8630TIP3   OH247304   4.743   1.575  16.734 -0.2313  0.4185 -0.2853
 8630TIP3    H147305   4.829   1.618  16.741 -0.1260  0.0564  0.9605
 8630TIP3    H247306   4.764   1.481  16.730 -0.5811  0.1199  2.5699
 8631TIP3   OH247307   2.517   4.468   4.800 -0.2983 -0.7038 -0.1962
 8631TIP3    H147308   2.439   4.514   4.767  0.7626  1.1963 -0.1521
 8631TIP3    H247309   2.579   4.471   4.727  0.8787  0.6591  0.8045
 8632TIP3   OH247310   4.747   3.400  13.484  0.1054 -0.0260  0.1987
 8632TIP3    H147311   4.694   3.475  13.457 -1.0143 -0.9576 -0.2800
 8632TIP3    H247312   4.821   3.439  13.530 -0.9116  1.3402  0.7662
 8633TIP3   OH247313   5.596   4.134   2.079  0.4944  0.4420 -0.1375
 8633TIP3    H147314   5.686   4.141   2.111  0.8545  1.9374 -1.3204
 8633TIP3    H247315   5.589   4.045   2.045  0.2478 -1.0406  3.4198
 8634TIP3   OH247316   5.836   5.725  14.724  0.6417  0.3071 -0.8305
 8634TIP3    H147317   5.862   5.658  14.661  0.6864 -0.1877 -0.2983
 8634TIP3    H247318   5.858   5.687  14.809 -0.0117  0.7004 -0.4799
 8635TIP3   OH247319   0.073   1.607  11.628  0.4603  0.1531 -0.0029
 8635TIP3    H147320   0.010   1.605  11.556  0.2179 -0.3532  0.2201
 8635TIP3    H247321   0.121   1.689  11.615  0.1073  0.2923 -0.4711
 8636TIP3   OH247322   1.596   2.520  14.337 -0.1618  0.4487  0.3057
 8636TIP3    H147323   1.617   2.608  14.306  1.8151 -0.6992 -1.9952
 8636TIP3    H247324   1.652   2.507  14.414 -0.5027  1.2130  0.6869
 8637TIP3   OH247325   2.011   5.849   4.029 -0.3602 -0.3759  0.2248
 8637TIP3    H147326   1.928   5.889   4.004 -1.2360 -1.7070  0.8751
 8637TIP3    H247327   2.064   5.921   4.063 -0.6641  0.7626 -1.5401
 8638TIP3   OH247328   1.944   0.995  10.648  0.1848  0.0631  1.0881
 8638TIP3    H147329   1.882   1.062  10.676 -0.5447 -0.3624  0.5374
 8638TIP3    H247330   2.030   1.027  10.676 -0.4475 -0.2043  3.5304
 8639TIP3   OH247331   2.428   5.596  16.518 -0.1438 -0.2576  0.4431
 8639TIP3    H147332   2.518   5.623  16.540  0.4686 -0.0465 -2.0012
 8639TIP3    H247333   2.376   5.675  16.533  0.3164  0.0401  0.5288
 8640TIP3   OH247334   5.552   3.910   2.626  0.2840  0.7962 -0.1483
 8640TIP3    H147335   5.515   3.911   2.714  2.3011  0.8100  0.7630
 8640TIP3    H247336   5.501   3.975   2.578 -2.5820 -1.0509  0.1906
 8641TIP3   OH247337   0.396   5.631  12.172 -0.2928 -1.0163 -0.2440
 8641TIP3    H147338   0.302   5.621  12.156 -0.4617  0.6346 -0.4173
 8641TIP3    H247339   0.433   5.545  12.152 -1.6683 -1.4709 -0.9328
 8642TIP3   OH247340   5.114   6.105   3.644  0.1433  0.3584  0.2152
 8642TIP3    H147341   5.023   6.082   3.622  0.8136 -0.6751 -1.7279
 8642TIP3    H247342   5.137   6.046   3.715 -0.4272  0.0094  0.1215
 8643TIP3   OH247343   4.147   3.236  12.054  0.2876  0.4595  0.1922
 8643TIP3    H147344   4.231   3.191  12.055 -0.1046 -0.3269 -0.7898
 8643TIP3    H247345   4.108   3.212  11.970 -0.5061  1.5839  0.2223
 8644TIP3   OH247346   5.270   5.830   4.692 -0.1674 -0.4779  0.1201
 8644TIP3    H147347   5.183   5.819   4.729 -0.9631 -0.7830 -1.6954
 8644TIP3    H247348   5.302   5.913   4.727 -1.4479 -0.0642  0.3226
 8645TIP3   OH247349   1.215   0.899   0.441 -0.5127 -0.0900 -0.2294
 8645TIP3    H147350   1.178   0.831   0.386 -1.6059 -0.3359  0.7878
 8645TIP3    H247351   1.303   0.913   0.406 -1.2776  0.0067 -2.2492
 8646TIP3   OH247352   3.812   0.266   4.712  0.4094 -0.0386 -0.9315
 8646TIP3    H147353   3.735   0.320   4.729  0.6024  0.3528 -1.2843
 8646TIP3    H247354   3.876   0.326   4.673  1.3313 -0.1003  0.4306
 8647TIP3   OH247355   6.290   0.942  16.901 -0.3074 -0.2032 -0.0879
 8647TIP3    H147356   6.325   1.031  16.907 -0.5441 -0.1169  0.0271
 8647TIP3    H247357   6.195   0.953  16.900 -0.3779 -0.2313 -3.4036
 8648TIP3   OH247358   1.663   0.115  13.429  0.1892  0.0792 -0.1128
 8648TIP3    H147359   1.648   0.201  13.389  1.4519  1.0383  1.3529
 8648TIP3    H247360   1.739   0.128  13.486  1.4605 -2.4308 -1.0716
 8649TIP3   OH247361   3.386   5.458   0.760 -0.3155  0.1569  0.1420
 8649TIP3    H147362   3.324   5.410   0.707 -0.7791  1.0853 -0.1859
 8649TIP3    H247363   3.405   5.401   0.834 -1.2947 -0.2756  0.0643
 8650TIP3   OH247364   0.963   5.297  16.343 -0.5018  0.5275  0.0541
 8650TIP3    H147365   0.995   5.207  16.357  0.4678  0.3425 -2.7993
 8650TIP3    H247366   1.016   5.351  16.402  0.1210 -0.5701  0.5293
 8651TIP3   OH247367   2.300   5.527  12.565  0.1263 -0.1623  0.2681
 8651TIP3    H147368   2.251   5.445  12.567 -0.1086 -0.0226  0.2019
 8651TIP3    H247369   2.364   5.515  12.495  0.0206 -0.2452  0.1862
 8652TIP3   OH247370   6.668   0.289  13.964 -0.3336  0.2767 -0.1226
 8652TIP3    H147371   6.660   0.199  13.996  2.3292 -0.0791 -0.2815
 8652TIP3    H247372   6.743   0.287  13.905  1.6559  3.1372  2.0347
 8653TIP3   OH247373   3.001   4.203   2.039 -0.2522 -0.3776  1.1760
 8653TIP3    H147374   2.985   4.174   1.949  0.7548 -0.1676  0.9216
 8653TIP3    H247375   2.942   4.149   2.092 -1.7558  0.3393  0.2963
 8654TIP3   OH247376   6.445   3.028  15.073 -0.2971  0.3631 -0.3173
 8654TIP3    H147377   6.403   3.045  14.989  0.9066 -1.0948 -1.2791
 8654TIP3    H247378   6.429   2.935  15.090 -0.3432  0.5804  0.9885
 8655TIP3   OH247379   1.683   4.548  13.638 -0.3200  0.1814 -0.2472
 8655TIP3    H147380   1.743   4.569  13.566 -1.0918  0.7539 -0.7444
 8655TIP3    H247381   1.661   4.634  13.676  0.6420 -0.1668  1.1495
 8656TIP3   OH247382   3.692   4.575  12.028  1.0088  0.2746  0.7155
 8656TIP3    H147383   3.704   4.492  11.982 -0.8607  0.5453 -0.3859
 8656TIP3    H247384   3.777   4.618  12.023  1.9378 -1.4206  1.0601
 8657TIP3   OH247385   1.953   3.176   5.353 -0.7536 -0.0753 -0.9660
 8657TIP3    H147386   1.963   3.243   5.285  0.0161  1.3886  0.5106
 8657TIP3    H247387   1.989   3.217   5.432 -2.5510 -1.3153  0.5744
 8658TIP3   OH247388   6.310   3.253   2.062  0.0542  0.2703 -0.1682
 8658TIP3    H147389   6.365   3.178   2.039 -0.3539  0.3278 -1.4518
 8658TIP3    H247390   6.355   3.295   2.135  3.4120  2.0345 -2.9577
 8659TIP3   OH247391   1.670   2.556  16.371  0.1933 -0.0267  0.2047
 8659TIP3    H147392   1.649   2.472  16.411 -0.9450  0.7349  1.2952
 8659TIP3    H247393   1.602   2.570  16.306 -0.0030  0.3327  0.4795
 8660TIP3   OH247394   4.818   5.824   6.037 -0.4459 -0.7392 -0.1986
 8660TIP3    H147395   4.755   5.819   5.965 -0.8676  2.0553 -0.1326
 8660TIP3    H247396   4.763   5.829   6.116 -0.2957  2.3307 -0.1824
 8661TIP3   OH247397   5.091   3.928  14.395  0.4887 -0.2159 -0.2438
 8661TIP3    H147398   5.028   3.932  14.323  1.0858 -0.5841 -0.8017
 8661TIP3    H247399   5.164   3.982  14.366 -0.5280  2.2605  1.4363
 8662TIP3   OH247400   2.309   5.875   4.400  0.0790 -0.2636 -0.0207
 8662TIP3    H147401   2.289   5.802   4.341  0.7618 -0.5630  0.1132
 8662TIP3    H247402   2.229   5.927   4.401 -0.6467 -1.3521  0.3851
 8663TIP3   OH247403   1.998   3.651   2.874 -0.2987  0.4888 -0.4336
 8663TIP3    H147404   1.910   3.661   2.837 -0.1958  0.1553 -0.7769
 8663TIP3    H247405   2.055   3.698   2.814 -0.2452  0.7210 -0.2003
 8664TIP3   OH247406   4.822   1.421   5.580  0.2231 -0.1868  0.2376
 8664TIP3    H147407   4.736   1.385   5.603  1.0626 -2.1042  0.5872
 8664TIP3    H247408   4.810   1.457   5.492 -0.8228 -0.9140  0.0664
 8665TIP3   OH247409   5.329   0.244  17.554  0.2384  0.1395 -0.1187
 8665TIP3    H147410   5.368   0.271  17.637  2.3342 -1.1461 -0.5903
 8665TIP3    H247411   5.283   0.321  17.522  0.6912  1.1253  1.4953
 8666TIP3   OH247412   4.289   5.039   4.000 -0.0079  0.6628 -0.1267
 8666TIP3    H147413   4.286   5.089   4.081  0.2112 -1.3691  1.2162
 8666TIP3    H247414   4.255   4.952   4.024 -0.8451  0.2605 -2.4335
 8667TIP3   OH247415   2.119   5.874  13.524  0.8332  0.4983 -0.4613
 8667TIP3    H147416   2.112   5.951  13.581 -0.2707  0.6046 -0.7116
 8667TIP3    H247417   2.212   5.870  13.501  1.3526  0.3338  1.4761
 8668TIP3   OH247418   2.384   2.888  14.422  0.9067  0.1623  0.0548
 8668TIP3    H147419   2.370   2.966  14.476  0.4362  0.0624  0.0798
 8668TIP3    H247420   2.366   2.917  14.332 -0.9050 -0.3120  0.2305
 8669TIP3   OH247421   0.154   2.430  12.607 -0.4175 -0.2533  0.2321
 8669TIP3    H147422   0.224   2.493  12.623 -0.3168 -0.6246  1.3257
 8669TIP3    H247423   0.199   2.345  12.602 -0.6953 -0.3958  0.1097
 8670TIP3   OH247424   2.717   3.461   2.648  0.4543 -0.0393 -0.0974
 8670TIP3    H147425   2.810   3.468   2.668  0.2955 -0.2190  0.7820
 8670TIP3    H247426   2.679   3.540   2.687  0.0911 -0.5435  0.5996
 8671TIP3   OH247427   3.558   5.305  14.341 -0.3188  0.2041 -0.8610
 8671TIP3    H147428   3.570   5.286  14.248  1.3614 -0.9234 -0.4502
 8671TIP3    H247429   3.510   5.230  14.375 -0.0542  0.1400 -0.6268
 8672TIP3   OH247430   5.007   2.312  17.356 -0.6855 -1.4219 -0.0050
 8672TIP3    H147431   5.091   2.271  17.375 -0.6493 -1.2280  0.2382
 8672TIP3    H247432   5.018   2.404  17.379 -0.6160 -1.1659 -1.0112
 8673TIP3   OH247433   4.658   6.434   2.529 -0.1121  0.1981 -0.1161
 8673TIP3    H147434   4.595   6.507   2.526  0.0822  0.4693  1.3173
 8673TIP3    H247435   4.605   6.357   2.550 -0.0559  0.3286  0.5352
 8674TIP3   OH247436   1.477   0.739   2.462 -0.3518 -0.1599  0.4788
 8674TIP3    H147437   1.538   0.801   2.422 -0.3700  0.3563  1.2165
 8674TIP3    H247438   1.493   0.656   2.418  1.5477 -0.2778  1.2924
 8675TIP3   OH247439   4.718   0.975   1.309 -0.0818 -0.4594  0.5103
 8675TIP3    H147440   4.723   1.007   1.399  0.4994 -0.8323  0.6129
 8675TIP3    H247441   4.794   0.918   1.299 -0.0925 -0.3548 -0.2451
 8676TIP3   OH247442   1.651   4.759  17.244 -0.4358 -0.5752  0.0019
 8676TIP3    H147443   1.585   4.711  17.192 -0.7041  0.8563 -1.0481
 8676TIP3    H247444   1.657   4.845  17.201  1.3204 -0.2828  0.7480
 8677TIP3   OH247445   1.236   5.735  14.525 -0.3499  0.2004 -0.2307
 8677TIP3    H147446   1.320   5.766  14.557 -0.3552 -1.5624  1.6981
 8677TIP3    H247447   1.185   5.814  14.509  1.4416  1.2795 -0.8602
 8678TIP3   OH247448   3.282   4.102  13.013 -0.2290  0.2183  0.3467
 8678TIP3    H147449   3.285   4.175  12.951 -0.9023 -0.7956 -0.9333
 8678TIP3    H247450   3.373   4.086  13.036  0.0056  0.8243 -0.1487
 8679TIP3   OH247451   6.038   3.271  12.549 -0.1221 -0.2799  0.1144
 8679TIP3    H147452   6.075   3.257  12.461 -0.1590  0.5925 -0.0463
 8679TIP3    H247453   5.952   3.310  12.533 -0.7704 -1.4833  0.5124
 8680TIP3   OH247454   1.929   5.455  16.560  0.0728 -0.0915 -0.2769
 8680TIP3    H147455   2.022   5.447  16.579  0.4332  1.2647 -1.2863
 8680TIP3    H247456   1.911   5.388  16.494  0.7330  0.6690 -1.2679
 8681TIP3   OH247457   4.640   3.577  11.869  0.0585  0.2818 -0.8860
 8681TIP3    H147458   4.607   3.576  11.779 -1.1703 -1.4278 -0.4437
 8681TIP3    H247459   4.623   3.490  11.903  1.0454  0.7072  0.8458
 8682TIP3   OH247460   4.037   4.346  12.769  0.3070 -0.2972 -0.4715
 8682TIP3    H147461   3.948   4.315  12.750 -0.0268  0.4904 -0.2421
 8682TIP3    H247462   4.030   4.441  12.764  1.2760 -0.2448 -1.0232
 8683TIP3   OH247463   6.352   6.251  12.546  0.2339  0.2305  0.1065
 8683TIP3    H147464   6.376   6.236  12.454 -0.1717  1.8706 -0.2894
 8683TIP3    H247465   6.419   6.203  12.595 -1.8130 -4.2942 -0.9152
 8684TIP3   OH247466   0.888   1.870  17.226  0.0509 -0.1317 -0.0232
 8684TIP3    H147467   0.872   1.807  17.297 -0.4606  0.4041  0.3465
 8684TIP3    H247468   0.974   1.847  17.193 -0.0182 -0.8631  0.2815
 8685TIP3   OH247469   1.081   3.955   6.906  0.4337 -0.1709  0.6484
 8685TIP3    H147470   0.990   3.984   6.896  0.0044 -1.8002 -0.8381
 8685TIP3    H247471   1.131   4.035   6.917 -1.1010  0.8157  0.7857
 8686TIP3   OH247472   0.784   1.350  15.041 -0.6969 -0.2995 -0.0292
 8686TIP3    H147473   0.858   1.374  14.985  1.4528 -2.0460  1.8761
 8686TIP3    H247474   0.731   1.430  15.046  1.2426  1.1539 -1.1830
 8687TIP3   OH247475   4.138   2.748  15.521  0.0549 -0.0315 -0.9419
 8687TIP3    H147476   4.104   2.659  15.532  1.3769 -0.4891 -0.3753
 8687TIP3    H247477   4.086   2.801  15.581  1.4489 -1.0253  1.2330
 8688TIP3   OH247478   3.293   0.471   3.695  0.3373 -0.4878 -0.3455
 8688TIP3    H147479   3.239   0.397   3.668  0.3184 -1.4616  2.0738
 8688TIP3    H247480   3.383   0.439   3.688  0.3377 -0.6935  0.5145
 8689TIP3   OH247481   0.433   3.494  12.006  0.0879 -0.7438  0.6261
 8689TIP3    H147482   0.430   3.489  12.102  1.4340  0.1750  0.7485
 8689TIP3    H247483   0.356   3.546  11.982 -0.0948 -0.7232  1.2458
 8690TIP3   OH247484   4.801   3.246  14.454  0.0670 -0.4869  0.3268
 8690TIP3    H147485   4.886   3.262  14.496 -0.3072  1.6971  0.3589
 8690TIP3    H247486   4.736   3.268  14.522 -0.5298  1.8929 -0.8945
 8691TIP3   OH247487   0.347   0.921   1.176  0.1677  0.3054  0.0026
 8691TIP3    H147488   0.403   0.872   1.115  1.2847  2.4208 -0.7863
 8691TIP3    H247489   0.360   0.878   1.260 -0.0292 -1.6125 -0.8817
 8692TIP3   OH247490   5.343   1.519  16.926 -0.2150  0.0584 -0.4957
 8692TIP3    H147491   5.396   1.480  16.857 -1.8511 -1.4044 -0.9943
 8692TIP3    H247492   5.341   1.612  16.905  2.3098  0.2307 -0.2880
 8693TIP3   OH247493   1.244   5.313  14.635  0.1644  0.0600  1.1749
 8693TIP3    H147494   1.232   5.380  14.569 -0.6540 -0.1596  1.0899
 8693TIP3    H247495   1.312   5.256  14.600  1.5228  1.3315  1.6521
 8694TIP3   OH247496   4.608   6.696  17.045  0.3172 -0.5428  0.4376
 8694TIP3    H147497   4.516   6.717  17.062  0.7796  0.9232  1.3636
 8694TIP3    H247498   4.606   6.629  16.976 -1.4931 -2.1692  1.9724
 8695TIP3   OH247499   1.532   5.680   4.880 -0.1282  0.2837 -0.0648
 8695TIP3    H147500   1.522   5.774   4.864 -1.4072  0.5701  1.9904
 8695TIP3    H247501   1.442   5.647   4.882  0.3225 -1.0737 -1.1033
 8696TIP3   OH247502   1.500   4.303  13.321  0.5403 -0.0760 -0.3724
 8696TIP3    H147503   1.558   4.335  13.391  0.8437 -0.3887 -0.4797
 8696TIP3    H247504   1.559   4.266  13.256  0.2443  0.0490 -0.7128
 8697TIP3   OH247505   2.189   0.850  12.030 -0.3636  0.5642  0.1532
 8697TIP3    H147506   2.260   0.830  12.091 -0.2237 -0.0004 -0.1949
 8697TIP3    H247507   2.129   0.775  12.037 -0.9727  1.0727  0.5078
 8698TIP3   OH247508   4.645   5.847   5.060 -0.1614  0.5899  0.3955
 8698TIP3    H147509   4.729   5.816   5.096 -0.0718  1.3798  0.9060
 8698TIP3    H247510   4.634   5.797   4.980  0.0293 -0.6613  1.1156
 8699TIP3   OH247511   1.429   1.215  16.876  0.1307  0.3730 -0.2526
 8699TIP3    H147512   1.522   1.234  16.880  0.2363 -0.3914  1.4253
 8699TIP3    H247513   1.390   1.295  16.841  0.9838  2.2937  2.8363
 8700TIP3   OH247514   0.414   3.070  17.579 -0.4561  0.3483 -0.0585
 8700TIP3    H147515   0.383   2.980  17.590  0.8552 -0.0122  1.0742
 8700TIP3    H247516   0.365   3.104  17.505  0.0092 -1.7568 -1.4252
 8701TIP3   OH247517   3.073   5.020  12.388 -0.2193  0.1132  0.6981
 8701TIP3    H147518   3.004   5.053  12.331  0.2954  1.0084  0.5742
 8701TIP3    H247519   3.058   4.926  12.392 -2.4658  0.4536  2.0209
 8702TIP3   OH247520   3.228   1.719   3.795  0.4390 -0.2917 -0.5646
 8702TIP3    H147521   3.143   1.688   3.764  0.6090 -2.4937  0.9406
 8702TIP3    H247522   3.216   1.736   3.888  1.1996  1.2494 -0.7139
 8703TIP3   OH247523   0.771   4.123   4.090  0.3945  0.3163 -0.2574
 8703TIP3    H147524   0.790   4.210   4.125  0.4190 -0.7891  2.8000
 8703TIP3    H247525   0.730   4.076   4.163  0.9188 -2.4191 -1.5675
 8704TIP3   OH247526   1.093   3.368   6.155 -0.5145  0.3442 -0.0103
 8704TIP3    H147527   1.120   3.451   6.196 -1.0734  0.1544  0.7756
 8704TIP3    H247528   1.052   3.394   6.073  0.0430  0.7850 -0.1621
 8705TIP3   OH247529   6.462   2.711   6.904  0.4191  0.0258 -0.1783
 8705TIP3    H147530   6.481   2.621   6.930 -0.5471 -0.1578 -0.0542
 8705TIP3    H247531   6.445   2.757   6.986 -0.4133 -0.0117 -0.3179
 8706TIP3   OH247532   1.276   4.215  12.096  0.7171  0.4690 -0.1144
 8706TIP3    H147533   1.295   4.169  12.178 -0.0041 -1.4770 -0.9893
 8706TIP3    H247534   1.360   4.220  12.051  0.8554  0.3060  0.1265
 8707TIP3   OH247535   5.252   6.359   3.425 -0.2627 -0.9586 -0.6497
 8707TIP3    H147536   5.166   6.317   3.428 -0.3913 -0.6472  1.0366
 8707TIP3    H247537   5.312   6.290   3.397 -0.4841 -2.3729  1.9879
 8708TIP3   OH247538   2.411   2.046   4.012 -0.1986 -0.3034 -0.7273
 8708TIP3    H147539   2.399   2.004   3.926 -3.0789  0.4300 -0.7668
 8708TIP3    H247540   2.339   2.108   4.019  2.3596  2.7993  0.4770
 8709TIP3   OH247541   4.097   5.733   2.603  0.6006  0.1444 -0.1293
 8709TIP3    H147542   4.019   5.700   2.648 -0.8963  0.9520 -1.9370
 8709TIP3    H247543   4.166   5.671   2.625 -0.7410 -1.0552  0.9314
 8710TIP3   OH247544   5.542   2.504  14.871 -0.0185 -0.0620 -0.1452
 8710TIP3    H147545   5.579   2.416  14.870  0.5678  0.1732  0.3064
 8710TIP3    H247546   5.536   2.529  14.779 -0.1423 -0.5501 -0.2711
 8711TIP3   OH247547   1.738   1.940  15.371 -0.8232  0.0659 -0.0130
 8711TIP3    H147548   1.730   1.856  15.325  0.9913  0.6969 -1.5996
 8711TIP3    H247549   1.698   2.004  15.312 -0.6263  0.5590  0.3811
 8712TIP3   OH247550   0.010   1.244   6.051 -0.2652 -0.2865 -0.3906
 8712TIP3    H147551   0.065   1.166   6.060 -0.0471 -0.2395 -1.2201
 8712TIP3    H247552  -0.029   1.256   6.137 -0.2624 -1.2857 -0.2373
 8713TIP3   OH247553   4.707   6.168   0.330 -0.4340  0.7748 -0.1530
 8713TIP3    H147554   4.797   6.148   0.305 -0.3381  0.6680  0.2675
 8713TIP3    H247555   4.700   6.136   0.420 -0.9658  0.5501 -0.2738
 8714TIP3   OH247556   2.828   4.199  11.401 -0.2753  0.2076  0.2217
 8714TIP3    H147557   2.751   4.245  11.367 -0.6059 -0.4493  0.0587
 8714TIP3    H247558   2.899   4.224  11.342 -0.7865 -0.7047 -0.8181
 8715TIP3   OH247559   2.338   5.604   5.697 -0.4924  0.2227 -0.1681
 8715TIP3    H147560   2.285   5.656   5.637  1.5374  1.5945 -0.8971
 8715TIP3    H247561   2.413   5.660   5.716 -0.5228 -0.5905  2.8420
 8716TIP3   OH247562   6.527   0.991   4.378 -0.1531 -0.5139 -0.0044
 8716TIP3    H147563   6.452   0.945   4.417 -0.1938  0.2100  0.7926
 8716TIP3    H247564   6.600   0.972   4.436 -0.2617  0.7499  0.5856
 8717TIP3   OH247565   2.596   4.715   1.217 -0.0456 -0.0454  0.1722
 8717TIP3    H147566   2.634   4.658   1.150 -1.4452 -0.5269 -0.2632
 8717TIP3    H247567   2.588   4.800   1.173 -3.8501 -1.0554 -1.5299
 8718TIP3   OH247568   5.461   5.708   3.032 -0.3297  0.6910  0.3132
 8718TIP3    H147569   5.401   5.721   3.106 -0.8459 -0.8508  0.2118
 8718TIP3    H247570   5.456   5.789   2.982 -1.6730  0.9147  0.7755
 8719TIP3   OH247571   0.126   5.723  15.086 -0.2274 -0.6115 -0.1454
 8719TIP3    H147572   0.141   5.792  15.021 -0.4470 -1.4942 -1.1547
 8719TIP3    H247573   0.054   5.757  15.140  0.9246  0.7543  0.5745
 8720TIP3   OH247574   5.644   0.511  11.116  0.1877 -0.5312 -0.2512
 8720TIP3    H147575   5.617   0.433  11.164  0.9943 -0.3539  0.5084
 8720TIP3    H247576   5.736   0.496  11.095  0.3530  0.2203 -0.0911
 8721TIP3   OH247577   2.383   4.521  14.044 -0.5238 -0.1934 -0.1873
 8721TIP3    H147578   2.325   4.594  14.023 -0.9872 -0.6113 -0.3891
 8721TIP3    H247579   2.471   4.553  14.025 -0.8909 -0.5526 -2.9448
 8722TIP3   OH247580   2.355   4.679  14.341  0.2013  0.1632  0.5418
 8722TIP3    H147581   2.303   4.648  14.415  1.3655  3.9527  3.2896
 8722TIP3    H247582   2.445   4.656  14.363  0.4218  0.0114 -0.4713
 8723TIP3   OH247583   5.105   5.741   2.017 -0.2072  0.8104  0.1652
 8723TIP3    H147584   5.038   5.674   2.002 -1.1164  1.6561  0.3627
 8723TIP3    H247585   5.148   5.714   2.097 -0.1407  0.1188 -0.0999
 8724TIP3   OH247586   5.227   2.173  17.436  0.4717 -0.1764 -0.3810
 8724TIP3    H147587   5.220   2.148  17.345  1.2634 -0.2640 -0.4313
 8724TIP3    H247588   5.274   2.101  17.478 -1.8233 -1.1980  0.5926
 8725TIP3   OH247589   2.383   3.580   1.675  0.0157  0.5103 -0.1959
 8725TIP3    H147590   2.396   3.625   1.758  0.2749 -1.6682  1.0232
 8725TIP3    H247591   2.291   3.556   1.675 -0.0251  0.6594 -0.6355
 8726TIP3   OH247592   3.897   6.674   0.509  0.4807  0.5075 -0.0234
 8726TIP3    H147593   3.952   6.688   0.432 -1.9918 -0.7459 -2.1769
 8726TIP3    H247594   3.903   6.580   0.525 -1.1062  0.3085 -0.4319
 8727TIP3   OH247595   4.899   1.053  13.288 -0.1612 -0.1001 -0.5473
 8727TIP3    H147596   4.825   1.080  13.342 -0.3840 -1.4356 -0.1666
 8727TIP3    H247597   4.953   0.999  13.346  0.8297  0.3824 -0.9853
 8728TIP3   OH247598   6.052   6.363   5.963 -0.1198  0.4192  0.6820
 8728TIP3    H147599   5.998   6.384   5.887 -1.5263 -1.0550  1.2152
 8728TIP3    H247600   6.080   6.273   5.947  0.1507  0.3414  1.5742
 8729TIP3   OH247601   5.922   3.065  15.086  0.3541 -0.3642  0.2179
 8729TIP3    H147602   5.922   3.022  15.172 -0.3647 -1.6833 -0.4185
 8729TIP3    H247603   5.992   3.022  15.038  0.9203  0.5462  0.1996
 8730TIP3   OH247604   1.445   3.041  13.693 -0.8748  0.1295 -0.1126
 8730TIP3    H147605   1.387   2.966  13.678  0.1118 -1.1077  1.8563
 8730TIP3    H247606   1.416   3.078  13.776  2.0231 -1.5517  1.8415
 8731TIP3   OH247607   0.065   4.965  16.262 -0.1450 -0.0676  0.0501
 8731TIP3    H147608   0.139   4.906  16.277 -0.2794 -0.5843 -1.2266
 8731TIP3    H247609   0.105   5.049  16.241  0.0900 -0.2928 -0.4237
 8732TIP3   OH247610   0.741   5.162  13.913 -0.5028 -0.5354 -0.7964
 8732TIP3    H147611   0.814   5.203  13.960 -2.0381  2.2128 -0.6050
 8732TIP3    H247612   0.766   5.167  13.821 -0.3320  0.1771 -0.7165
 8733TIP3   OH247613   4.118   0.460  16.764  0.0327  0.3681  0.0759
 8733TIP3    H147614   4.023   0.474  16.763 -0.0262 -0.0042  0.2456
 8733TIP3    H247615   4.139   0.434  16.674  0.2154  1.9458 -0.3680
 8734TIP3   OH247616   2.126   4.851   1.912  0.1261 -0.4472 -0.1900
 8734TIP3    H147617   2.213   4.840   1.950  0.1979 -0.6016 -0.4001
 8734TIP3    H247618   2.131   4.809   1.826 -0.6907 -2.1320  0.5433
 8735TIP3   OH247619   1.143   3.834   3.516  1.0620 -0.0314  0.0636
 8735TIP3    H147620   1.185   3.917   3.537 -0.2982  0.8763 -0.6741
 8735TIP3    H247621   1.093   3.852   3.437  0.5114 -1.4901  0.0528
 8736TIP3   OH247622   5.307   1.475  13.721  0.4245 -0.2464 -0.5496
 8736TIP3    H147623   5.348   1.554  13.685  1.0452 -0.4275 -0.2669
 8736TIP3    H247624   5.315   1.486  13.816  0.2042 -0.4896 -0.5040
 8737TIP3   OH247625   0.150   5.341   1.527  0.1547  0.5729  0.6938
 8737TIP3    H147626   0.163   5.303   1.439  0.7602  0.6797  0.7327
 8737TIP3    H247627   0.185   5.430   1.520  0.6151  0.4330  1.1619
 8738TIP3   OH247628   5.529   0.600   6.736 -0.8992 -0.0293  0.2460
 8738TIP3    H147629   5.450   0.639   6.698 -0.4505 -1.6171 -2.5795
 8738TIP3    H247630   5.503   0.512   6.762  0.1232 -1.0160 -1.8361
 8739TIP3   OH247631   2.239   1.319  13.283 -0.1785  0.3981  0.3459
 8739TIP3    H147632   2.312   1.378  13.305 -0.8983  0.7885  1.8207
 8739TIP3    H247633   2.161   1.365  13.313 -1.0620 -0.0227 -1.2005
 8740TIP3   OH247634   2.733   1.972   1.419 -0.2502  0.0816  0.0656
 8740TIP3    H147635   2.762   2.047   1.367 -0.4693  0.2525  0.1887
 8740TIP3    H247636   2.657   2.005   1.468 -1.1397 -0.5808 -0.8418
 8741TIP3   OH247637   0.352   5.860   1.656 -0.4649  0.2543 -0.0531
 8741TIP3    H147638   0.397   5.930   1.608 -1.1075 -0.5114 -1.8795
 8741TIP3    H247639   0.371   5.780   1.605 -0.0007 -0.8722  1.7996
 8742TIP3   OH247640   6.615   6.353  12.157  0.8319  0.4779  0.2134
 8742TIP3    H147641   6.541   6.309  12.197 -0.4216  0.6418 -1.7961
 8742TIP3    H247642   6.691   6.302  12.184 -0.1434 -0.4653  1.2692
 8743TIP3   OH247643   0.910   1.543   2.090  0.1722 -0.3010  0.7202
 8743TIP3    H147644   0.873   1.467   2.044 -0.8830 -0.0759  1.1856
 8743TIP3    H247645   0.835   1.586   2.131  0.4870  1.9232 -0.8528
 8744TIP3   OH247646   4.503   5.628  14.618  0.5544  0.1052 -0.0712
 8744TIP3    H147647   4.539   5.647  14.531  0.9908  2.2116  0.5113
 8744TIP3    H247648   4.408   5.633  14.607  0.6181  2.2889 -0.1114
 8745TIP3   OH247649   3.447   3.735   6.846  0.1137 -0.2901 -0.1684
 8745TIP3    H147650   3.515   3.668   6.836  1.9654  1.6131 -0.8919
 8745TIP3    H247651   3.393   3.725   6.768  4.1447  3.0003 -3.8603
 8746TIP3   OH247652   3.650   6.080   5.669  0.4914  0.5375  0.3523
 8746TIP3    H147653   3.577   6.038   5.714  0.3767 -0.7531 -0.9600
 8746TIP3    H247654   3.609   6.142   5.608  0.4582 -0.2960 -0.4919
 8747TIP3   OH247655   5.460   2.830   5.677  0.3913  0.2437 -0.2615
 8747TIP3    H147656   5.539   2.872   5.712  1.1156 -4.0196  4.2643
 8747TIP3    H247657   5.388   2.888   5.704  1.5898  1.3923  0.6234
 8748TIP3   OH247658   3.424   6.014  16.545  0.3895 -0.2530  0.5800
 8748TIP3    H147659   3.448   5.935  16.496  0.9611 -0.6553  1.4742
 8748TIP3    H247660   3.386   6.072  16.480  1.8679 -0.4419 -0.4968
 8749TIP3   OH247661   0.478   1.884  11.459 -0.1166 -0.1462 -0.8052
 8749TIP3    H147662   0.487   1.975  11.489  1.2182 -0.2710 -0.7717
 8749TIP3    H247663   0.564   1.845  11.475 -0.7592 -1.5064 -0.5593
 8750TIP3   OH247664   4.641   3.609  17.597 -0.2183 -0.1768  0.2878
 8750TIP3    H147665   4.654   3.651  17.682 -0.0554  0.1892  0.0859
 8750TIP3    H247666   4.635   3.515  17.616 -0.4081 -0.0752  0.7258
 8751TIP3   OH247667   5.321   2.329  12.802 -0.0374 -0.2116  0.0135
 8751TIP3    H147668   5.232   2.352  12.774  0.4463  1.3739 -0.3417
 8751TIP3    H247669   5.344   2.396  12.866  0.3381 -1.5273  1.2924
 8752TIP3   OH247670   2.312   1.806   2.744  0.0274 -0.6294 -0.6761
 8752TIP3    H147671   2.257   1.804   2.666  0.0359  1.1733 -0.7694
 8752TIP3    H247672   2.387   1.860   2.718  1.1399 -1.8297 -0.0885
 8753TIP3   OH247673   4.167   3.327   5.859  0.0426  0.0798 -0.2063
 8753TIP3    H147674   4.178   3.307   5.952 -1.2758  1.5760  0.3059
 8753TIP3    H247675   4.088   3.280   5.833  0.0357  0.1977 -0.4004
 8754TIP3   OH247676   2.163   5.306   4.519  0.2213 -0.0664  0.2391
 8754TIP3    H147677   2.211   5.386   4.543  0.2633  0.3740 -1.2131
 8754TIP3    H247678   2.231   5.242   4.499  0.2053  0.0917 -0.3375
 8755TIP3   OH247679   1.680   1.701  11.801  0.5985  0.4337  0.7272
 8755TIP3    H147680   1.595   1.740  11.819 -0.8485 -1.6499 -1.0419
 8755TIP3    H247681   1.699   1.647  11.878 -1.0778 -1.2375  0.0439
 8756TIP3   OH247682   5.149   4.081   7.059  0.4748  0.0745  0.5815
 8756TIP3    H147683   5.110   4.159   7.019 -0.8410 -1.1022 -0.5730
 8756TIP3    H247684   5.233   4.110   7.093  0.3920  1.8026 -0.5876
 8757TIP3   OH247685   4.506   1.254   6.246 -0.4898  0.4055  0.0800
 8757TIP3    H147686   4.477   1.283   6.332  1.4759 -0.2232  0.9974
 8757TIP3    H247687   4.551   1.330   6.209 -1.2683  0.6511 -0.3948
 8758TIP3   OH247688   5.132   4.441   0.916 -0.3026 -0.0411 -0.1463
 8758TIP3    H147689   5.103   4.408   0.831 -0.4868  0.5873 -0.3294
 8758TIP3    H247690   5.134   4.363   0.972 -1.4639 -0.2600 -0.3759
 8759TIP3   OH247691   5.284   5.454  14.787 -0.5584  0.5034 -0.1296
 8759TIP3    H147692   5.294   5.363  14.812  1.2808  0.8959  0.7420
 8759TIP3    H247693   5.318   5.459  14.698 -4.0995 -0.2807 -1.6887
 8760TIP3   OH247694   3.683   2.168   3.694 -0.0629 -0.4502 -0.4030
 8760TIP3    H147695   3.597   2.139   3.663 -0.3944 -0.1553  0.2316
 8760TIP3    H247696   3.740   2.093   3.680 -0.5564 -0.8518 -0.2853
 8761TIP3   OH247697   4.957   3.872  16.208  0.3133  0.4638  0.1311
 8761TIP3    H147698   4.891   3.907  16.268 -0.4287  0.8268 -0.8653
 8761TIP3    H247699   5.017   3.945  16.193 -0.1721  0.7489 -0.4776
 8762TIP3   OH247700   1.040   2.889   2.529  0.2958  0.3227  0.2485
 8762TIP3    H147701   1.009   2.885   2.438 -1.3737  0.5010  0.7845
 8762TIP3    H247702   0.999   2.968   2.565 -0.7287 -0.8191  1.7248
 8763TIP3   OH247703   0.883   1.667  15.078  0.3689  0.2701 -0.4311
 8763TIP3    H147704   0.788   1.675  15.084  0.3843  1.3384 -1.4349
 8763TIP3    H247705   0.908   1.624  15.160 -0.9551  0.1040 -0.0897
 8764TIP3   OH247706   5.967   2.637   5.404  0.3243 -0.6233 -0.0509
 8764TIP3    H147707   5.979   2.683   5.487 -0.3431  0.4964 -0.5593
 8764TIP3    H247708   5.953   2.706   5.339  1.3245 -1.4564 -1.1945
 8765TIP3   OH247709   0.073   6.058  12.027  0.1558 -0.8571 -0.4854
 8765TIP3    H147710   0.020   5.980  12.046 -1.5417  0.3990  0.1394
 8765TIP3    H247711   0.143   6.055  12.092 -0.9024 -0.9723  0.6968
 8766TIP3   OH247712   3.618   0.248  11.454 -0.1996  0.2767  0.4332
 8766TIP3    H147713   3.570   0.195  11.518 -0.0990  1.6517  1.7137
 8766TIP3    H247714   3.550   0.294  11.405 -0.3546 -1.9235 -1.5995
 8767TIP3   OH247715   3.386   4.992   2.805 -0.3765 -0.0216  0.2298
 8767TIP3    H147716   3.292   4.971   2.811 -1.0266  1.4357 -2.7400
 8767TIP3    H247717   3.390   5.086   2.819  0.4121  0.1612 -1.0979
 8768TIP3   OH247718   2.849   0.614   1.332  0.2282  0.6492 -0.3456
 8768TIP3    H147719   2.849   0.551   1.404 -1.1322  1.1014  0.0751
 8768TIP3    H247720   2.941   0.623   1.308  0.3421 -3.7741 -2.4569
 8769TIP3   OH247721   6.039   4.418   4.079 -0.0780 -0.7486 -0.2063
 8769TIP3    H147722   6.131   4.402   4.058 -0.0073  0.2924 -0.7752
 8769TIP3    H247723   6.027   4.382   4.166  1.1659  0.0631  0.3276
 8770TIP3   OH247724   5.004   5.817  17.015  0.6246 -0.4417 -0.4120
 8770TIP3    H147725   5.060   5.851  17.085 -1.1644 -0.8009  1.2941
 8770TIP3    H247726   4.951   5.892  16.988  0.5060 -0.5823 -0.5748
 8771TIP3   OH247727   5.491   4.456  15.972 -0.2846  0.2450 -0.5824
 8771TIP3    H147728   5.488   4.533  15.914 -0.9217 -0.0263 -0.9228
 8771TIP3    H247729   5.533   4.389  15.919 -0.1619  0.2230 -0.4550
 8772TIP3   OH247730   3.903   2.066   4.333 -0.0423  0.0381 -0.0688
 8772TIP3    H147731   3.963   2.130   4.372 -0.4149 -0.4253  1.3179
 8772TIP3    H247732   3.899   2.090   4.240  0.3415  1.5959  0.2950
 8773TIP3   OH247733   5.838   5.621   6.354  0.0589  0.5095 -0.0954
 8773TIP3    H147734   5.754   5.652   6.321  0.3515  2.0126  0.4793
 8773TIP3    H247735   5.893   5.699   6.357  0.7508  0.0128  1.7009
 8774TIP3   OH247736   2.932   0.637  10.727  0.3033 -0.2207 -0.1163
 8774TIP3    H147737   2.966   0.577  10.661 -1.1002  0.0556 -1.1158
 8774TIP3    H247738   2.897   0.579  10.795 -2.9313 -0.7060 -2.0057
 8775TIP3   OH247739   3.556   5.747  10.960  0.6788  0.6001 -0.4454
 8775TIP3    H147740   3.461   5.759  10.949  0.9758  1.7613 -2.1106
 8775TIP3    H247741   3.572   5.657  10.932 -0.1113 -0.1607  1.3981
 8776TIP3   OH247742   6.483   3.991  12.078  0.6613  0.1174  0.0224
 8776TIP3    H147743   6.423   4.064  12.066  0.8275  0.4986  1.3663
 8776TIP3    H247744   6.442   3.937  12.145  1.1882 -0.3136  0.0009
 8777TIP3   OH247745   3.983   2.208  15.204 -0.0488  0.2838  0.2110
 8777TIP3    H147746   3.955   2.127  15.163 -2.7393  0.0575  2.2230
 8777TIP3    H247747   3.973   2.275  15.136 -1.8326 -0.4580 -0.3187
 8778TIP3   OH247748   5.905   5.832   2.372 -0.1648 -0.0883 -0.3344
 8778TIP3    H147749   5.828   5.775   2.363 -1.0022  0.9244  0.1643
 8778TIP3    H247750   5.871   5.911   2.413  0.4455  1.7871 -3.1674
 8779TIP3   OH247751   2.273   2.944   5.285  0.4182 -0.0819 -0.4573
 8779TIP3    H147752   2.182   2.940   5.314  0.5308 -0.2212 -0.1153
 8779TIP3    H247753   2.272   2.914   5.194 -0.2291  2.1854 -1.2603
 8780TIP3   OH247754   1.069   4.543   4.346 -0.0919  0.1236  0.1911
 8780TIP3    H147755   1.146   4.487   4.339  1.4191  2.1931 -0.7659
 8780TIP3    H247756   1.086   4.597   4.423 -0.1322  1.2099 -0.5471
 8781TIP3   OH247757   0.209   2.378  14.625  0.4748  0.4485  0.3299
 8781TIP3    H147758   0.295   2.407  14.595  0.0685  0.8719 -0.4618
 8781TIP3    H247759   0.225   2.292  14.664  1.7714  1.8041  3.0772
 8782TIP3   OH247760   2.327   4.441   4.419 -0.5697 -0.3882 -0.1048
 8782TIP3    H147761   2.238   4.407   4.428 -0.8318 -0.1349 -1.5932
 8782TIP3    H247762   2.330   4.515   4.480 -1.6782  0.1667 -0.6988
 8783TIP3   OH247763   2.449   5.539   6.002  0.0984 -0.2731  0.4356
 8783TIP3    H147764   2.410   5.616   6.044  0.8650  0.7691 -0.6954
 8783TIP3    H247765   2.412   5.538   5.914  2.5985  0.8532 -0.7485
 8784TIP3   OH247766   4.111   0.702  13.033 -0.1853 -0.3736 -0.2576
 8784TIP3    H147767   4.153   0.631  12.984 -1.7661 -0.5383 -1.4527
 8784TIP3    H247768   4.018   0.696  13.011 -0.7779  0.4110  1.7417
 8785TIP3   OH247769   6.448   4.345  15.469 -0.1686 -0.4809  0.3651
 8785TIP3    H147770   6.480   4.258  15.446  0.1925 -0.0149 -1.0330
 8785TIP3    H247771   6.528   4.396  15.484 -0.3609 -0.2670  0.6490
 8786TIP3   OH247772   2.826   5.360  17.269 -0.0437 -0.3173  0.0204
 8786TIP3    H147773   2.858   5.449  17.254  1.1639 -0.8015 -0.3525
 8786TIP3    H247774   2.903   5.304  17.261 -0.4106 -1.2304  2.0956
 8787TIP3   OH247775   3.589   5.549   5.007  0.1618 -0.0372 -0.3992
 8787TIP3    H147776   3.650   5.540   4.934 -1.5120 -1.1804 -1.7256
 8787TIP3    H247777   3.645   5.574   5.081  2.0211  0.4074 -1.8599
 8788TIP3   OH247778   5.882   4.606   5.199  0.1648  0.0828  0.2861
 8788TIP3    H147779   5.937   4.536   5.163  0.0401  0.3757 -0.4999
 8788TIP3    H247780   5.805   4.560   5.234  0.4859 -0.2480  0.5705
 8789TIP3   OH247781   1.759   1.769   1.751 -0.0356 -0.1193  0.3802
 8789TIP3    H147782   1.696   1.793   1.683  1.4086  0.6549 -0.7415
 8789TIP3    H247783   1.705   1.743   1.825 -1.6683  0.5758 -0.5060
 8790TIP3   OH247784   0.628   0.413  15.934 -0.1619 -0.4413 -0.3423
 8790TIP3    H147785   0.586   0.425  15.848 -0.5490  0.0515 -0.0873
 8790TIP3    H247786   0.621   0.498  15.976 -1.5601 -1.1098  0.8746
 8791TIP3   OH247787   1.506   4.365   5.920 -0.1097  0.1327  0.1127
 8791TIP3    H147788   1.431   4.333   5.871  0.8922 -0.8911 -0.8103
 8791TIP3    H247789   1.470   4.432   5.978 -1.6162  0.1086 -0.7455
 8792TIP3   OH247790   0.337   1.768  17.036  0.1068 -0.5074  1.2009
 8792TIP3    H147791   0.288   1.840  16.997  0.6159 -0.0258  1.4355
 8792TIP3    H247792   0.271   1.715  17.081 -0.4090 -0.7662  0.1645
 8793TIP3   OH247793   5.919   2.872  16.953  0.2766  0.3071 -0.0395
 8793TIP3    H147794   5.899   2.951  17.003 -0.2762  0.8285 -1.0419
 8793TIP3    H247795   6.014   2.862  16.961  0.1025 -0.1039  1.7716
 8794TIP3   OH247796   0.641   3.692  14.575  0.2167  0.4397  0.0987
 8794TIP3    H147797   0.614   3.603  14.553  1.5749  0.1913 -0.7207
 8794TIP3    H247798   0.612   3.704  14.666  0.9272 -1.2361  0.6036
 8795TIP3   OH247799   1.900   4.171   3.378  0.4645 -0.2325 -0.3080
 8795TIP3    H147800   1.939   4.181   3.465 -1.0885 -1.6923  0.6279
 8795TIP3    H247801   1.922   4.081   3.353 -0.4074 -0.3348 -0.7336
 8796TIP3   OH247802   2.028   6.644  12.624  0.1360 -0.0639  0.6207
 8796TIP3    H147803   2.084   6.566  12.619  0.0928 -0.0675  0.1068
 8796TIP3    H247804   1.994   6.644  12.714  0.1549 -0.6253  0.6308
 8797TIP3   OH247805   0.946   4.719   3.478 -0.1890 -0.0181 -0.0637
 8797TIP3    H147806   0.959   4.804   3.434  0.0361  0.7744  1.4572
 8797TIP3    H247807   0.888   4.670   3.419 -1.7674  1.8561 -0.1829
 8798TIP3   OH247808   3.656   5.034   5.970 -0.1694  0.2053 -0.3377
 8798TIP3    H147809   3.682   5.048   5.879  0.5072 -1.0117 -0.3496
 8798TIP3    H247810   3.564   5.010   5.965  0.0488 -0.5614 -0.7752
 8799TIP3   OH247811   3.118   2.314  12.214 -0.3352 -0.2051 -0.6354
 8799TIP3    H147812   3.126   2.407  12.235 -0.8245 -0.3311  0.1248
 8799TIP3    H247813   3.028   2.303  12.185 -0.5223 -0.5881  0.0628
 8800TIP3   OH247814   1.316   2.260  11.230  0.2324 -0.0327  0.3995
 8800TIP3    H147815   1.354   2.190  11.176  0.8103 -0.7936  1.7349
 8800TIP3    H247816   1.327   2.229  11.320 -2.6843  0.1510  0.9138
 8801TIP3   OH247817   2.397   4.328   5.462 -0.4394 -0.4510  0.1100
 8801TIP3    H147818   2.364   4.347   5.549 -1.7741 -0.8464 -0.2782
 8801TIP3    H247819   2.401   4.413   5.418  2.9369  0.1612  1.3830
 8802TIP3   OH247820   6.713   1.414   5.066 -0.3968  0.3081 -0.0273
 8802TIP3    H147821   6.678   1.499   5.040 -1.8174 -0.3652 -0.4108
 8802TIP3    H247822   6.666   1.393   5.147  0.9047  0.4608  0.7979
 8803TIP3   OH247823   0.947   1.549   4.864  0.1000  0.0712 -0.0890
 8803TIP3    H147824   1.006   1.611   4.908 -1.1088  0.1629  1.4995
 8803TIP3    H247825   0.993   1.525   4.784  1.5922  1.3210  0.3398
 8804TIP3   OH247826   4.350   3.092  13.578 -0.3419  0.6562  0.5054
 8804TIP3    H147827   4.331   3.135  13.495  2.0260 -1.3736 -1.2420
 8804TIP3    H247828   4.446   3.085  13.580 -0.4838 -2.2677  1.7693
 8805TIP3   OH247829   0.837   6.084   5.476 -0.1280 -0.8834 -0.1270
 8805TIP3    H147830   0.923   6.104   5.438  0.2036 -0.2497  0.9219
 8805TIP3    H247831   0.854   6.011   5.535  0.2391  0.8329  2.0109
 8806TIP3   OH247832   0.911   0.225   2.955  0.2962 -0.2330  0.0158
 8806TIP3    H147833   0.894   0.160   3.023  0.7966  0.3841  0.7341
 8806TIP3    H247834   0.834   0.281   2.956 -0.0311 -0.6635 -0.4456
 8807TIP3   OH247835   1.388   1.218  11.327  0.3222  0.0380  0.5788
 8807TIP3    H147836   1.441   1.262  11.260 -0.0886  0.2959  0.4150
 8807TIP3    H247837   1.326   1.285  11.355  0.8151  0.0819  1.5861
 8808TIP3   OH247838   6.396   3.257   0.277 -0.7262 -0.2298 -0.6469
 8808TIP3    H147839   6.317   3.205   0.258 -2.2039  1.7658 -0.3672
 8808TIP3    H247840   6.385   3.283   0.368 -0.8075  1.6996 -1.1559
 8809TIP3   OH247841   4.592   5.981  15.870  0.0349 -0.2146 -0.0583
 8809TIP3    H147842   4.579   5.892  15.836  0.1561 -0.4759  0.5764
 8809TIP3    H247843   4.576   5.974  15.964  0.0980  0.4264  0.0061
 8810TIP3   OH247844   2.870   5.292   4.742  0.1334  0.0694 -0.4152
 8810TIP3    H147845   2.822   5.318   4.821  1.1987 -1.2445  0.7045
 8810TIP3    H247846   2.907   5.206   4.762  4.2393  1.5583 -0.5750
 8811TIP3   OH247847   2.359   2.269   1.373  0.0512 -0.1390 -0.2008
 8811TIP3    H147848   2.279   2.320   1.378 -0.8204 -1.4946  0.1086
 8811TIP3    H247849   2.402   2.299   1.293 -0.4744  0.9782 -0.0791
 8812TIP3   OH247850   4.589   1.833  15.286 -0.2367 -0.1816 -0.1238
 8812TIP3    H147851   4.584   1.785  15.203  1.3636  1.2591 -1.1260
 8812TIP3    H247852   4.498   1.840  15.315 -0.8054 -1.0014 -1.5888
 8813TIP3   OH247853   0.879   3.992   6.382 -0.2471  0.0632 -0.6540
 8813TIP3    H147854   0.898   3.954   6.468 -1.5120 -0.7222 -0.6976
 8813TIP3    H247855   0.789   3.965   6.363 -0.6023  1.6948 -1.4615
 8814TIP3   OH247856   4.585   0.729  12.703 -0.4685  0.4754  0.2367
 8814TIP3    H147857   4.642   0.758  12.774 -0.3587 -1.0957  0.8122
 8814TIP3    H247858   4.630   0.756  12.623  1.1657 -0.8379  0.6740
 8815TIP3   OH247859   2.013   0.503   0.221 -0.3405  0.0426  0.0287
 8815TIP3    H147860   2.032   0.410   0.210 -0.5432  0.1671 -1.6959
 8815TIP3    H247861   2.050   0.525   0.306 -1.4097 -1.8889  1.0632
 8816TIP3   OH247862   2.166   1.551   1.668  0.5294  0.3459  0.0689
 8816TIP3    H147863   2.257   1.525   1.685 -0.0718 -1.7898  0.2929
 8816TIP3    H247864   2.131   1.575   1.754  0.5644  0.0672  0.1615
 8817TIP3   OH247865   5.822   5.257   4.008 -0.7647  0.2199 -0.3580
 8817TIP3    H147866   5.762   5.281   4.078 -0.7955  0.1662 -0.3660
 8817TIP3    H247867   5.785   5.177   3.971 -0.2751 -0.2544  0.1478
 8818TIP3   OH247868   1.644   5.080  12.279 -0.1240 -0.1580 -0.4834
 8818TIP3    H147869   1.728   5.036  12.281 -0.1243 -0.1305  0.2925
 8818TIP3    H247870   1.645   5.131  12.198  0.2767 -0.7847 -0.8801
 8819TIP3   OH247871   1.356   4.466   5.320 -0.2560 -0.1419 -0.2114
 8819TIP3    H147872   1.392   4.535   5.264 -0.3973 -0.1008 -0.2509
 8819TIP3    H247873   1.262   4.470   5.306 -0.3662  0.3694  0.6094
 8820TIP3   OH247874   2.143   6.319   0.154 -0.3578  0.3726  0.4713
 8820TIP3    H147875   2.220   6.316   0.097  0.7387  1.3602  1.8454
 8820TIP3    H247876   2.072   6.283   0.100  1.6448 -3.7490  0.2094
 8821TIP3   OH247877   5.127   5.135   4.310 -0.3591  0.3680  0.2183
 8821TIP3    H147878   5.168   5.159   4.226  0.4557 -0.6105  0.3240
 8821TIP3    H247879   5.171   5.191   4.374 -1.1218  1.2613 -0.0025
 8822TIP3   OH247880   1.997   3.261  17.391 -0.1761 -0.3660 -0.2195
 8822TIP3    H147881   1.909   3.289  17.417  0.4529  1.2830  0.2451
 8822TIP3    H247882   1.989   3.167  17.377 -1.7591 -0.4325  0.9019
 8823TIP3   OH247883   1.529   1.054   1.325  0.2236  0.3034  0.0291
 8823TIP3    H147884   1.554   1.014   1.408  0.6511  1.3951  0.4521
 8823TIP3    H247885   1.491   0.982   1.273  1.2498 -0.6990  0.6239
 8824TIP3   OH247886   6.433   2.354  14.113 -0.0194  0.1346 -0.1275
 8824TIP3    H147887   6.344   2.331  14.139 -0.4624  0.8298 -0.9837
 8824TIP3    H247888   6.452   2.435  14.162 -0.0508  0.2628 -0.3245
 8825TIP3   OH247889   5.405   4.363  14.380  0.2423  0.1168 -0.2879
 8825TIP3    H147890   5.470   4.430  14.399  0.0083  0.8663 -2.0073
 8825TIP3    H247891   5.330   4.411  14.346 -0.4557 -0.9145 -0.2449
 8826TIP3   OH247892   1.614   2.875   1.700 -0.1274  0.7383 -0.3249
 8826TIP3    H147893   1.693   2.929   1.696  1.9016 -1.8969  1.4128
 8826TIP3    H247894   1.620   2.817   1.624  0.3243 -0.3378  0.5131
 8827TIP3   OH247895   1.716   3.814   4.093  0.7912  0.8133 -0.2511
 8827TIP3    H147896   1.786   3.750   4.079  1.0279  0.9894  0.0970
 8827TIP3    H247897   1.756   3.898   4.067  0.6098  0.8717 -0.3398
 8828TIP3   OH247898   5.493   3.284  15.822  0.4237  0.0700  0.4082
 8828TIP3    H147899   5.528   3.355  15.876  0.2630  0.0089  0.5969
 8828TIP3    H247900   5.410   3.318  15.790  0.1252 -0.2005  0.8746
 8829TIP3   OH247901   5.777   3.282   3.777 -0.0712 -0.2793  0.8718
 8829TIP3    H147902   5.822   3.354   3.823  1.5581  0.3522 -1.5146
 8829TIP3    H247903   5.812   3.285   3.688  1.1951 -4.9529  0.9681
 8830TIP3   OH247904   1.364   1.491  12.604  0.0272  0.1422  0.2343
 8830TIP3    H147905   1.302   1.510  12.675 -0.0462 -0.5398  0.3575
 8830TIP3    H247906   1.380   1.397  12.610  0.4756  0.1781 -0.2888
 8831TIP3   OH247907   1.149   3.617   1.286 -0.0649  0.0012  0.2256
 8831TIP3    H147908   1.198   3.557   1.343  0.5421  1.8221  1.7284
 8831TIP3    H247909   1.203   3.625   1.208 -0.8456 -2.4410 -0.6641
 8832TIP3   OH247910   6.469   0.267  14.221 -0.2335  0.1502  0.6350
 8832TIP3    H147911   6.407   0.300  14.286  0.6475  0.3596  1.3942
 8832TIP3    H247912   6.439   0.304  14.138 -1.0042  0.4060  1.0214
 8833TIP3   OH247913   1.194   3.543  16.411  1.3008  0.5477 -0.2944
 8833TIP3    H147914   1.136   3.473  16.382 -0.4528  0.9098  2.0528
 8833TIP3    H247915   1.259   3.499  16.465  0.8291  0.5697  0.3064
 8834TIP3   OH247916   2.858   5.189   3.429  0.2848 -0.2892  0.5202
 8834TIP3    H147917   2.855   5.136   3.509  0.0335 -1.8275 -0.4724
 8834TIP3    H247918   2.798   5.261   3.447 -1.3401 -1.6840  1.0130
 8835TIP3   OH247919   3.026   1.988   3.823  0.2626  0.1007 -0.3696
 8835TIP3    H147920   2.954   1.936   3.787  0.6292 -1.5820  1.2098
 8835TIP3    H247921   3.053   1.941   3.901  3.4523  0.3591 -1.1684
 8836TIP3   OH247922   1.072   6.631   1.422  0.3357  0.5853 -0.5330
 8836TIP3    H147923   1.038   6.550   1.460 -0.4460  1.8423  1.6062
 8836TIP3    H247924   1.158   6.607   1.387 -0.0383 -1.2264 -0.2959
 8837TIP3   OH247925   1.847   3.043   0.020  0.0527 -0.5777  0.0207
 8837TIP3    H147926   1.915   2.979  -0.002  0.4020 -0.4547  0.7039
 8837TIP3    H247927   1.784   2.993   0.071 -1.5082 -1.2216 -2.3821
 8838TIP3   OH247928   2.240   0.601  12.425  0.8082 -0.1831  0.0131
 8838TIP3    H147929   2.165   0.628  12.478  0.4071 -1.2902  0.0374
 8838TIP3    H247930   2.224   0.508  12.408  2.5635 -0.6418  0.6792
 8839TIP3   OH247931   6.044   1.518  16.691 -0.4016  0.1686 -0.5123
 8839TIP3    H147932   6.091   1.443  16.728 -1.9183 -0.9898 -0.8289
 8839TIP3    H247933   6.038   1.580  16.763  0.5899 -0.1313 -0.1470
 8840TIP3   OH247934   6.041   3.391  13.075 -0.1961  0.3252 -0.3706
 8840TIP3    H147935   6.003   3.354  12.995  0.7296 -2.2265  0.2666
 8840TIP3    H247936   6.010   3.481  13.076 -1.7960 -0.0894 -2.6179
 8841TIP3   OH247937   6.018   3.195  14.169  0.3778 -0.1799  0.1764
 8841TIP3    H147938   6.031   3.210  14.262  1.2567 -2.3577  0.4537
 8841TIP3    H247939   5.924   3.208  14.155  0.3056  0.5868  1.2468
 8842TIP3   OH247940   4.097   2.310   6.514  0.2098 -0.0208  0.2230
 8842TIP3    H147941   4.072   2.263   6.435 -0.2812  1.4257 -0.5095
 8842TIP3    H247942   4.054   2.263   6.585  0.9361 -1.5464 -0.3001
 8843TIP3   OH247943   2.749   5.857   2.694  0.6827 -0.3033 -0.2391
 8843TIP3    H147944   2.706   5.855   2.608  1.1150 -0.1284 -0.4587
 8843TIP3    H247945   2.709   5.785   2.742  0.3959 -0.3663 -0.5667
 8844TIP3   OH247946   5.448   1.434  12.679  0.6845  0.7016  0.3235
 8844TIP3    H147947   5.514   1.420  12.747  0.2871  0.1511  0.6056
 8844TIP3    H247948   5.441   1.529  12.672  1.1262  0.7650  0.6583
 8845TIP3   OH247949   3.549   4.011   5.104  0.5244 -0.1315 -0.3102
 8845TIP3    H147950   3.590   3.990   5.187 -2.3913 -1.6385  0.9109
 8845TIP3    H247951   3.602   3.966   5.038  1.9625 -0.2487  0.8806
 8846TIP3   OH247952   4.926   1.398   5.832 -0.2982  0.1057 -0.5212
 8846TIP3    H147953   4.904   1.401   5.739  1.9700  1.1230 -1.1075
 8846TIP3    H247954   4.999   1.460   5.841  0.1093 -0.6150  1.7625
 8847TIP3   OH247955   1.905   5.065  16.053  0.1387 -0.0996  0.0893
 8847TIP3    H147956   1.857   5.081  15.971 -1.5953  0.6261  1.1882
 8847TIP3    H247957   1.947   5.148  16.072  2.2604 -0.8382 -1.0644
 8848TIP3   OH247958   2.299   0.547  16.268 -0.1029 -0.1360  0.3339
 8848TIP3    H147959   2.354   0.621  16.241  0.8507 -1.2554 -0.9204
 8848TIP3    H247960   2.361   0.475  16.281 -0.9421 -0.5907  2.1327
 8849TIP3   OH247961   4.707   0.146   3.594 -0.9023 -0.4321  0.7188
 8849TIP3    H147962   4.619   0.182   3.596 -0.4507  0.9979 -1.4330
 8849TIP3    H247963   4.763   0.218   3.623 -0.1632  0.0086 -1.6047
 8850TIP3   OH247964   5.058   1.279   0.254  0.4804 -0.0288  0.0564
 8850TIP3    H147965   5.090   1.221   0.323 -1.6767 -1.1097  0.2461
 8850TIP3    H247966   5.124   1.275   0.186  1.2454 -1.2876  0.8359
 8851TIP3   OH247967   2.749   4.837   2.487 -0.2390 -0.4280  0.0645
 8851TIP3    H147968   2.732   4.931   2.483 -0.8593 -0.4301  1.7676
 8851TIP3    H247969   2.833   4.830   2.534 -0.9490 -0.7380  1.3358
 8852TIP3   OH247970   3.224   0.450  16.545  0.1565 -0.3053  0.1301
 8852TIP3    H147971   3.237   0.364  16.504 -1.2090 -0.6968  0.4816
 8852TIP3    H247972   3.130   0.456  16.561  0.1269  1.5160 -0.4234
 8853TIP3   OH247973   2.156   4.149  16.765 -0.0331 -0.0636 -0.0410
 8853TIP3    H147974   2.077   4.174  16.717  0.8128  0.5359 -1.1982
 8853TIP3    H247975   2.150   4.198  16.847 -1.3985 -0.9249  0.4114
 8854TIP3   OH247976   0.962   6.164  13.015  0.1602 -0.1473 -0.0740
 8854TIP3    H147977   0.970   6.204  13.101 -0.0102  1.5590 -0.8191
 8854TIP3    H247978   1.028   6.095  13.014  2.0722  1.5986  0.4669
 8855TIP3   OH247979   5.511   2.444  12.421  0.1919  0.3248 -0.0972
 8855TIP3    H147980   5.501   2.539  12.422 -2.5330  0.1420 -0.7345
 8855TIP3    H247981   5.509   2.421  12.328  0.5437 -0.3921  0.0674
 8856TIP3   OH247982   5.367   0.064   1.923  0.0602 -0.1366  0.2683
 8856TIP3    H147983   5.334   0.100   1.841  2.0200 -0.7245 -0.8589
 8856TIP3    H247984   5.317  -0.016   1.936  0.4500 -0.6094 -0.9615
 8857TIP3   OH247985   4.266   6.340  15.584  0.0042 -0.1080 -0.1142
 8857TIP3    H147986   4.281   6.302  15.671  0.9850 -0.0496 -0.2524
 8857TIP3    H247987   4.170   6.346  15.577 -0.0715  1.0127  1.4457
 8858TIP3   OH247988   1.391   0.453   4.203  0.2938 -0.2261  0.2838
 8858TIP3    H147989   1.323   0.512   4.235  0.0317  0.3675 -1.2907
 8858TIP3    H247990   1.401   0.388   4.273 -1.6316 -0.1182  0.7104
 8859TIP3   OH247991   2.095   6.174   3.602  0.4176  0.0529  0.4834
 8859TIP3    H147992   2.133   6.132   3.524  0.2312 -0.0059  0.4233
 8859TIP3    H247993   2.169   6.217   3.644  0.8938 -1.5168  1.3269
 8860TIP3   OH247994   1.947   4.790  17.617 -0.3994 -0.6703  0.1263
 8860TIP3    H147995   2.007   4.858  17.647  1.1412 -1.7420 -0.3897
 8860TIP3    H247996   1.931   4.811  17.525  0.0422 -0.9612 -0.0212
 8861TIP3   OH247997   1.436   6.582  12.106  0.3952 -0.2038 -0.2467
 8861TIP3    H147998   1.525   6.588  12.140 -0.2142  1.6753  1.1520
 8861TIP3    H247999   1.446   6.595  12.011  1.5598  0.4128 -0.0592
 8862TIP3   OH248000   1.813   2.183   5.793 -0.1595  0.4875  0.3864
 8862TIP3    H148001   1.833   2.096   5.830 -1.0731  0.4064  0.7244
 8862TIP3    H248002   1.737   2.213   5.843 -0.7304  0.8694 -0.6868
 8863TIP3   OH248003   1.499   5.808  17.476 -0.0946  0.2629 -0.3874
 8863TIP3    H148004   1.543   5.868  17.536  1.6760  1.1686 -2.4789
 8863TIP3    H248005   1.420   5.782  17.523  1.4502  0.4466  2.5655
 8864TIP3   OH248006   1.494   0.416  16.716  0.3883 -0.1679  0.1830
 8864TIP3    H148007   1.433   0.343  16.725 -0.6562  0.0510 -3.4987
 8864TIP3    H248008   1.446   0.493  16.746 -0.2471 -0.3483 -0.3597
 8865TIP3   OH248009   0.629   5.171   1.114 -0.4335  0.0936 -0.2013
 8865TIP3    H148010   0.662   5.103   1.172 -1.3758 -1.1482 -1.0671
 8865TIP3    H248011   0.572   5.125   1.052  0.2244  1.4035 -1.8807
 8866TIP3   OH248012   1.688   4.038  14.672  0.1992 -0.1812 -0.4170
 8866TIP3    H148013   1.707   3.991  14.591 -1.3837 -1.2660 -0.2125
 8866TIP3    H248014   1.667   3.969  14.735  4.2986  0.3574  1.9149
 8867TIP3   OH248015   5.846   5.593   2.938  0.2229  0.2046  0.5476
 8867TIP3    H148016   5.925   5.551   2.971 -0.2683 -0.1813  1.2490
 8867TIP3    H248017   5.776   5.561   2.994 -0.1974  1.8629  1.0274
 8868TIP3   OH248018   6.051   5.273  12.659  0.7258 -0.6060 -0.0490
 8868TIP3    H148019   5.960   5.302  12.658  0.4995 -1.3237 -0.6893
 8868TIP3    H248020   6.092   5.318  12.585  1.3036  0.9421  1.1527
 8869TIP3   OH248021   5.455   6.421   0.010 -0.2630  0.4544  0.5212
 8869TIP3    H148022   5.522   6.391   0.071  2.0893 -0.8708 -2.4211
 8869TIP3    H248023   5.387   6.354   0.013 -0.7122  0.9515  2.3376
 8870TIP3   OH248024   4.358   1.174   3.721 -0.5247  0.0394  0.3539
 8870TIP3    H148025   4.339   1.195   3.630  0.4081 -0.1014  0.1215
 8870TIP3    H248026   4.404   1.251   3.754  1.9575 -1.1134 -0.1979
 8871TIP3   OH248027   2.750   4.016   2.614 -0.0453  0.3219  0.2581
 8871TIP3    H148028   2.675   3.962   2.592 -0.2458  0.8406 -0.3597
 8871TIP3    H248029   2.738   4.097   2.563  1.2826  0.1316 -0.4084
 8872TIP3   OH248030   2.760   2.450   1.618  0.2887  0.3551 -0.0334
 8872TIP3    H148031   2.768   2.508   1.693 -1.0989  0.6046 -0.0623
 8872TIP3    H248032   2.666   2.445   1.601  0.4428 -1.2927 -0.5116
 8873TIP3   OH248033   0.614   1.541  15.660 -0.0338  0.0107 -0.0178
 8873TIP3    H148034   0.698   1.582  15.679  0.2577 -0.8670  0.6550
 8873TIP3    H248035   0.624   1.505  15.572  0.6243 -0.8908  0.4147
 8874TIP3   OH248036   0.631   3.259  13.616 -0.1041 -0.4017  0.3514
 8874TIP3    H148037   0.710   3.206  13.602  0.0037 -0.4066  0.9575
 8874TIP3    H248038   0.565   3.219  13.559  0.3762 -0.2809 -0.3115
 8875TIP3   OH248039   3.398   1.858  16.568 -0.3580  0.1678 -0.2352
 8875TIP3    H148040   3.372   1.808  16.491 -2.2589 -1.7383  1.5116
 8875TIP3    H248041   3.489   1.882  16.551 -0.4718 -0.8207 -2.7153
 8876TIP3   OH248042   5.739   6.681  13.976  0.4392  0.1868 -0.5928
 8876TIP3    H148043   5.832   6.698  13.992  0.7781 -0.5530 -1.6601
 8876TIP3    H248044   5.735   6.655  13.884 -1.2407  3.2958 -1.5518
 8877TIP3   OH248045   2.733   3.072  13.538 -0.2496  0.4460  0.7955
 8877TIP3    H148046   2.817   3.030  13.520 -0.9317 -0.3999 -0.5985
 8877TIP3    H248047   2.730   3.081  13.634  1.1275 -0.1200  0.9071
 8878TIP3   OH248048   5.198   1.772   1.227  0.3802  0.4306  0.0335
 8878TIP3    H148049   5.275   1.761   1.172 -0.2000 -0.4471 -0.6394
 8878TIP3    H248050   5.230   1.815   1.306  2.1690 -2.5810  1.1030
 8879TIP3   OH248051   0.717   3.796   1.972  0.2412  0.4943  0.5901
 8879TIP3    H148052   0.630   3.836   1.971  0.2519  0.5177  0.6495
 8879TIP3    H248053   0.777   3.867   1.948 -0.0784 -0.2502 -3.1179
 8880TIP3   OH248054   5.943   4.970  16.769  0.3842 -0.3598  0.1658
 8880TIP3    H148055   6.033   4.937  16.765  0.6461  0.3023  0.3883
 8880TIP3    H248056   5.904   4.947  16.685  0.9158 -0.2282 -0.1161
 8881TIP3   OH248057   6.012   6.485  15.513  0.3204  0.4473 -0.3186
 8881TIP3    H148058   6.033   6.573  15.482 -1.0604  0.5433 -1.0485
 8881TIP3    H248059   6.039   6.485  15.605  0.0413  1.7365 -0.2137
 8882TIP3   OH248060   4.869   1.433   4.344 -0.0286 -0.2975  0.2242
 8882TIP3    H148061   4.839   1.480   4.267  0.9670  0.1360  0.0808
 8882TIP3    H248062   4.950   1.389   4.316 -0.0953 -0.7973  0.7914
 8883TIP3   OH248063   5.284   4.459   2.303  0.1183  0.6002 -0.0910
 8883TIP3    H148064   5.196   4.439   2.270 -0.1231  1.1811  0.1815
 8883TIP3    H248065   5.330   4.375   2.302  0.3154  0.6783 -2.4117
 8884TIP3   OH248066   0.877   4.682  14.966  0.0409 -0.3399 -0.6322
 8884TIP3    H148067   0.787   4.703  14.940  0.1002  0.3742 -0.2851
 8884TIP3    H248068   0.887   4.723  15.052  0.6279 -0.6075 -0.5687
 8885TIP3   OH248069   2.659   6.588  16.787 -0.4569 -0.0637  0.4724
 8885TIP3    H148070   2.748   6.569  16.759 -0.6216 -1.4780  0.8197
 8885TIP3    H248071   2.609   6.598  16.706 -0.1788 -0.2757  0.2729
 8886TIP3   OH248072   5.229   1.613   2.416  0.1150 -0.6568  0.3562
 8886TIP3    H148073   5.192   1.541   2.466 -0.1026  0.3266  1.6712
 8886TIP3    H248074   5.289   1.657   2.477 -2.3005  2.3197  0.8145
 8887TIP3   OH248075   1.693   3.191  13.750  0.6200 -0.1520  0.3339
 8887TIP3    H148076   1.676   3.255  13.682  0.6670  0.6259  1.0353
 8887TIP3    H248077   1.627   3.123  13.738  0.4425  0.1326 -0.2884
 8888TIP3   OH248078   0.292   1.218   0.852  0.2553  0.0551  0.4606
 8888TIP3    H148079   0.249   1.301   0.867 -1.5972 -0.5152 -1.2406
 8888TIP3    H248080   0.239   1.153   0.899 -0.2404 -0.5254 -0.8318
 8889TIP3   OH248081   1.789   5.094   2.042  0.2300  0.3656 -0.4520
 8889TIP3    H148082   1.819   5.179   2.011  1.3797  0.2076  0.1724
 8889TIP3    H248083   1.696   5.091   2.019  0.2297  1.6909 -0.6736
 8890TIP3   OH248084   4.773   3.871  13.888  0.4535 -0.0761 -0.4085
 8890TIP3    H148085   4.703   3.926  13.924  1.2119  0.2123  0.6626
 8890TIP3    H248086   4.765   3.788  13.936  1.3910  0.2665  0.3708
 8891TIP3   OH248087   5.602   5.905   6.474  0.1250 -0.0464 -0.2451
 8891TIP3    H148088   5.665   5.871   6.537  1.3145 -0.1453 -1.4416
 8891TIP3    H248089   5.655   5.947   6.407 -1.1401  0.7208 -0.8015
 8892TIP3   OH248090   5.173   2.490   4.778  0.0267  0.3251  0.0823
 8892TIP3    H148091   5.105   2.541   4.734  0.3885  0.9630  0.2367
 8892TIP3    H248092   5.167   2.403   4.740 -0.1760  0.6599 -0.6709
 8893TIP3   OH248093   0.530   4.828  13.177 -0.3517 -0.2413  0.1667
 8893TIP3    H148094   0.466   4.871  13.120  0.6922  1.1168 -0.0551
 8893TIP3    H248095   0.485   4.750  13.210 -2.1796  0.7671  0.2053
 8894TIP3   OH248096   6.149   5.162   5.328  0.6668  0.4591 -0.1777
 8894TIP3    H148097   6.208   5.159   5.403  0.2267  1.5489  0.2366
 8894TIP3    H248098   6.074   5.214   5.358 -0.7180 -1.2242 -0.5506
 8895TIP3   OH248099   2.824   5.217  13.096 -0.2438 -0.4618  0.5028
 8895TIP3    H148100   2.763   5.217  13.022 -0.1706 -2.0226  0.4044
 8895TIP3    H248101   2.832   5.124  13.120 -0.7040  0.0525  2.8274
 8896TIP3   OH248102   0.591   1.302   2.953  0.5855  0.4167  0.0400
 8896TIP3    H148103   0.654   1.372   2.968  1.7319 -0.5701 -0.0528
 8896TIP3    H248104   0.622   1.257   2.875 -1.1485  0.8838 -0.9739
 8897TIP3   OH248105   0.507   2.979  16.430  0.0029 -0.7206 -0.5524
 8897TIP3    H148106   0.493   2.900  16.377  1.5812 -0.4525 -1.4256
 8897TIP3    H248107   0.556   2.948  16.507  1.8807 -0.4234 -1.5814
 8898TIP3   OH248108   2.793   2.780  15.735 -0.2814  0.7401 -0.1655
 8898TIP3    H148109   2.739   2.704  15.713  0.6515  0.4246 -1.5096
 8898TIP3    H248110   2.867   2.775  15.675  2.2153  0.1755  2.6957
 8899TIP3   OH248111   4.188   6.300  17.260 -0.1566  0.2025 -0.0906
 8899TIP3    H148112   4.171   6.329  17.170 -0.5122 -0.1612 -0.1404
 8899TIP3    H248113   4.270   6.344  17.284 -1.6036  2.7484  0.5113
 8900TIP3   OH248114   0.784   5.953   4.677  0.1761 -0.2471 -0.3287
 8900TIP3    H148115   0.826   6.036   4.658  1.4902 -0.7043  0.3836
 8900TIP3    H248116   0.692   5.966   4.654  0.4333  1.2553 -0.6109
 8901TIP3   OH248117   2.208   4.128  11.314 -0.3223  0.2327  0.1960
 8901TIP3    H148118   2.209   4.075  11.393 -0.1233  0.6718  0.4965
 8901TIP3    H248119   2.268   4.083  11.255 -0.9047 -0.4064  0.0782
 8902TIP3   OH248120   4.096   4.242   0.128 -0.1436  0.5441  0.4920
 8902TIP3    H148121   4.036   4.271   0.060 -1.0550  0.8298  1.3964
 8902TIP3    H248122   4.154   4.317   0.144 -0.1691  0.6050  0.2927
 8903TIP3   OH248123   5.902   3.850   1.566 -0.0094  0.5483 -0.1639
 8903TIP3    H148124   5.930   3.941   1.563  1.2623  0.2001  0.4831
 8903TIP3    H248125   5.870   3.832   1.477  2.3340  0.8650 -1.1455
 8904TIP3   OH248126   1.291   5.661  13.640  0.1409 -0.2060  0.1714
 8904TIP3    H148127   1.338   5.701  13.567  0.9664 -0.1389  0.7141
 8904TIP3    H248128   1.361   5.623  13.695 -0.4430 -0.0840  1.0186
 8905TIP3   OH248129   4.788   6.276   4.047 -0.4793  0.0513  0.7694
 8905TIP3    H148130   4.723   6.341   4.022 -0.1711 -0.3893 -1.3978
 8905TIP3    H248131   4.869   6.305   4.006  0.3501 -0.2143  2.1575
 8906TIP3   OH248132   3.853   0.633  12.944  0.2956 -0.7194  0.2550
 8906TIP3    H148133   3.871   0.547  12.983  1.6360 -0.5844 -0.0007
 8906TIP3    H248134   3.809   0.612  12.861  1.2905 -1.2308 -0.1745
 8907TIP3   OH248135   5.477   3.093  17.413  0.3609  0.5723 -0.3688
 8907TIP3    H148136   5.461   3.186  17.427  0.6262  0.8383 -1.6906
 8907TIP3    H248137   5.414   3.049  17.470 -1.4484  1.5611 -1.5034
 8908TIP3   OH248138   3.772   2.790   0.534  0.0022 -0.5214  0.3049
 8908TIP3    H148139   3.711   2.853   0.495 -1.1030 -1.2543  0.7736
 8908TIP3    H248140   3.717   2.714   0.554  1.3691 -1.8122 -0.6163
 8909TIP3   OH248141   1.041   0.702   6.076 -0.0186 -0.1150 -0.1984
 8909TIP3    H148142   1.028   0.755   6.154 -0.2047  0.6574 -0.7381
 8909TIP3    H248143   0.972   0.635   6.081 -0.1919  0.0896  0.1717
 8910TIP3   OH248144   4.036   3.395   5.122  0.3774  0.1653 -0.1100
 8910TIP3    H148145   4.004   3.305   5.114 -0.6408  0.4598  0.5155
 8910TIP3    H248146   4.124   3.385   5.158 -0.3000 -0.5486  1.4599
 8911TIP3   OH248147   0.813   0.761   5.053 -0.0515 -0.2057 -0.1675
 8911TIP3    H148148   0.777   0.827   4.993 -0.4256 -0.0907  0.1810
 8911TIP3    H248149   0.908   0.771   5.044 -0.0721 -0.9483 -1.5755
 8912TIP3   OH248150   0.867   2.154   2.037 -0.5970  0.1415 -0.0840
 8912TIP3    H148151   0.802   2.136   2.106  0.0390  0.5588  0.6423
 8912TIP3    H248152   0.843   2.240   2.003 -0.9129 -0.0659 -0.3953
 8913TIP3   OH248153   2.873   2.627   3.314  0.2456 -0.2514  0.0068
 8913TIP3    H148154   2.942   2.610   3.250  0.8935 -1.8488  1.0425
 8913TIP3    H248155   2.793   2.638   3.262  1.0403  0.2376 -1.1455
 8914TIP3   OH248156   0.140   4.073  13.623 -0.4678 -0.1454  0.2270
 8914TIP3    H148157   0.225   4.027  13.623 -0.9992 -1.1641 -0.4951
 8914TIP3    H248158   0.143   4.127  13.544 -0.6009 -0.3857  0.0582
 8915TIP3   OH248159   3.814   0.828  14.078 -0.6711 -0.5840 -0.1150
 8915TIP3    H148160   3.858   0.747  14.052 -1.4645 -0.7614 -0.9591
 8915TIP3    H248161   3.769   0.857  13.999  2.2843  2.5233 -0.8707
 8916TIP3   OH248162   5.628   4.184  11.812  0.4859 -0.5335  0.0747
 8916TIP3    H148163   5.661   4.222  11.894  0.2021  0.6662 -0.3461
 8916TIP3    H248164   5.680   4.228  11.744 -1.0413  0.4104 -0.5238
 8917TIP3   OH248165   0.573   1.002  14.538  0.2515 -0.1905 -0.7192
 8917TIP3    H148166   0.513   0.975  14.607  0.3327  0.6765 -0.2845
 8917TIP3    H248167   0.621   1.076  14.577  1.3156 -0.6127 -1.1941
 8918TIP3   OH248168   3.656   6.045   4.531 -0.1530  0.9596 -0.4597
 8918TIP3    H148169   3.683   5.958   4.503  1.0350  0.6016  1.6044
 8918TIP3    H248170   3.562   6.038   4.547  0.0391 -0.1149  0.2611
 8919TIP3   OH248171   4.834   0.588   6.580  0.1863 -0.6131 -0.0401
 8919TIP3    H148172   4.781   0.543   6.514  0.0581 -0.7429  0.1505
 8919TIP3    H248173   4.771   0.639   6.630  0.4665  0.7418 -1.0116
 8920TIP3   OH248174   4.158   6.262  14.450  0.1302 -0.3648 -0.3966
 8920TIP3    H148175   4.099   6.326  14.490  1.4913  0.6125  0.1070
 8920TIP3    H248176   4.113   6.236  14.369 -0.9921  0.3372 -0.0219
 8921TIP3   OH248177   1.833   4.898  11.942  0.1921 -0.1362  0.0025
 8921TIP3    H148178   1.759   4.853  11.981 -0.0588 -0.0512 -0.3710
 8921TIP3    H248179   1.895   4.828  11.921 -0.7833 -0.5039 -1.8713
 8922TIP3   OH248180   6.503   0.499   0.839  0.4314 -0.3937 -0.1182
 8922TIP3    H148181   6.570   0.563   0.863 -0.9258  0.8827  0.4223
 8922TIP3    H248182   6.459   0.479   0.922 -1.6903  0.9955 -0.8141
 8923TIP3   OH248183   3.133   4.445  15.995 -0.0207 -0.2137 -0.2829
 8923TIP3    H148184   3.114   4.465  16.087  0.9432  1.5224 -0.4304
 8923TIP3    H248185   3.056   4.475  15.947 -0.6525 -1.3909 -0.0420
 8924TIP3   OH248186   0.666   4.994   6.024 -0.2359  0.2532  0.6826
 8924TIP3    H148187   0.747   4.966   5.980 -0.6800 -0.2867  0.1928
 8924TIP3    H248188   0.604   4.923   6.007 -1.1190  1.1285  0.2027
 8925TIP3   OH248189   1.234   1.935   4.339  0.0252 -0.2492 -0.4326
 8925TIP3    H148190   1.240   1.846   4.374 -2.0772 -0.6708 -1.0198
 8925TIP3    H248191   1.218   1.990   4.415 -1.8861 -0.8220 -0.3872
 8926TIP3   OH248192   4.063   3.191   6.368 -0.0072  0.2039 -0.0130
 8926TIP3    H148193   4.008   3.124   6.408  1.5981 -2.1622 -1.4542
 8926TIP3    H248194   4.093   3.246   6.441 -1.0893 -0.8888  1.2880
 8927TIP3   OH248195   2.399   0.986   6.702 -0.6335 -0.2354 -0.2339
 8927TIP3    H148196   2.454   1.063   6.717 -2.1782  0.6905  1.0661
 8927TIP3    H248197   2.327   0.996   6.763 -2.3303 -1.3228 -1.9376
 8928TIP3   OH248198   0.535   5.414   1.120 -0.2154 -0.5450 -0.1125
 8928TIP3    H148199   0.548   5.426   1.214  4.0330 -0.3794 -0.5322
 8928TIP3    H248200   0.565   5.325   1.102 -1.7783 -0.8909 -1.2685
 8929TIP3   OH248201   1.030   3.084   0.193  0.2149  0.3645 -0.4256
 8929TIP3    H148202   0.947   3.105   0.150 -0.1892  1.1444  0.7109
 8929TIP3    H248203   1.049   2.994   0.165 -1.6002 -0.2631  0.2133
 8930TIP3   OH248204   3.817   5.564   5.684  0.3763 -0.2150 -0.0220
 8930TIP3    H148205   3.825   5.618   5.606  0.8122 -2.0364 -1.3084
 8930TIP3    H248206   3.895   5.509   5.683 -0.5558 -1.5994  0.6138
 8931TIP3   OH248207   1.743   1.439   2.382 -0.5307 -0.2342 -0.3355
 8931TIP3    H148208   1.688   1.414   2.457 -0.4694 -1.2127 -0.6083
 8931TIP3    H248209   1.715   1.382   2.311 -0.2166  0.3204 -0.9187
 8932TIP3   OH248210   6.544   4.170  17.042 -0.3451 -0.4288 -0.1121
 8932TIP3    H148211   6.573   4.191  16.953  2.1859  1.5213  1.0317
 8932TIP3    H248212   6.477   4.236  17.062  1.1128  0.9917  0.3274
 8933TIP3   OH248213   5.632   6.673  12.510  0.0006 -0.3110  0.1239
 8933TIP3    H148214   5.715   6.659  12.463  0.0379 -2.4661  0.6945
 8933TIP3    H248215   5.574   6.605  12.476 -1.8437  1.6467 -0.8140
 8934TIP3   OH248216   0.298   3.957   6.944  0.0751 -0.5545 -0.3173
 8934TIP3    H148217   0.219   4.008   6.961 -0.0303 -0.9869  0.5434
 8934TIP3    H248218   0.282   3.872   6.986  1.0075 -0.6363 -0.0925
 8935TIP3   OH248219   3.842   4.945  16.122  0.1683  0.0899  0.2455
 8935TIP3    H148220   3.890   4.870  16.156 -1.3399 -1.3172 -0.5856
 8935TIP3    H248221   3.751   4.930  16.150  0.0318  2.3465  1.2664
 8936TIP3   OH248222   6.306   5.109   5.563 -0.4138 -0.3679  0.2961
 8936TIP3    H148223   6.285   5.168   5.636 -0.0386  0.9269 -0.6204
 8936TIP3    H248224   6.395   5.132   5.538 -0.1012 -1.6365  0.1910
 8937TIP3   OH248225   2.561   4.516   0.132 -0.2417 -0.6649 -0.1066
 8937TIP3    H148226   2.634   4.524   0.193  0.1437  1.1174 -0.7453
 8937TIP3    H248227   2.602   4.512   0.046 -0.8752  0.2036 -0.4633
 8938TIP3   OH248228   0.502   0.208  12.736  0.1094  0.6663  0.0364
 8938TIP3    H148229   0.451   0.148  12.682 -0.2080  1.5475 -0.6602
 8938TIP3    H248230   0.440   0.236  12.804 -0.0651  1.0022 -0.2542
 8939TIP3   OH248231   4.964   6.531  13.464  0.1799  0.1126  0.9535
 8939TIP3    H148232   4.923   6.593  13.525  1.0475 -0.7926  2.5249
 8939TIP3    H248233   4.904   6.528  13.389  0.6318  3.7034  0.2297
 8940TIP3   OH248234   2.645   4.772  13.452 -0.0598  0.2749  0.2393
 8940TIP3    H148235   2.576   4.794  13.389  0.3219 -1.6460 -0.9341
 8940TIP3    H248236   2.644   4.677  13.457  1.6898  0.2582  1.1339
 8941TIP3   OH248237   4.961   1.877   5.413  0.0363  0.4069 -0.4284
 8941TIP3    H148238   5.004   1.870   5.328  1.3801  1.4054  0.1360
 8941TIP3    H248239   4.867   1.882   5.392  0.2678 -0.4055 -1.7662
 8942TIP3   OH248240   5.384   1.197  10.721  0.1726 -0.8364  0.6413
 8942TIP3    H148241   5.417   1.111  10.696  2.7724  0.7979 -2.1108
 8942TIP3    H248242   5.459   1.241  10.762 -0.2593  0.9862 -0.3947
 8943TIP3   OH248243   1.160   0.761  13.338 -0.0224 -0.2021 -0.4946
 8943TIP3    H148244   1.115   0.843  13.319  0.7908  0.3605 -0.0643
 8943TIP3    H248245   1.207   0.777  13.420  0.8733 -0.7868 -0.8661
 8944TIP3   OH248246   1.622   1.438   4.899 -0.2059  0.2694 -0.4775
 8944TIP3    H148247   1.573   1.418   4.819  1.3592 -0.1804 -1.3683
 8944TIP3    H248248   1.663   1.355   4.923 -1.7403  0.0416  1.6326
 8945TIP3   OH248249   3.707   3.916   3.464 -0.1900 -0.5943  0.1778
 8945TIP3    H148250   3.752   3.998   3.486  0.6880 -0.6803 -1.1734
 8945TIP3    H248251   3.664   3.890   3.545  0.5845  0.5243  0.9840
 8946TIP3   OH248252   2.851   6.166  11.852  0.5534 -0.8073  0.5898
 8946TIP3    H148253   2.855   6.071  11.838  0.7539 -0.9727  1.7366
 8946TIP3    H248254   2.931   6.187  11.899  0.2605 -0.1424  0.7957
 8947TIP3   OH248255   1.449   4.601  12.095 -0.1681 -0.0478 -0.4267
 8947TIP3    H148256   1.357   4.604  12.070 -0.1611  2.0671 -0.3452
 8947TIP3    H248257   1.458   4.665  12.165  0.9614 -1.7821  1.1210
 8948TIP3   OH248258   5.219   5.569  13.500 -0.0740 -0.4178  0.1859
 8948TIP3    H148259   5.257   5.556  13.586  2.7925 -0.4470 -0.9842
 8948TIP3    H248260   5.154   5.500  13.491 -1.9618  0.8207  3.0329
 8949TIP3   OH248261   4.172   6.182  14.769  0.0037  0.4085  0.4783
 8949TIP3    H148262   4.176   6.210  14.677 -0.2373 -1.1610 -0.0400
 8949TIP3    H248263   4.249   6.222  14.809  1.6762 -1.0477 -1.0763
 8950TIP3   OH248264   2.228   3.197   4.960  0.2068  0.0760  0.0098
 8950TIP3    H148265   2.310   3.196   4.910  1.6145 -0.9055  2.1916
 8950TIP3    H248266   2.205   3.104   4.968  0.1351  0.2027  1.3533
 8951TIP3   OH248267   1.320   3.041   6.599  0.0852 -0.4957  0.8594
 8951TIP3    H148268   1.255   3.005   6.659  0.3342 -0.9002  0.8845
 8951TIP3    H248269   1.336   3.130   6.633 -2.0926  0.4789 -0.4161
 8952TIP3   OH248270   1.498   1.805   0.252  0.2172 -0.3868  0.0347
 8952TIP3    H148271   1.415   1.759   0.264  0.6249 -1.4595 -0.9766
 8952TIP3    H248272   1.565   1.741   0.277  0.7818 -0.1086 -0.7250
 8953TIP3   OH248273   3.520   3.387  14.401  0.0512  0.1522  0.1255
 8953TIP3    H148274   3.451   3.321  14.403  1.1735 -1.0299  1.0410
 8953TIP3    H248275   3.495   3.445  14.329 -1.7401 -0.3972  0.2493
 8954TIP3   OH248276   4.890   0.506   1.519  0.0277 -0.4558 -0.4436
 8954TIP3    H148277   4.984   0.504   1.500  0.5875  2.4874  1.2323
 8954TIP3    H248278   4.848   0.511   1.434  1.5387 -0.1066 -1.2081
 8955TIP3   OH248279   5.773   4.628  15.984 -0.1619  0.3921 -0.0398
 8955TIP3    H148280   5.786   4.563  15.915  0.5638  1.9292 -1.4183
 8955TIP3    H248281   5.852   4.622  16.038 -0.6468 -0.6836  0.5753
 8956TIP3   OH248282   4.748   5.061  14.683  0.2664 -0.0145 -0.1731
 8956TIP3    H148283   4.675   5.076  14.623  1.6603 -0.8996 -2.1953
 8956TIP3    H248284   4.814   5.127  14.658  0.9512 -0.5243  0.2452
 8957TIP3   OH248285   1.474   2.023  12.302  0.2690 -0.1622 -0.3223
 8957TIP3    H148286   1.567   2.019  12.281  0.6495  1.9090  0.6605
 8957TIP3    H248287   1.437   2.080  12.233 -0.1108 -0.3141 -0.2447
 8958TIP3   OH248288   2.115   2.496   4.125  0.1154  0.2267  0.1448
 8958TIP3    H148289   2.176   2.561   4.161 -0.4677  0.6807  0.3386
 8958TIP3    H248290   2.062   2.469   4.200  1.0826 -1.3359  0.3121
 8959TIP3   OH248291   1.577   0.243   0.926  0.3037  0.2124 -0.0550
 8959TIP3    H148292   1.632   0.276   0.997 -0.6988  1.5567  0.1349
 8959TIP3    H248293   1.502   0.302   0.925 -0.7797 -1.1316 -0.7907
 8960TIP3   OH248294   5.770   1.796   3.797  0.4281  0.1468 -0.4597
 8960TIP3    H148295   5.684   1.790   3.755  0.1410  0.6124  0.0472
 8960TIP3    H248296   5.798   1.886   3.782  0.1438  0.4307  0.6816
 8961TIP3   OH248297   3.760   5.196  16.030 -0.2827 -0.1010 -0.1854
 8961TIP3    H148298   3.668   5.182  16.050 -0.4633 -1.7848 -1.8942
 8961TIP3    H248299   3.800   5.110  16.037  0.5844  0.0960 -2.0001
 8962TIP3   OH248300   0.712   5.341   6.695 -0.0858  0.7711 -0.0880
 8962TIP3    H148301   0.725   5.257   6.652  0.1273  1.1256 -0.7347
 8962TIP3    H248302   0.799   5.379   6.701 -0.1667  0.8955  0.3016
 8963TIP3   OH248303   3.392   4.570   2.674  0.3769 -0.0550  0.2944
 8963TIP3    H148304   3.456   4.594   2.741  0.3425 -0.2066  0.3817
 8963TIP3    H248305   3.332   4.510   2.718  0.6937 -0.6190 -0.0326
 8964TIP3   OH248306   4.775   3.798  12.363 -0.5615  0.4860 -0.1119
 8964TIP3    H148307   4.744   3.731  12.303  0.1466 -0.3957  0.4729
 8964TIP3    H248308   4.705   3.809  12.427 -0.2313 -0.5498  0.4525
 8965TIP3   OH248309   4.999   4.480   6.198  0.3086 -0.3569 -0.7270
 8965TIP3    H148310   4.928   4.441   6.250  1.9741 -2.1254  0.3690
 8965TIP3    H248311   5.005   4.426   6.120  1.1316 -0.8866 -0.3051
 8966TIP3   OH248312   0.679   4.896   3.363  0.1848  0.6850  0.7437
 8966TIP3    H148313   0.639   4.941   3.288 -0.5796  1.2730  1.4881
 8966TIP3    H248314   0.662   4.954   3.437  1.7859  0.5811  1.2226
 8967TIP3   OH248315   4.212   4.826   6.456  0.0082 -0.0647 -0.0483
 8967TIP3    H148316   4.128   4.866   6.478  0.0254 -0.6769  1.2701
 8967TIP3    H248317   4.277   4.896   6.472 -0.0545 -0.2761  1.2119
 8968TIP3   OH248318   2.194   5.426   6.151 -0.6018  0.1871  0.1548
 8968TIP3    H148319   2.260   5.372   6.107 -2.8389 -2.0298 -0.6880
 8968TIP3    H248320   2.245   5.483   6.209  1.9627 -2.8378  1.1620
 8969TIP3   OH248321   1.320   3.745  14.490  0.0203 -0.0326  0.1151
 8969TIP3    H148322   1.238   3.719  14.448 -0.7763  2.1459  0.2031
 8969TIP3    H248323   1.345   3.826  14.445  0.8410  0.6277  1.6999
 8970TIP3   OH248324   3.690   2.782  12.266 -0.0877 -0.4161  0.2007
 8970TIP3    H148325   3.767   2.791  12.209  0.2257 -0.6390  0.5896
 8970TIP3    H248326   3.691   2.691  12.295 -2.1806 -1.3352 -2.1775
 8971TIP3   OH248327   5.947   1.455   0.496  0.4974  0.3426 -0.0949
 8971TIP3    H148328   5.945   1.522   0.427  2.2833  1.6248  0.9954
 8971TIP3    H248329   5.957   1.372   0.449 -2.5455  0.6310 -1.5344
 8972TIP3   OH248330   5.829   6.683  16.988  0.5752  0.4134 -0.0310
 8972TIP3    H148331   5.767   6.732  16.934 -1.1367 -3.2729 -1.7340
 8972TIP3    H248332   5.783   6.671  17.071  0.0479 -0.1184 -0.3905
 8973TIP3   OH248333   5.241   1.641  14.948 -0.3032  0.0531 -0.1276
 8973TIP3    H148334   5.262   1.555  14.912 -1.1517  0.1330 -0.8430
 8973TIP3    H248335   5.304   1.700  14.905  2.2821 -0.5359  2.5196
 8974TIP3   OH248336   3.081   3.703   4.239  0.5646  0.1679  0.6694
 8974TIP3    H148337   3.051   3.707   4.330  0.3628  0.0921  0.6066
 8974TIP3    H248338   3.171   3.733   4.242  1.4302 -2.2391  1.2857
 8975TIP3   OH248339   3.510   2.859   3.199  0.1540 -0.3010 -0.6714
 8975TIP3    H148340   3.432   2.844   3.252  0.1310 -1.5329 -1.0076
 8975TIP3    H248341   3.482   2.918   3.130  0.0062  0.7547  0.2644
 8976TIP3   OH248342   5.269   3.216  11.483 -0.2883  0.1072  0.2447
 8976TIP3    H148343   5.186   3.173  11.505 -0.2703  0.3914  0.9077
 8976TIP3    H248344   5.294   3.179  11.398 -2.1551  1.5623 -1.0081
 8977TIP3   OH248345   5.552   4.541   0.104  0.2214 -0.1625 -0.2700
 8977TIP3    H148346   5.558   4.603   0.031  2.8698  1.1456  0.8989
 8977TIP3    H248347   5.641   4.538   0.139 -0.4312 -2.6238  1.4197
 8978TIP3   OH248348   5.060   5.573  15.483 -0.0230  0.3624  0.0173
 8978TIP3    H148349   4.982   5.524  15.459  0.7273 -0.8782  0.0774
 8978TIP3    H248350   5.084   5.621  15.404  0.7134 -1.3800 -0.8607
 8979TIP3   OH248351   4.318   5.696   1.885  0.0386  0.2312  0.6268
 8979TIP3    H148352   4.288   5.761   1.949  0.9721  0.5484  0.7585
 8979TIP3    H248353   4.241   5.679   1.830 -0.2490  1.3698  0.6525
 8980TIP3   OH248354   6.149   1.276   4.267  0.5415 -0.1757 -0.4464
 8980TIP3    H148355   6.233   1.240   4.295 -0.6566 -2.1918  0.7851
 8980TIP3    H248356   6.158   1.287   4.172  1.4274 -2.6578 -0.7293
 8981TIP3   OH248357   3.478   4.802   5.515 -0.3753  0.3894 -0.6057
 8981TIP3    H148358   3.422   4.877   5.536 -0.5855  0.3452 -0.9975
 8981TIP3    H248359   3.510   4.820   5.427 -2.9171 -1.4417 -2.0145
 8982TIP3   OH248360   1.153   1.890   1.312  0.1791 -0.2934  0.3453
 8982TIP3    H148361   1.119   1.834   1.243  0.6776 -0.8315  0.5287
 8982TIP3    H248362   1.244   1.863   1.323 -0.1821 -0.9527  1.9407
 8983TIP3   OH248363   4.214   4.727   5.961  0.1407  0.1419  0.1415
 8983TIP3    H148364   4.228   4.729   6.056 -0.0730  0.5201  0.1656
 8983TIP3    H248365   4.153   4.799   5.944  0.6774  0.4811 -0.3662
 8984TIP3   OH248366   2.579   6.326  15.439  0.5311 -0.1489 -0.1589
 8984TIP3    H148367   2.628   6.367  15.510 -0.8695  1.3834 -0.0275
 8984TIP3    H248368   2.497   6.297  15.480 -0.7096  1.5865 -1.2506
 8985TIP3   OH248369   2.827   0.010  12.471  0.4100 -0.3541 -0.0170
 8985TIP3    H148370   2.850  -0.036  12.390 -1.5408 -0.3425 -0.6372
 8985TIP3    H248371   2.791   0.094  12.441  0.5436  0.0428  0.9110
 8986TIP3   OH248372   2.201   2.643   0.595 -0.6863 -0.4749 -0.1193
 8986TIP3    H148373   2.143   2.695   0.650 -1.4666 -0.7869 -0.6438
 8986TIP3    H248374   2.221   2.700   0.521 -0.5596 -0.4817 -0.0919
 8987TIP3   OH248375   5.920   5.470   0.755 -0.2113  0.2932 -0.2900
 8987TIP3    H148376   5.943   5.532   0.686 -0.6286  0.9004  0.1124
 8987TIP3    H248377   6.001   5.421   0.770  0.2374  1.0027 -0.3389
 8988TIP3   OH248378   5.043   3.475   1.929 -0.2269  0.0598  0.0828
 8988TIP3    H148379   5.059   3.380   1.935 -1.0407 -0.0694  0.3778
 8988TIP3    H248380   5.031   3.491   1.836 -0.7137 -0.2380  0.0932
 8989TIP3   OH248381   3.166   6.135   2.312  0.7337  0.1062 -0.1589
 8989TIP3    H148382   3.091   6.088   2.346 -0.0770  1.1619 -0.4142
 8989TIP3    H248383   3.242   6.082   2.336 -0.0438 -0.6487  0.6713
 8990TIP3   OH248384   2.123   5.037  12.118 -0.0271  0.6563 -0.0941
 8990TIP3    H148385   2.113   4.971  12.187 -0.2223 -0.5987 -1.2635
 8990TIP3    H248386   2.161   4.988  12.045  0.3766  1.9994 -0.8119
 8991TIP3   OH248387   2.552   0.104   3.163 -0.6094  0.3139 -0.5667
 8991TIP3    H148388   2.624   0.071   3.110 -0.1163  0.9874 -0.3268
 8991TIP3    H248389   2.523   0.184   3.119  0.6339  1.5853  0.8080
 8992TIP3   OH248390   4.813   5.080  11.876  0.1055 -0.1372  0.0728
 8992TIP3    H148391   4.730   5.066  11.832  0.2378  1.8027 -0.9091
 8992TIP3    H248392   4.791   5.126  11.957  0.2032  0.2584 -0.1226
 8993TIP3   OH248393   1.491   5.565   5.397 -0.1371 -0.2191 -0.7570
 8993TIP3    H148394   1.575   5.600   5.367  0.5311 -0.5053  0.6834
 8993TIP3    H248395   1.444   5.543   5.316  2.2214 -2.5402 -1.6562
 8994TIP3   OH248396   5.802   0.164  12.144 -0.0829  0.0210  0.3222
 8994TIP3    H148397   5.763   0.204  12.221 -0.2592 -0.3357  0.4215
 8994TIP3    H248398   5.828   0.237  12.089 -0.6371  0.2652  0.3846
 8995TIP3   OH248399   4.488   4.993   4.681  0.2622 -0.1074  0.6741
 8995TIP3    H148400   4.442   4.913   4.706  1.1920 -0.1087  2.5873
 8995TIP3    H248401   4.559   5.000   4.744  2.4824  0.2717 -1.6684
 8996TIP3   OH248402   4.555   6.241  11.586  0.6186 -0.2829 -0.1468
 8996TIP3    H148403   4.523   6.290  11.662  0.4583 -1.7883  0.8047
 8996TIP3    H248404   4.477   6.224  11.534 -0.1629 -3.2046  1.7386
 8997TIP3   OH248405   3.201   5.259  16.344  0.2364 -0.3795  0.3934
 8997TIP3    H148406   3.196   5.326  16.412  0.6844 -0.5287  0.5850
 8997TIP3    H248407   3.139   5.287  16.277  1.0539  0.6907  0.0602
 8998TIP3   OH248408   4.140   3.300  16.648  0.5500  0.5501 -0.3587
 8998TIP3    H148409   4.103   3.366  16.707  1.8856  1.6375 -0.6700
 8998TIP3    H248410   4.210   3.259  16.699  1.5074  1.2800 -1.0342
 8999TIP3   OH248411   2.565   0.703   3.937  0.3706  0.4441  0.0814
 8999TIP3    H148412   2.542   0.624   3.889  2.2279 -0.5933  0.8015
 8999TIP3    H248413   2.567   0.676   4.028 -0.2698  1.6776  0.4865
 9000TIP3   OH248414   2.284   6.373   4.375 -0.0693 -0.2252 -0.0143
 9000TIP3    H148415   2.200   6.340   4.342 -0.5896  0.8036  0.2396
 9000TIP3    H248416   2.307   6.445   4.317  0.1866  0.0801  0.4617
 9001TIP3   OH248417   6.071   5.007  13.682 -0.5013  0.5727  0.4263
 9001TIP3    H148418   6.016   4.947  13.731  0.4762  0.9316  2.0689
 9001TIP3    H248419   6.052   5.093  13.720 -0.2735  0.9857 -0.3669
 9002TIP3   OH248420   3.229   2.944  14.346 -0.3562  0.4112 -0.1110
 9002TIP3    H148421   3.144   2.974  14.314 -1.2958 -1.3803  0.5395
 9002TIP3    H248422   3.238   2.855  14.309  1.3021  0.6080 -0.2725
 9003TIP3   OH248423   3.398   5.741   0.841 -0.1715  0.6058 -0.5279
 9003TIP3    H148424   3.317   5.757   0.890  0.3105 -1.2991  1.0386
 9003TIP3    H248425   3.390   5.650   0.812  1.5283  0.2761 -0.0480
 9004TIP3   OH248426   5.641   0.935   2.550 -0.0243  0.0432 -0.2888
 9004TIP3    H148427   5.688   0.860   2.587  1.7078  0.3849 -1.6953
 9004TIP3    H248428   5.618   0.988   2.626 -0.6619 -1.5467  0.6698
 9005TIP3   OH248429   0.805   5.733   4.514  0.2760 -0.4184  0.3317
 9005TIP3    H148430   0.804   5.818   4.558 -1.4576 -1.0806  1.6983
 9005TIP3    H248431   0.886   5.691   4.546  0.9531  0.5508 -0.0731
 9006TIP3   OH248432   2.885   5.933  13.002 -0.2235  0.5398  0.1324
 9006TIP3    H148433   2.814   5.964  12.946 -0.1929  0.0215 -0.2004
 9006TIP3    H248434   2.847   5.933  13.090  0.0252  2.2619  0.2681
 9007TIP3   OH248435   0.756   5.571  15.652  0.6407  0.2000  0.3112
 9007TIP3    H148436   0.671   5.578  15.696  0.0661 -1.2408 -0.4880
 9007TIP3    H248437   0.755   5.641  15.587 -0.8342 -0.9929 -1.0518
 9008TIP3   OH248438   0.481   2.523  16.649  0.1458 -0.6092 -0.0099
 9008TIP3    H148439   0.407   2.576  16.620  0.6428  1.4199  2.1600
 9008TIP3    H248440   0.444   2.461  16.712 -0.0884 -1.4573 -0.9516
 9009TIP3   OH248441   3.407   3.371  14.755  0.6249 -0.5173  0.6465
 9009TIP3    H148442   3.324   3.418  14.761  0.6134 -0.5018  0.3677
 9009TIP3    H248443   3.384   3.287  14.717  0.7974 -0.3603  0.1941
 9010TIP3   OH248444   6.611   6.031  15.044 -0.0613  0.2264 -0.2109
 9010TIP3    H148445   6.560   5.985  15.110  0.5993 -0.5226 -0.2102
 9010TIP3    H248446   6.702   6.005  15.061  0.6106  2.9546  0.9710
 9011TIP3   OH248447   1.196   4.695  11.128  0.0880 -0.2013 -0.0958
 9011TIP3    H148448   1.268   4.735  11.176  0.5751 -0.3763 -0.6605
 9011TIP3    H248449   1.120   4.749  11.148  0.3237 -0.1483  0.6912
 9012TIP3   OH248450   3.987   2.697   0.320 -0.0175 -0.5813  0.1139
 9012TIP3    H148451   4.029   2.771   0.275 -1.2477 -0.0245 -0.1407
 9012TIP3    H248452   3.932   2.737   0.386 -0.4515 -1.2875  0.1890
 9013TIP3   OH248453   1.572   2.146   0.930  0.1735 -0.0206  0.7767
 9013TIP3    H148454   1.585   2.089   1.006  0.6892 -0.7500  0.1574
 9013TIP3    H248455   1.654   2.139   0.881 -0.5113 -0.3371 -0.3527
 9014TIP3   OH248456   4.461   4.430   6.391 -0.0715  0.5226  0.0264
 9014TIP3    H148457   4.470   4.503   6.452  0.9523  0.8578 -0.5056
 9014TIP3    H248458   4.388   4.378   6.426 -0.0651  1.1752  1.0385
 9015TIP3   OH248459   2.639   0.016   1.390 -0.1062  0.3243  0.3353
 9015TIP3    H148460   2.708   0.078   1.414 -0.7267  0.5468  1.5837
 9015TIP3    H248461   2.628  -0.039   1.468 -0.4022 -0.5922 -0.3354
 9016TIP3   OH248462   0.783   2.421   2.883  0.1608 -0.3399  0.0266
 9016TIP3    H148463   0.825   2.491   2.933 -2.4392  0.8116  0.8084
 9016TIP3    H248464   0.842   2.404   2.810  1.6592  1.4991  0.7224
 9017TIP3   OH248465   0.731   1.292   5.453  0.5031 -0.1323  0.0964
 9017TIP3    H148466   0.790   1.344   5.399 -0.0500  0.0073 -0.3911
 9017TIP3    H248467   0.670   1.253   5.390 -0.0204 -0.1390  0.6005
 9018TIP3   OH248468   1.725   5.823   0.186 -0.5767 -0.1005 -0.3604
 9018TIP3    H148469   1.743   5.843   0.094  2.3988 -0.2266  0.0809
 9018TIP3    H248470   1.722   5.728   0.190  0.3529 -0.1389 -0.2192
 9019TIP3   OH248471   2.791   3.755  10.588 -0.0096 -0.0034  0.3257
 9019TIP3    H148472   2.875   3.743  10.632 -0.3946 -0.3186  0.9947
 9019TIP3    H248473   2.729   3.771  10.659 -0.8392 -1.6318  0.0100
 9020TIP3   OH248474   6.154   2.185  17.095 -0.6295  0.2675 -0.0941
 9020TIP3    H148475   6.219   2.222  17.154 -0.7359  0.7429 -0.2698
 9020TIP3    H248476   6.182   2.212  17.007  0.8895 -2.4363 -0.5544
 9021TIP3   OH248477   3.155   5.317  14.713  0.3070 -0.1142 -0.4077
 9021TIP3    H148478   3.070   5.347  14.746  0.1109 -1.2767  0.2100
 9021TIP3    H248479   3.203   5.398  14.694 -0.1792  0.6063  1.2144
 9022TIP3   OH248480   0.250   5.087   6.276  0.3757 -0.5618 -0.0210
 9022TIP3    H148481   0.337   5.110   6.307  1.1418 -2.8133 -0.2793
 9022TIP3    H248482   0.223   5.014   6.332 -0.6610 -0.9224 -0.9421
 9023TIP3   OH248483   1.121   6.012  13.429  0.3737 -0.3547  0.2441
 9023TIP3    H148484   1.102   5.949  13.359 -0.1096  1.0501 -0.9321
 9023TIP3    H248485   1.061   5.988  13.500 -1.2107 -0.0180 -0.9391
 9024TIP3   OH248486   2.169   6.253  12.074  0.0554  0.0026  0.5763
 9024TIP3    H148487   2.156   6.280  11.983  0.9056  1.2777  0.8056
 9024TIP3    H248488   2.260   6.224  12.078 -0.2033 -0.7683  0.8525
 9025TIP3   OH248489   2.669   3.111  13.186  0.1360  0.4215  0.4442
 9025TIP3    H148490   2.743   3.104  13.126 -0.0770  0.2352  0.2023
 9025TIP3    H248491   2.705   3.154  13.264 -0.0594  2.6738 -0.6291
 9026TIP3   OH248492   5.863   5.389   4.894  0.1050 -0.0097 -1.0836
 9026TIP3    H148493   5.835   5.300   4.916 -0.1342  0.2357 -0.3520
 9026TIP3    H248494   5.957   5.381   4.876  0.0774 -0.4143 -1.0581
 9027TIP3   OH248495   3.167   4.309  13.482 -0.0415  0.0009  0.7516
 9027TIP3    H148496   3.161   4.214  13.493  0.9379  0.2092  3.8583
 9027TIP3    H248497   3.234   4.321  13.415  1.2802 -1.5116  1.7363
 9028TIP3   OH248498   6.236   5.264  11.987 -0.2009 -0.3448  0.2227
 9028TIP3    H148499   6.145   5.257  12.015 -0.1777 -2.0834 -0.0314
 9028TIP3    H248500   6.232   5.317  11.907 -0.8019  0.7720  0.9754
 9029TIP3   OH248501   6.266   1.982  13.181 -0.5529 -0.2008 -0.2738
 9029TIP3    H148502   6.230   2.054  13.234  1.6267  0.1565  0.8293
 9029TIP3    H248503   6.248   1.903  13.232  1.9417  0.1832  1.3843
 9030TIP3   OH248504   0.324   0.397  15.684  0.0924 -0.1464  0.0254
 9030TIP3    H148505   0.276   0.421  15.764  1.2157 -0.0114  0.6768
 9030TIP3    H248506   0.258   0.356  15.628 -0.7748 -0.0046  0.9160
 9031TIP3   OH248507   1.048   0.754  14.330  0.0722 -0.0428  0.9364
 9031TIP3    H148508   1.014   0.843  14.321  0.1296  0.2868  3.2294
 9031TIP3    H248509   1.016   0.707  14.253  0.9801  2.2188 -0.9173
 9032TIP3   OH248510   2.656   0.526   1.159  0.3462 -0.4638 -0.0434
 9032TIP3    H148511   2.748   0.536   1.183 -0.4916  0.2586  3.5717
 9032TIP3    H248512   2.641   0.431   1.158  1.0675 -0.5758 -0.4478
 9033TIP3   OH248513   2.612   6.707   2.312  0.0013  0.4047 -0.1473
 9033TIP3    H148514   2.662   6.716   2.393  0.4640 -1.5839 -0.1450
 9033TIP3    H248515   2.649   6.630   2.269 -2.2033 -0.3904 -0.7914
 9034TIP3   OH248516   1.890   4.024  13.001  0.0118  0.1198 -0.6463
 9034TIP3    H148517   1.899   4.117  12.981  0.2420  0.0738 -0.7514
 9034TIP3    H248518   1.869   3.983  12.917 -0.8836  0.1833 -0.4669
 9035TIP3   OH248519   3.056   2.186  13.273 -0.2803 -0.5565  0.1863
 9035TIP3    H148520   3.135   2.204  13.221 -1.2627  0.5238 -1.0059
 9035TIP3    H248521   3.084   2.120  13.336  1.4137 -0.6807 -0.6201
 9036TIP3   OH248522   2.071   3.755  12.370  0.0727  0.2269  0.1043
 9036TIP3    H148523   2.034   3.746  12.282 -0.3576  0.3224  0.2741
 9036TIP3    H248524   2.157   3.796  12.356 -0.3305  0.9896 -0.2093
 9037TIP3   OH248525   4.967   5.169  16.240 -0.2375  0.5932  0.0008
 9037TIP3    H148526   4.898   5.148  16.177  1.7346 -2.0844 -1.4338
 9037TIP3    H248527   4.920   5.209  16.314 -3.8069 -3.6291  0.4217
 9038TIP3   OH248528   1.329   1.782  15.411  0.6869 -0.2767  0.3804
 9038TIP3    H148529   1.293   1.828  15.487  2.1529  1.5341  0.0520
 9038TIP3    H248530   1.260   1.788  15.345  0.5487  0.7997  0.6038
 9039TIP3   OH248531   3.196   2.945   6.579  0.0366  0.3253 -0.3346
 9039TIP3    H148532   3.115   2.899   6.559  0.0764 -0.3247  0.9481
 9039TIP3    H248533   3.262   2.876   6.591  0.2607  0.7220  0.8634
 9040TIP3   OH248534   1.455   1.754  13.154 -0.1920  0.0722 -0.2017
 9040TIP3    H148535   1.521   1.685  13.144  0.1640  0.4834 -0.7068
 9040TIP3    H248536   1.374   1.713  13.125 -0.3017 -0.6384  1.0243
 9041TIP3   OH248537   0.487   1.872   3.532 -0.4148 -0.3840 -0.2458
 9041TIP3    H148538   0.544   1.933   3.484 -0.2807  1.2075  1.8059
 9041TIP3    H248539   0.534   1.855   3.613 -0.2876 -3.5921 -0.8721
 9042TIP3   OH248540   6.448   4.639   0.001  0.9153 -0.5651 -0.1178
 9042TIP3    H148541   6.355   4.653  -0.015  1.2569 -1.2164 -3.2229
 9042TIP3    H248542   6.455   4.628   0.096 -1.9789  0.5809  0.3107
 9043TIP3   OH248543   0.966   1.769  12.408 -0.0165  0.1428 -0.1330
 9043TIP3    H148544   0.966   1.850  12.357 -0.5726 -0.4116 -1.0479
 9043TIP3    H248545   1.048   1.725  12.383  1.7730  1.6556  2.4997
 9044TIP3   OH248546   4.514   3.844  13.199 -0.1737 -0.1633  1.0655
 9044TIP3    H148547   4.456   3.836  13.124 -0.1319 -0.4729  1.0678
 9044TIP3    H248548   4.457   3.833  13.275 -0.0458 -0.9080  1.0623
 9045TIP3   OH248549   6.663   6.046  14.518  0.3786  0.2295  0.3495
 9045TIP3    H148550   6.647   6.088  14.603  3.5149  1.6919  0.3493
 9045TIP3    H248551   6.746   5.999  14.530 -0.5075 -1.8750 -1.1651
 9046TIP3   OH248552   2.126   2.177   4.758 -0.0152  0.4813  0.3844
 9046TIP3    H148553   2.179   2.153   4.682  0.7587 -0.7683  1.2850
 9046TIP3    H248554   2.186   2.171   4.833 -0.8806  1.2094  1.1694
 9047TIP3   OH248555   3.139   4.931   4.333  0.7666 -0.4992  0.1989
 9047TIP3    H148556   3.167   4.866   4.397 -0.0062 -0.4093  0.6276
 9047TIP3    H248557   3.047   4.913   4.317  0.8462 -0.2765 -0.6009
 9048TIP3   OH248558   2.011   2.755   5.914  0.4456 -0.1524  0.3352
 9048TIP3    H148559   1.943   2.760   5.982 -1.4146 -2.0802 -1.2261
 9048TIP3    H248560   2.074   2.692   5.949 -1.1175 -2.0654 -0.1204
 9049TIP3   OH248561   1.079   3.321  14.928  0.6038  0.4684 -0.6864
 9049TIP3    H148562   0.991   3.307  14.964 -0.0327  0.0190 -2.3247
 9049TIP3    H248563   1.136   3.325  15.005 -1.0176  2.2478  0.5289
 9050TIP3   OH248564   2.799   0.694  13.900  0.3933  0.6103  0.1925
 9050TIP3    H148565   2.875   0.751  13.896  0.4224  0.4963 -1.7652
 9050TIP3    H248566   2.728   0.745  13.861 -0.3038  0.3550  1.0867
 9051TIP3   OH248567   0.991   4.434   1.725 -0.1648  0.1681  0.2037
 9051TIP3    H148568   1.023   4.367   1.785 -0.7710  0.7030  1.1513
 9051TIP3    H248569   0.902   4.408   1.704 -0.4049  0.6626  0.5799
 9052TIP3   OH248570   5.937   2.342   0.880 -0.1608  0.1307  0.1572
 9052TIP3    H148571   5.870   2.398   0.840  0.1618 -0.0908 -0.7060
 9052TIP3    H248572   6.001   2.404   0.916 -0.4625  0.3302  0.3557
 9053TIP3   OH248573   4.960   5.973   2.095  0.4254  0.7432 -0.2585
 9053TIP3    H148574   4.950   6.057   2.050  3.7025  1.7762  0.6595
 9053TIP3    H248575   5.020   5.924   2.040  1.3410  0.4463  0.9786
 9054TIP3   OH248576   3.760   2.771   3.294  0.0006  0.4496  0.6064
 9054TIP3    H148577   3.741   2.700   3.355 -2.0321  1.4559  1.2512
 9054TIP3    H248578   3.674   2.793   3.256  1.0079  0.6311 -1.7776
 9055TIP3   OH248579   0.451   1.280  14.484 -0.0403  0.2312  0.0682
 9055TIP3    H148580   0.536   1.302  14.446 -0.7231  1.0356 -1.0407
 9055TIP3    H248581   0.464   1.291  14.579  1.5612 -1.3924  0.1081
 9056TIP3   OH248582   4.145   3.568   0.661 -0.0221  0.4127 -0.2903
 9056TIP3    H148583   4.130   3.652   0.618  0.7016 -0.2911 -2.0020
 9056TIP3    H248584   4.111   3.580   0.750 -0.9932  2.1258 -0.8520
 9057TIP3   OH248585   0.623   3.056  15.117 -0.4672  0.0290 -0.5111
 9057TIP3    H148586   0.583   2.971  15.100  0.5340 -1.0935  2.1653
 9057TIP3    H248587   0.616   3.068  15.211  2.3579  1.3329 -0.3483
 9058TIP3   OH248588   1.050   2.709   5.693  0.1655  0.1866 -0.5843
 9058TIP3    H148589   1.070   2.631   5.744  0.2176  0.9563  0.6063
 9058TIP3    H248590   1.096   2.696   5.610 -1.2168 -1.8168 -1.1072
 9059TIP3   OH248591   5.599   5.219  15.823  0.2419 -0.1440  0.1254
 9059TIP3    H148592   5.674   5.163  15.804  1.4211  1.2052  0.5680
 9059TIP3    H248593   5.523   5.161  15.820  1.3050 -1.5531 -0.3310
 9060TIP3   OH248594   4.937   6.163  11.774  0.4788 -0.3733 -0.3831
 9060TIP3    H148595   4.989   6.215  11.835 -0.4803 -0.5053  0.5849
 9060TIP3    H248596   5.001   6.113  11.723  1.3104  0.0015  0.2743
 9061TIP3   OH248597   5.443   1.182   4.290  0.3593  0.1913  0.3222
 9061TIP3    H148598   5.535   1.196   4.314 -0.4912  0.8745  3.8540
 9061TIP3    H248599   5.413   1.268   4.261  0.5023  0.3056  0.5100
 9062TIP3   OH248600   0.498   5.033   3.514 -0.5222  0.0618 -0.6919
 9062TIP3    H148601   0.445   5.096   3.562  1.2592  0.9731  0.1970
 9062TIP3    H248602   0.487   4.951   3.563 -0.8489  0.3266 -0.3113
 9063TIP3   OH248603   1.738   6.611  14.316  0.1588  0.2672  0.0598
 9063TIP3    H148604   1.703   6.676  14.377 -0.1902 -0.3031  0.4775
 9063TIP3    H248605   1.712   6.643  14.230 -1.1258  0.0345  0.3412
 9064TIP3   OH248606   4.781   2.086   5.883  0.8099 -0.0242  0.2319
 9064TIP3    H148607   4.726   2.161   5.860 -0.1443 -1.1120 -1.1698
 9064TIP3    H248608   4.869   2.112   5.856  0.4989  0.6108 -0.1977
 9065TIP3   OH248609   5.066   2.306  12.679  0.2431 -0.1192  0.3362
 9065TIP3    H148610   5.009   2.346  12.612  1.7655  1.4664 -0.1044
 9065TIP3    H248611   5.109   2.233  12.634 -0.2844 -0.3613  0.2185
 9066TIP3   OH248612   2.575   5.406   1.031  0.4446  0.1587 -0.3848
 9066TIP3    H148613   2.612   5.471   0.972  1.1222  0.3781  0.2596
 9066TIP3    H248614   2.517   5.456   1.088  1.3919  0.3144  0.4726
 9067TIP3   OH248615   5.003   1.699  16.724 -0.4844  0.3464 -0.4876
 9067TIP3    H148616   5.008   1.766  16.656 -1.3697  0.2638 -0.6448
 9067TIP3    H248617   5.046   1.739  16.800  0.0640  0.6271 -0.9396
 9068TIP3   OH248618   3.047   5.565   0.116  0.0429 -0.3284  0.1207
 9068TIP3    H148619   2.968   5.618   0.130  0.6264  0.2959  1.1795
 9068TIP3    H248620   3.105   5.590   0.187  1.9381  0.5910 -1.6404
 9069TIP3   OH248621   1.618   4.235  16.671  0.1412 -0.0287  0.2939
 9069TIP3    H148622   1.706   4.269  16.658  0.4315 -0.7294  0.3629
 9069TIP3    H248623   1.626   4.178  16.748 -0.3348 -0.2116  0.2129
 9070TIP3   OH248624   0.927   5.694  15.860 -0.2028 -0.2502  0.1201
 9070TIP3    H148625   0.842   5.727  15.891 -2.1264 -2.2252 -2.5742
 9070TIP3    H248626   0.905   5.621  15.802  3.5003 -2.3484  1.0253
 9071TIP3   OH248627   1.195   6.147  13.898 -0.4419 -0.4754 -0.3036
 9071TIP3    H148628   1.157   6.064  13.869 -0.6970 -1.0417  1.5274
 9071TIP3    H248629   1.286   6.144  13.867 -0.7819 -0.8583 -1.3184
 9072TIP3   OH248630   1.970   2.505  11.225  0.5510  0.5365  0.4624
 9072TIP3    H148631   1.930   2.582  11.266  0.8186  0.0607  1.6820
 9072TIP3    H248632   1.946   2.432  11.283 -0.3856 -0.4492 -1.1012
 9073TIP3   OH248633   3.845   4.077  13.982 -0.4202  0.4716  0.1535
 9073TIP3    H148634   3.758   4.042  13.998 -0.6225  0.0817 -1.5242
 9073TIP3    H248635   3.829   4.159  13.935  0.1010  0.9050  0.7350
 9074TIP3   OH248636   5.642   2.093   3.746  0.6200 -0.9448  0.1662
 9074TIP3    H148637   5.599   2.128   3.824  0.0618  0.7649 -0.8302
 9074TIP3    H248638   5.574   2.040   3.703  1.4146 -3.2566  1.5905
 9075TIP3   OH248639   2.922   5.640   2.752 -0.3864  0.0355  0.5960
 9075TIP3    H148640   2.916   5.715   2.692  0.3566 -0.5266 -0.2167
 9075TIP3    H248641   2.847   5.585   2.729  2.3500 -2.5856 -3.3261
 9076TIP3   OH248642   1.945   4.281   1.105 -0.1810 -0.0643  0.0359
 9076TIP3    H148643   1.899   4.345   1.159 -0.3742 -1.0225  1.0617
 9076TIP3    H248644   1.911   4.295   1.017  1.0387  2.3463 -0.1202
 9077TIP3   OH248645   0.196   3.247   4.205 -0.0317 -0.3860 -0.0669
 9077TIP3    H148646   0.226   3.200   4.282 -1.6707 -0.8294  0.3525
 9077TIP3    H248647   0.105   3.219   4.194 -0.2897  0.8099 -1.2757
 9078TIP3   OH248648   4.671   0.314   1.542 -0.1749  0.5052  0.4308
 9078TIP3    H148649   4.713   0.340   1.624  0.6258 -0.1962  0.2521
 9078TIP3    H248650   4.636   0.395   1.507  1.4721  1.2120  0.3326
 9079TIP3   OH248651   1.857   2.304  10.911  0.4485 -0.6107 -0.5149
 9079TIP3    H148652   1.862   2.395  10.937  1.7390 -0.8037 -0.0358
 9079TIP3    H248653   1.881   2.304  10.818 -0.6196 -0.3532 -0.8066
 9080TIP3   OH248654   3.869   5.278   6.111 -0.2665  0.3617  0.1301
 9080TIP3    H148655   3.807   5.317   6.049  1.4721  2.9919 -0.1403
 9080TIP3    H248656   3.853   5.325   6.193 -1.3399 -1.8494  1.2773
 9081TIP3   OH248657   1.454   4.618   4.848  0.0968  0.3228  0.0387
 9081TIP3    H148658   1.419   4.619   4.937  3.0770  0.8712  1.3121
 9081TIP3    H248659   1.385   4.657   4.795 -0.9235  2.1100  2.4723
 9082TIP3   OH248660   1.883   0.000   3.496  0.4946 -0.3874 -0.1331
 9082TIP3    H148661   1.831  -0.051   3.435  0.1851  0.4189 -0.5563
 9082TIP3    H248662   1.924  -0.065   3.553 -1.0420 -1.0488  0.2778
 9083TIP3   OH248663   5.457   3.626  17.599 -0.0871  0.0104  0.1984
 9083TIP3    H148664   5.440   3.595  17.510 -0.0709 -0.3452  0.3153
 9083TIP3    H248665   5.488   3.548  17.646  0.2050  0.2627  0.4349
 9084TIP3   OH248666   5.326   3.596   1.238 -0.7524  0.4077 -0.1915
 9084TIP3    H148667   5.330   3.588   1.143 -1.0689  2.7615 -0.4783
 9084TIP3    H248668   5.322   3.691   1.254  0.6528  0.1530  2.2285
 9085TIP3   OH248669   0.713   5.526   2.808 -0.4436  0.2683  0.0269
 9085TIP3    H148670   0.715   5.443   2.855 -0.1183  0.2674  0.0101
 9085TIP3    H248671   0.619   5.543   2.793 -0.4687 -1.6864 -2.7667
 9086TIP3   OH248672   5.173   1.970   5.640  0.0683  0.1193  0.5392
 9086TIP3    H148673   5.149   2.055   5.604 -1.7758 -0.3583  0.5203
 9086TIP3    H248674   5.124   1.907   5.587  2.3344 -1.0830 -0.2512
 9087TIP3   OH248675   4.103   4.947   3.032 -0.4164  0.3571 -0.4448
 9087TIP3    H148676   4.049   4.891   2.977  1.6560  0.6341 -2.9519
 9087TIP3    H248677   4.044   5.016   3.062 -2.1233 -1.0593 -0.4225
 9088TIP3   OH248678   2.173   0.877  11.768  0.8239  0.2197 -0.6532
 9088TIP3    H148679   2.161   0.896  11.861 -0.9404 -0.1751 -0.7649
 9088TIP3    H248680   2.265   0.898  11.751  1.2560  0.0237  1.2296
 9089TIP3   OH248681   4.623   3.034  13.489 -0.1093  0.3606  0.4511
 9089TIP3    H148682   4.581   2.950  13.473  1.1437 -0.3715  0.8739
 9089TIP3    H248683   4.673   3.051  13.408 -0.5328  0.8173  0.2780
 9090TIP3   OH248684   1.004   5.884  13.199  0.3122 -0.1638  0.0482
 9090TIP3    H148685   0.999   5.807  13.143  1.5145  0.3423 -0.8138
 9090TIP3    H248686   0.944   5.947  13.159 -1.4487 -0.9374  1.3237
 9091TIP3   OH248687   3.591   3.756  12.520 -0.0450  0.0042 -0.0249
 9091TIP3    H148688   3.649   3.809  12.576  0.5703 -0.6769 -0.0047
 9091TIP3    H248689   3.528   3.718  12.581  1.4224 -1.7980  0.4334
 9092TIP3   OH248690   4.463   0.657  13.625 -0.1367  0.1774 -0.5657
 9092TIP3    H148691   4.503   0.580  13.584  0.1990 -1.4545  2.5245
 9092TIP3    H248692   4.385   0.675  13.572  0.7436 -1.1333 -2.4196
 9093TIP3   OH248693   3.251   2.294  12.803 -0.1537 -0.4130 -0.1460
 9093TIP3    H148694   3.164   2.257  12.821  0.6828 -1.8030  1.2388
 9093TIP3    H248695   3.308   2.217  12.793  0.9082  0.4751 -1.1519
 9094TIP3   OH248696   6.361   5.823  14.132  0.0109 -0.7568  0.1955
 9094TIP3    H148697   6.416   5.816  14.210  0.7434  1.1574 -0.1010
 9094TIP3    H248698   6.419   5.801  14.059 -0.3010 -1.2012  0.0801
 9095TIP3   OH248699   4.636   3.175   1.766 -0.2513  0.1117  0.0244
 9095TIP3    H148700   4.635   3.269   1.751  1.0028 -0.3713 -4.3502
 9095TIP3    H248701   4.543   3.149   1.761 -0.3459  0.7198 -3.1076
 9096TIP3   OH248702   1.384   3.163  12.519  0.5794  0.1774 -0.4163
 9096TIP3    H148703   1.359   3.113  12.442 -1.5522  0.1435  0.2306
 9096TIP3    H248704   1.305   3.213  12.543  1.8410  1.8909  0.4635
 9097TIP3   OH248705   4.447   5.791  14.846  0.5112  0.1665  0.1877
 9097TIP3    H148706   4.363   5.820  14.811 -0.7801 -1.2655  1.9329
 9097TIP3    H248707   4.492   5.753  14.770 -0.3507  1.0383 -0.7945
 9098TIP3   OH248708   2.841   1.439  14.242 -0.9378 -0.0938  0.0273
 9098TIP3    H148709   2.833   1.452  14.336 -1.3962  0.1858 -0.0482
 9098TIP3    H248710   2.775   1.496  14.204  1.8841  2.9823 -0.6794
 9099TIP3   OH248711   5.879   5.196  14.545  0.0276 -0.6753  0.4053
 9099TIP3    H148712   5.829   5.129  14.591  0.0487 -0.4888  0.6995
 9099TIP3    H248713   5.938   5.147  14.488 -0.5201 -0.8968  0.0189
 9100TIP3   OH248714   1.693   4.284  15.189 -0.0002 -0.1143 -0.3540
 9100TIP3    H148715   1.780   4.277  15.227 -0.7919 -1.1880  1.3670
 9100TIP3    H248716   1.690   4.216  15.122  0.4578 -0.1445 -0.3444
 9101TIP3   OH248717   5.434   5.162   1.593 -0.0524  0.1470 -0.3512
 9101TIP3    H148718   5.422   5.248   1.635  0.1268  0.2542 -0.5188
 9101TIP3    H248719   5.373   5.163   1.519  1.1679  0.8207 -1.3997
 9102TIP3   OH248720   0.930   5.053  16.584  0.1896  0.5944  0.1432
 9102TIP3    H148721   0.865   5.009  16.530  0.2288 -0.8464  1.2236
 9102TIP3    H248722   1.013   5.038  16.538  0.3702 -1.4907  1.0391
 9103TIP3   OH248723   0.225   3.592  17.456  0.7518 -0.0312 -0.3475
 9103TIP3    H148724   0.301   3.630  17.412  1.4096  0.7313  1.3644
 9103TIP3    H248725   0.156   3.657  17.446 -0.3766 -1.4782 -3.4995
 9104TIP3   OH248726   2.334   4.201   1.952  0.0086 -0.3059 -0.1381
 9104TIP3    H148727   2.336   4.297   1.947 -1.1291 -0.3099 -1.9397
 9104TIP3    H248728   2.257   4.182   2.006 -0.5337 -0.1818 -0.8509
 9105TIP3   OH248729   3.481   5.571   1.580  0.3940  0.6408  0.5949
 9105TIP3    H148730   3.530   5.497   1.615  0.5850  0.7920  0.6504
 9105TIP3    H248731   3.390   5.540   1.575  0.6635 -0.0219 -0.5665
 9106TIP3   OH248732   1.118   3.708   5.643  0.0656  0.5585 -0.6008
 9106TIP3    H148733   1.171   3.716   5.564  0.6317  1.2415 -0.1627
 9106TIP3    H248734   1.065   3.788   5.644  0.8315  1.0696  0.2555
 9107TIP3   OH248735   4.353   2.828  16.119  0.5935  0.1813 -0.3253
 9107TIP3    H148736   4.284   2.780  16.165  0.5789 -0.9890 -1.5222
 9107TIP3    H248737   4.424   2.765  16.110  1.7419  1.2755  0.6267
 9108TIP3   OH248738   4.194   5.265  16.610  0.3671  0.1541  0.1296
 9108TIP3    H148739   4.221   5.195  16.670  0.7087  0.5741  0.4689
 9108TIP3    H248740   4.134   5.222  16.549  1.5196 -0.7418 -0.4294
 9109TIP3   OH248741   1.550   0.276   2.945  0.3726  0.2249 -0.2656
 9109TIP3    H148742   1.472   0.330   2.958  1.1537  0.9652  1.6125
 9109TIP3    H248743   1.516   0.187   2.938 -0.5715  0.1676  3.2056
 9110TIP3   OH248744   6.527   6.686   3.174  0.1211 -0.0539  0.9506
 9110TIP3    H148745   6.459   6.619   3.163  1.4168 -1.8521  3.0683
 9110TIP3    H248746   6.556   6.706   3.085 -2.2408 -0.1764  0.0808
 9111TIP3   OH248747   3.681   3.634  11.922 -0.8350  0.4111  0.1059
 9111TIP3    H148748   3.649   3.686  11.849  0.9120  1.8213  0.2596
 9111TIP3    H248749   3.710   3.699  11.987 -0.1972 -0.7729  1.0486
 9112TIP3   OH248750   3.929   1.517   1.686  0.1490  0.6038  0.5124
 9112TIP3    H148751   3.962   1.442   1.637 -1.4200 -0.0646  0.4103
 9112TIP3    H248752   3.993   1.531   1.756  2.6873  1.8490 -1.8711
 9113TIP3   OH248753   5.780   3.188  17.374 -0.6565 -0.1277 -0.0155
 9113TIP3    H148754   5.688   3.211  17.386 -0.6086  0.1053 -0.0859
 9113TIP3    H248755   5.827   3.247  17.432 -0.3765  1.4759 -1.7768
 9114TIP3   OH248756   6.299   3.229   0.853 -0.4048 -0.2160  0.5471
 9114TIP3    H148757   6.213   3.188   0.852 -0.4025 -0.2169  0.0259
 9114TIP3    H248758   6.334   3.209   0.940 -0.3393 -1.4434  0.2572
 9115TIP3   OH248759   1.485   2.514  11.465 -0.3226  0.3012  0.3338
 9115TIP3    H148760   1.528   2.429  11.473 -0.4421  0.3313  1.5009
 9115TIP3    H248761   1.547   2.568  11.417  0.4550  0.0012  0.9657
 9116TIP3   OH248762   2.458   2.373  12.497 -0.1051  0.1544 -0.0318
 9116TIP3    H148763   2.427   2.461  12.519  1.5203  1.4104 -2.4215
 9116TIP3    H248764   2.378   2.324  12.476 -1.0291  1.0258  1.3087
 9117TIP3   OH248765   6.423   2.617   2.840 -0.1155 -0.3898  0.0177
 9117TIP3    H148766   6.518   2.606   2.843 -0.1471 -1.0966 -0.9406
 9117TIP3    H248767   6.405   2.687   2.902  0.9690 -0.6456  0.6500
 9118TIP3   OH248768   5.277   4.991   5.112 -0.1806 -0.1054 -0.0255
 9118TIP3    H148769   5.369   5.014   5.125 -0.3253  0.5800 -0.2082
 9118TIP3    H248770   5.280   4.911   5.058  0.3432 -1.3109  1.7039
 9119TIP3   OH248771   3.220   2.524  15.549  0.3792  0.2764 -0.0838
 9119TIP3    H148772   3.170   2.472  15.485 -1.0466  1.1001  0.3073
 9119TIP3    H248773   3.306   2.482  15.552 -0.7469 -2.1947  0.3417
 9120TIP3   OH248774   1.318   3.456  11.683  0.3092  0.2832 -0.0116
 9120TIP3    H148775   1.360   3.466  11.598  1.6951 -1.7493  0.3512
 9120TIP3    H248776   1.300   3.363  11.691 -0.0075  0.4490  1.8180
 9121TIP3   OH248777   6.049   6.179  12.555  0.7328  0.0973 -0.2177
 9121TIP3    H148778   6.108   6.110  12.586 -1.8365 -1.9206  0.5125
 9121TIP3    H248779   6.065   6.183  12.461  0.8280 -1.6884 -0.3220
 9122TIP3   OH248780   2.329   3.909  16.497 -0.2951  0.2130  0.1330
 9122TIP3    H148781   2.310   3.997  16.466  1.2505  0.5071 -0.0925
 9122TIP3    H248782   2.361   3.922  16.587  1.1159  0.0400 -0.3260
 9123TIP3   OH248783   4.483   6.592  13.740  0.2327 -0.5082  1.2289
 9123TIP3    H148784   4.527   6.609  13.823  2.4833  3.7110 -0.4926
 9123TIP3    H248785   4.553   6.559  13.683 -0.0470  0.9994 -0.0770
 9124TIP3   OH248786   5.104   1.416   3.570 -0.4197 -0.1107  0.4314
 9124TIP3    H148787   5.028   1.426   3.513  0.0677 -1.1303 -0.4438
 9124TIP3    H248788   5.109   1.322   3.587  0.4908 -0.0259  0.6844
 9125TIP3   OH248789   3.210   3.552  16.004 -0.6584 -0.6859 -0.4458
 9125TIP3    H148790   3.236   3.642  16.024  0.0119 -1.0243  0.2462
 9125TIP3    H248791   3.292   3.503  16.008 -0.6656 -1.0011 -2.8031
 9126TIP3   OH248792   0.779   1.750   0.792  0.2167  0.0896 -0.3423
 9126TIP3    H148793   0.740   1.834   0.768  1.6532  0.8526 -0.1192
 9126TIP3    H248794   0.733   1.725   0.873  0.0245  0.8466 -0.2076
 9127TIP3   OH248795   2.376   0.597   4.439  0.2337 -0.0800 -0.0952
 9127TIP3    H148796   2.314   0.524   4.436  0.3685 -0.1681 -1.4032
 9127TIP3    H248797   2.460   0.556   4.459  0.0942 -0.1264  0.3943
 9128TIP3   OH248798   2.694   2.847  11.528 -0.2147 -0.4948  0.3446
 9128TIP3    H148799   2.679   2.831  11.622  1.2476  0.8466  0.8502
 9128TIP3    H248800   2.663   2.767  11.486 -0.4549 -1.3490  2.0176
 9129TIP3   OH248801   1.736   2.027  15.649 -0.2049 -0.1958  0.1690
 9129TIP3    H148802   1.830   2.040  15.659  0.1306 -2.3360  0.4312
 9129TIP3    H248803   1.724   2.011  15.555 -0.5311  1.3213 -0.0731
 9130TIP3   OH248804   3.146   2.131   5.080 -0.0354  0.1189 -0.1581
 9130TIP3    H148805   3.225   2.186   5.079  0.5538 -0.7229 -0.6473
 9130TIP3    H248806   3.081   2.182   5.033  0.4284  0.5055 -0.3935
 9131TIP3   OH248807   6.443   5.725  12.207 -0.5511 -0.0130 -0.1131
 9131TIP3    H148808   6.398   5.776  12.139 -1.7721  0.2576  0.8621
 9131TIP3    H248809   6.400   5.639  12.205  0.5390 -0.5629 -0.7875
 9132TIP3   OH248810   4.609   4.609  15.035 -0.6720  0.1728  0.4297
 9132TIP3    H148811   4.568   4.573  14.956 -1.0551  0.7465  0.3570
 9132TIP3    H248812   4.590   4.545  15.103  1.1768 -1.2231 -0.2830
 9133TIP3   OH248813   5.863   6.618  10.965  0.1715 -0.0224  0.1043
 9133TIP3    H148814   5.905   6.594  11.048 -1.4036  0.1120  0.9799
 9133TIP3    H248815   5.792   6.677  10.990 -0.7464 -0.4907 -1.2881
 9134TIP3   OH248816   4.561   4.032  15.601  0.1583 -0.0851 -0.1386
 9134TIP3    H148817   4.469   4.060  15.599  0.3404  1.2775  3.4059
 9134TIP3    H248818   4.558   3.939  15.581 -2.4396 -0.7762  2.7021
 9135TIP3   OH248819   2.328   0.764   3.079 -0.2087 -0.0293  0.2573
 9135TIP3    H148820   2.267   0.731   3.145 -1.4654  0.7541 -0.4943
 9135TIP3    H248821   2.302   0.854   3.065  0.5133  0.0244 -0.7894
 9136TIP3   OH248822   4.986   3.636  12.041 -0.1587  0.1630  0.3635
 9136TIP3    H148823   4.893   3.637  12.065  0.1263 -1.0157  1.6721
 9136TIP3    H248824   5.024   3.711  12.086 -0.5495  0.9419 -0.5786
 9137TIP3   OH248825   4.173   1.467   3.690  0.1485 -0.3042  0.1981
 9137TIP3    H148826   4.220   1.452   3.608 -0.3648 -2.1348  0.1926
 9137TIP3    H248827   4.222   1.537   3.733  1.8642 -0.9667 -0.5743
 9138TIP3   OH248828   5.641   6.272   0.992 -0.5514  0.4083 -0.5513
 9138TIP3    H148829   5.574   6.265   1.060 -1.1807  0.1109 -1.1884
 9138TIP3    H248830   5.684   6.356   1.009 -1.2227  0.6962 -0.2538
 9139TIP3   OH248831   1.183   1.257  17.357 -0.1072  0.1406 -0.6339
 9139TIP3    H148832   1.169   1.267  17.263  2.6586  0.0748 -1.1456
 9139TIP3    H248833   1.155   1.340  17.394  0.3021  0.8013 -1.7496
 9140TIP3   OH248834   1.851   4.039  12.142 -0.2376  0.3338  0.3848
 9140TIP3    H148835   1.887   4.108  12.197  0.1198 -0.2619  0.9215
 9140TIP3    H248836   1.859   3.960  12.195  0.4230 -0.3164 -0.6391
 9141TIP3   OH248837   2.344   2.806   3.009  0.3236  0.3115 -0.0184
 9141TIP3    H148838   2.371   2.773   2.924  0.0529  1.8547 -0.7411
 9141TIP3    H248839   2.308   2.730   3.055 -1.0696 -0.2189 -1.8969
 9142TIP3   OH248840   1.590   2.888  12.229 -0.1732  0.0789  0.4737
 9142TIP3    H148841   1.596   2.983  12.239  0.3053  0.2003 -0.8415
 9142TIP3    H248842   1.517   2.875  12.168 -0.6170 -0.4363  1.1018
 9143TIP3   OH248843   2.502   6.258   3.152 -0.3938 -0.1579  0.2052
 9143TIP3    H148844   2.583   6.298   3.184 -1.0403  0.2329  1.3990
 9143TIP3    H248845   2.460   6.327   3.101  0.7899 -0.8793 -1.8810
 9144TIP3   OH248846   1.117   2.266  11.995  0.3526  0.4307 -0.3883
 9144TIP3    H148847   1.101   2.315  11.915 -1.2668  1.0446  0.2866
 9144TIP3    H248848   1.073   2.315  12.064  0.5180 -0.8305  0.6702
 9145TIP3   OH248849   0.099   1.900   4.826 -0.3762 -0.5598  0.4247
 9145TIP3    H148850   0.066   1.903   4.916 -1.8821 -1.1044 -0.0794
 9145TIP3    H248851   0.131   1.989   4.810 -1.4644 -0.0364  1.0211
 9146TIP3   OH248852   6.165   5.348   0.746 -0.6381 -0.1752  0.0463
 9146TIP3    H148853   6.158   5.294   0.825  1.3903  1.0916  1.1562
 9146TIP3    H248854   6.257   5.373   0.741 -1.2339  2.0380 -1.2025
 9147TIP3   OH248855   0.945   6.548  11.425 -0.0807 -0.0520  0.0765
 9147TIP3    H148856   0.851   6.560  11.414 -0.3639 -1.7588  0.3839
 9147TIP3    H248857   0.977   6.524  11.338 -0.0049  0.0509  0.0753
 9148TIP3   OH248858   2.460   5.853   4.606  0.0474 -0.3163  0.4503
 9148TIP3    H148859   2.468   5.764   4.572  1.3038  0.8263 -2.6537
 9148TIP3    H248860   2.405   5.898   4.542  2.4523  1.9963 -0.1866
 9149TIP3   OH248861   0.579   2.291  10.719  0.1921 -0.0522  0.1194
 9149TIP3    H148862   0.584   2.309  10.813 -0.9322  0.9166  0.0151
 9149TIP3    H248863   0.654   2.339  10.682  0.6526 -0.4534  0.5065
 9150TIP3   OH248864   4.731   1.096   6.819  0.8154 -0.2477 -0.3515
 9150TIP3    H148865   4.818   1.095   6.858  0.3659 -0.5401  0.6719
 9150TIP3    H248866   4.743   1.141   6.736  2.0127 -0.5984 -0.3970
 9151TIP3   OH248867   1.289   6.569   2.633 -0.2277 -0.1000 -0.2376
 9151TIP3    H148868   1.227   6.499   2.611 -0.4003 -0.1817  0.4758
 9151TIP3    H248869   1.264   6.597   2.721  1.8573 -1.3950  0.8646
 9152TIP3   OH248870   1.902   3.641  17.508 -0.7146  0.0729 -0.0790
 9152TIP3    H148871   1.812   3.675  17.513 -0.2417  1.3141  0.2959
 9152TIP3    H248872   1.930   3.635  17.599  0.5304  2.4028 -0.2288
 9153TIP3   OH248873   2.556   5.285   5.657 -0.6284  0.4193 -0.2761
 9153TIP3    H148874   2.599   5.204   5.628 -0.3563  0.6589 -0.5450
 9153TIP3    H248875   2.602   5.308   5.738 -0.7934  0.2347 -0.1290
 9154TIP3   OH248876   1.272   0.009  12.583  0.0555 -0.2311  0.0048
 9154TIP3    H148877   1.230   0.032  12.500  0.2712  0.3340  0.0516
 9154TIP3    H248878   1.200   0.010  12.646 -0.1495 -0.8879 -0.2140
 9155TIP3   OH248879   5.051   1.594   1.959 -0.6573  0.7013  0.0439
 9155TIP3    H148880   5.046   1.637   2.044 -0.4626 -1.1413  1.0438
 9155TIP3    H248881   5.134   1.546   1.960 -0.8838  0.2398 -0.9751
 9156TIP3   OH248882   3.230   3.015   0.882 -0.1573 -0.5066 -0.5100
 9156TIP3    H148883   3.317   3.019   0.843  0.4628 -1.3153  0.7644
 9156TIP3    H248884   3.184   3.091   0.845  0.6728 -0.7597 -2.1331
 9157TIP3   OH248885   1.320   0.090   1.570 -0.1285 -0.3515  0.3309
 9157TIP3    H148886   1.303   0.153   1.500 -2.8573 -0.0586  1.1392
 9157TIP3    H248887   1.276   0.127   1.647 -0.9583 -2.7194  1.0857
 9158TIP3   OH248888   4.919   3.261   5.335  0.4247  0.4545 -0.5518
 9158TIP3    H148889   4.997   3.273   5.281 -0.2805  0.5371 -1.5842
 9158TIP3    H248890   4.921   3.334   5.397  1.9107 -0.3435  0.3928
 9159TIP3   OH248891   1.619   2.497  14.685  0.1347 -0.2790 -0.2569
 9159TIP3    H148892   1.704   2.481  14.644  0.6185  0.1408  0.5403
 9159TIP3    H248893   1.577   2.563  14.630  1.3593  1.3253  0.6185
 9160TIP3   OH248894   2.854   3.341  16.780 -0.3472 -0.1502 -0.3367
 9160TIP3    H148895   2.923   3.307  16.723 -0.7515 -0.9011 -0.3903
 9160TIP3    H248896   2.895   3.415  16.826  1.2664 -1.9612  1.3278
 9161TIP3   OH248897   3.983   1.091   1.019 -0.0165 -0.4774  0.0986
 9161TIP3    H148898   4.038   1.076   1.096 -1.6204  4.2308  2.6240
 9161TIP3    H248899   3.896   1.061   1.045 -0.3044 -0.1192 -0.4229
 9162TIP3   OH248900   3.791   4.134  11.795  0.5389  0.7703  0.0733
 9162TIP3    H148901   3.741   4.186  11.858  1.0638  1.4871 -0.0871
 9162TIP3    H248902   3.845   4.198  11.748  0.8081  0.1426 -0.4962
 9163TIP3   OH248903   5.208   1.324  16.498 -0.2737  0.2257 -0.0972
 9163TIP3    H148904   5.158   1.271  16.437  1.9655 -1.4660 -0.5889
 9163TIP3    H248905   5.259   1.383  16.442  1.9117 -1.4437 -0.0195
 9164TIP3   OH248906   6.343   1.386   3.174 -0.1068  0.0510 -0.0430
 9164TIP3    H148907   6.287   1.401   3.097  0.2617  1.3233 -0.0815
 9164TIP3    H248908   6.421   1.343   3.138 -0.5205 -0.5927 -0.1766
 9165TIP3   OH248909   0.108   3.797  12.549  0.2568  0.7057  0.1565
 9165TIP3    H148910   0.029   3.789  12.496  0.2428  0.7129  0.1766
 9165TIP3    H248911   0.178   3.764  12.493  0.1838  0.3489  0.2753
 9166TIP3   OH248912   5.000   4.057   6.232 -0.0983  0.3066 -1.0634
 9166TIP3    H148913   4.917   4.011   6.230 -0.5902  1.0177  0.9528
 9166TIP3    H248914   5.057   4.002   6.286 -0.3314  1.4007  0.3711
 9167TIP3   OH248915   2.493   3.603   2.083  0.4196  0.0620  0.5029
 9167TIP3    H148916   2.578   3.561   2.078 -0.1416 -0.9820 -1.3679
 9167TIP3    H248917   2.479   3.640   1.995 -1.0604  0.1869  0.7519
 9168TIP3   OH248918   5.521   2.342   3.581  0.1686 -0.0296 -0.1427
 9168TIP3    H148919   5.559   2.430   3.569 -0.3907  0.3637  0.8866
 9168TIP3    H248920   5.565   2.308   3.659  0.3040 -0.6304 -0.4772
 9169TIP3   OH248921   5.971   4.468  17.518  0.2115 -0.1679 -0.3582
 9169TIP3    H148922   5.903   4.409  17.549 -0.1789 -0.3552 -1.5326
 9169TIP3    H248923   5.973   4.455  17.423  1.7409 -0.0131 -0.3733
 9170TIP3   OH248924   3.125   3.631   5.921  1.1623 -0.2551 -0.5119
 9170TIP3    H148925   3.088   3.581   5.994 -2.0545  1.5938 -0.6896
 9170TIP3    H248926   3.160   3.711   5.962  0.2345  0.3445 -0.8735
 9171TIP3   OH248927   0.766   1.709  13.709  0.0809 -0.2324  0.1695
 9171TIP3    H148928   0.819   1.644  13.754 -0.7761  0.1943  1.8609
 9171TIP3    H248929   0.825   1.782  13.694  0.6936 -0.8535 -0.5487
 9172TIP3   OH248930   0.657   4.769  12.000 -0.0343 -0.3289  0.2474
 9172TIP3    H148931   0.727   4.704  11.994  1.5653  1.2597  0.8981
 9172TIP3    H248932   0.599   4.747  11.928 -0.7078 -3.7150  1.5979
 9173TIP3   OH248933   3.008   5.808   3.269 -0.0021 -0.0251  0.6809
 9173TIP3    H148934   3.050   5.808   3.183 -2.4039  0.5771 -0.5896
 9173TIP3    H248935   3.041   5.886   3.312  0.2674  0.3629 -0.2090
 9174TIP3   OH248936   1.064   6.462  11.182  0.1238 -0.5583  0.2377
 9174TIP3    H148937   1.075   6.527  11.113 -2.0065  0.6599  0.9731
 9174TIP3    H248938   1.072   6.378  11.137  0.8748  0.1852 -1.0908
 9175TIP3   OH248939   4.151   0.670   0.499  0.0801  0.1297 -0.0810
 9175TIP3    H148940   4.093   0.746   0.489 -0.3682 -0.0287  1.2095
 9175TIP3    H248941   4.101   0.608   0.551  1.0794 -0.3654  0.3146
 9176TIP3   OH248942   1.186   6.002   1.334  0.1797  0.2246 -0.3355
 9176TIP3    H148943   1.104   5.956   1.315  0.1495 -0.3463  1.0896
 9176TIP3    H248944   1.244   5.979   1.261 -0.7548  0.2248 -1.0971
 9177TIP3   OH248945   5.562   5.569  17.405  0.4718  0.2108 -0.0913
 9177TIP3    H148946   5.470   5.552  17.382  0.6661  1.2997 -1.8883
 9177TIP3    H248947   5.609   5.561  17.322  2.1410 -0.9967  0.9093
 9178TIP3   OH248948   3.338   1.242   4.701 -0.2690  0.1584  0.5185
 9178TIP3    H148949   3.323   1.289   4.783 -0.7380 -0.4802  0.8016
 9178TIP3    H248950   3.338   1.311   4.634  0.7060  0.7592  1.1038
 9179TIP3   OH248951   1.398   2.616   3.350 -0.1708 -0.2511 -0.2657
 9179TIP3    H148952   1.474   2.674   3.344  0.3179 -0.8156  0.3046
 9179TIP3    H248953   1.426   2.545   3.408 -0.4054 -1.5862 -1.6991
 9180TIP3   OH248954   1.449   5.176   3.067 -0.2821  0.4108 -0.3042
 9180TIP3    H148955   1.540   5.179   3.038  0.3321 -1.1544  1.2772
 9180TIP3    H248956   1.439   5.089   3.106 -2.7804  0.1001 -1.4150
 9181TIP3   OH248957   0.561   3.720   1.067 -0.4171  0.4483 -0.1244
 9181TIP3    H148958   0.644   3.675   1.055 -0.4314  0.9955 -3.2659
 9181TIP3    H248959   0.496   3.650   1.076  0.1915 -0.0166  0.6972
 9182TIP3   OH248960   5.900   1.240  13.159  0.1847 -0.0754 -0.2187
 9182TIP3    H148961   5.804   1.240  13.157  0.1695  0.8927  0.2973
 9182TIP3    H248962   5.923   1.182  13.231 -0.0356  0.5717  0.3753
 9183TIP3   OH248963   1.162   5.738   3.440 -0.1184 -0.4346 -0.3070
 9183TIP3    H148964   1.224   5.740   3.513 -0.9625 -1.2460  0.4607
 9183TIP3    H248965   1.130   5.828   3.434  2.6250  0.5465 -2.0969
 9184TIP3   OH248966   0.515   0.435   4.534 -0.5578 -0.1563  0.0362
 9184TIP3    H148967   0.470   0.518   4.542 -0.6704 -0.2733  0.6882
 9184TIP3    H248968   0.531   0.424   4.440  0.5744  1.1927  0.0436
 9185TIP3   OH248969   3.491   0.040   6.270  0.3519 -0.0412  0.2409
 9185TIP3    H148970   3.466   0.019   6.180 -0.4036  0.0081  0.4320
 9185TIP3    H248971   3.586   0.039   6.269  0.3485 -0.5973 -0.4282
 9186TIP3   OH248972   4.062   2.125   0.529  0.0457  0.1058  0.2492
 9186TIP3    H148973   4.095   2.035   0.536  0.7677  0.2514 -1.0419
 9186TIP3    H248974   4.099   2.170   0.605 -0.7479 -0.8008  1.1978
 9187TIP3   OH248975   1.222   5.261   2.970 -0.2777 -0.6887  0.4729
 9187TIP3    H148976   1.208   5.213   2.888  0.8142 -2.0117  1.0139
 9187TIP3    H248977   1.316   5.251   2.987  0.3010  2.8106 -0.0420
 9188TIP3   OH248978   5.559   0.397   0.759 -0.3106  0.8683  0.0189
 9188TIP3    H148979   5.615   0.395   0.681 -0.3645  1.1614 -0.0288
 9188TIP3    H248980   5.620   0.391   0.833 -0.2764  0.3358 -0.0493
 9189TIP3   OH248981   2.105   0.122  14.407 -0.0481  0.0335  0.3767
 9189TIP3    H148982   2.022   0.169  14.415  1.0974  2.7980 -2.0174
 9189TIP3    H248983   2.169   0.178  14.452  1.1158  0.0393 -1.1896
 9190TIP3   OH248984   2.159   6.701  17.147 -0.3120 -0.1698 -0.1296
 9190TIP3    H148985   2.118   6.618  17.123 -0.3739  0.1648 -1.2317
 9190TIP3    H248986   2.096   6.744  17.204 -0.5601 -0.5938 -0.0850
 9191TIP3   OH248987   4.233   3.306   6.184  0.3256 -0.1108  0.3861
 9191TIP3    H148988   4.310   3.251   6.198  2.0350  2.1169  0.1187
 9191TIP3    H248989   4.162   3.259   6.228  1.8309 -2.1427  0.7805
 9192TIP3   OH248990   6.377   1.101   2.389 -0.5601 -0.1881 -0.2245
 9192TIP3    H148991   6.455   1.075   2.439 -0.6286 -0.2904 -0.1690
 9192TIP3    H248992   6.333   1.018   2.371 -1.1496 -0.0567  0.5652
 9193TIP3   OH248993   2.039   3.396   1.164 -0.4485  0.3273 -0.1032
 9193TIP3    H148994   1.968   3.360   1.216 -1.2145 -1.0403 -1.9914
 9193TIP3    H248995   2.110   3.332   1.172  0.6781  1.6969  1.7982
 9194TIP3   OH248996   6.096   6.308  16.062 -0.1647  0.1284 -0.2915
 9194TIP3    H148997   6.076   6.219  16.088 -1.0647 -0.1654 -1.8710
 9194TIP3    H248998   6.049   6.321  15.979  0.9682  1.6326 -0.7624
 9195TIP3   OH248999   2.180   6.396  16.753 -0.1462  0.1886  0.5026
 9195TIP3    H149000   2.201   6.472  16.698  0.1035 -0.0418  0.2805
 9195TIP3    H249001   2.109   6.353  16.706 -1.2307  1.0284  1.3035
 9196TIP3   OH249002   0.941   4.338   4.110  0.1398 -0.4077  0.0955
 9196TIP3    H149003   0.962   4.428   4.135 -1.9907  0.0849  0.3459
 9196TIP3    H249004   0.957   4.334   4.016 -0.3855  0.4435 -0.0356
 9197TIP3   OH249005   4.306   3.235  16.885 -0.8736  0.0616  0.1157
 9197TIP3    H149006   4.263   3.253  16.968 -1.8854 -0.2175 -0.3221
 9197TIP3    H249007   4.393   3.274  16.893 -0.5876 -0.8192  1.6659
 9198TIP3   OH249008   1.992   0.688  15.237  0.2384 -1.0340  0.0098
 9198TIP3    H149009   2.013   0.766  15.186 -0.2872 -0.0502  1.2359
 9198TIP3    H249010   1.938   0.635  15.179 -0.4252  0.0904 -0.4333
 9199TIP3   OH249011   0.783   3.680  16.858 -0.2406  0.4948 -0.0512
 9199TIP3    H149012   0.699   3.658  16.819  0.2272  0.2614 -0.9561
 9199TIP3    H249013   0.844   3.616  16.823  0.0773 -0.2061  1.6733
 9200TIP3   OH249014   0.816   5.361  14.324  0.4538  0.0351  0.1952
 9200TIP3    H149015   0.777   5.274  14.326  0.3394  0.0905  1.5139
 9200TIP3    H249016   0.908   5.345  14.302 -0.1456 -0.1334 -2.4457
 9201TIP3   OH249017   6.213   6.524  15.700  0.2066 -1.0082  0.7693
 9201TIP3    H149018   6.241   6.605  15.655 -1.1068 -0.0173  1.6555
 9201TIP3    H249019   6.203   6.550  15.791  1.1232 -2.5664  1.3560
 9202TIP3   OH249020   1.193   5.803   4.624 -0.4019 -0.5070 -0.0359
 9202TIP3    H149021   1.271   5.750   4.639 -1.0292 -1.5867 -0.4660
 9202TIP3    H249022   1.227   5.886   4.591  0.5915 -0.7305  0.3902
 9203TIP3   OH249023   0.953   6.389  13.610 -0.1157 -0.4518  0.2267
 9203TIP3    H149024   0.977   6.447  13.538 -1.3783  1.5136  1.3119
 9203TIP3    H249025   1.020   6.405  13.677  0.3231 -1.3250  0.0160
 9204TIP3   OH249026   0.984   5.390   3.779 -0.2028  0.6201  0.0068
 9204TIP3    H149027   1.017   5.459   3.837  0.2236  0.1107  0.3768
 9204TIP3    H249028   1.059   5.369   3.723  0.6139 -1.5240  1.7551
 9205TIP3   OH249029   3.503   1.108  12.333  0.0986 -0.1267 -0.2152
 9205TIP3    H149030   3.452   1.110  12.415 -1.2553  2.4104 -0.9986
 9205TIP3    H249031   3.592   1.128  12.360 -0.4665  1.4628  0.6349
 9206TIP3   OH249032   4.218   1.694   4.873  0.1553  0.2412  0.2167
 9206TIP3    H149033   4.165   1.767   4.841  1.1893  1.1790  0.5564
 9206TIP3    H249034   4.166   1.616   4.855 -0.6713  1.0035 -0.8047
 9207TIP3   OH249035   2.848   1.706   0.506 -0.2446  0.5085  0.0071
 9207TIP3    H149036   2.925   1.721   0.560 -1.1785 -1.1373  1.9867
 9207TIP3    H249037   2.835   1.611   0.510 -2.2758  0.7271 -0.3729
 9208TIP3   OH249038   4.818   4.247  17.339  0.6999  0.8386 -0.3970
 9208TIP3    H149039   4.909   4.242  17.312  0.6115 -1.5971 -0.4302
 9208TIP3    H249040   4.773   4.288  17.265  1.4530  0.2356 -1.1985
 9209TIP3   OH249041   4.484   0.002  14.501 -0.1581  0.2681 -0.7260
 9209TIP3    H149042   4.436  -0.079  14.517 -0.4123  0.4722 -0.4706
 9209TIP3    H249043   4.441   0.068  14.555 -0.0597  0.6138 -1.0637
 9210TIP3   OH249044   5.854   1.185  12.424 -0.0499 -0.0474 -0.2966
 9210TIP3    H149045   5.839   1.095  12.453  2.7491 -0.8170 -0.9027
 9210TIP3    H249046   5.818   1.189  12.336 -2.9262  0.4104  0.8168
 9211TIP3   OH249047   1.235   6.692  14.045 -0.0311 -0.4175 -0.0020
 9211TIP3    H149048   1.196   6.778  14.031  0.1700 -0.1998  0.7535
 9211TIP3    H249049   1.287   6.676  13.966  1.4695  0.9766  0.6615
 9212TIP3   OH249050   3.425   2.961   4.618  0.1961 -0.0962  0.8879
 9212TIP3    H149051   3.496   2.963   4.682  0.3596 -0.4767  0.7193
 9212TIP3    H249052   3.348   2.994   4.666  1.0155  2.8219  0.3865
 9213TIP3   OH249053   3.459   0.725   3.604 -0.5175 -0.1122 -0.4434
 9213TIP3    H149054   3.367   0.704   3.593 -0.6334  1.4432 -3.6292
 9213TIP3    H249055   3.460   0.809   3.649 -0.6943  0.1170 -0.8626
 9214TIP3   OH249056   4.521   4.399   4.345  0.7095  0.0734  0.0050
 9214TIP3    H149057   4.553   4.373   4.258 -0.3970 -1.5031  0.0241
 9214TIP3    H249058   4.569   4.343   4.406 -1.9441 -2.4297  0.0249
 9215TIP3   OH249059   6.628   5.630   2.135  0.1930  0.1957 -0.0231
 9215TIP3    H149060   6.646   5.687   2.209  1.3779  0.0774 -0.1929
 9215TIP3    H249061   6.686   5.662   2.065  0.5960 -0.9382 -0.2454
 9216TIP3   OH249062   5.823   4.632   1.499 -0.3339  0.3895 -0.1570
 9216TIP3    H149063   5.756   4.691   1.533  0.8754  2.1191 -0.6391
 9216TIP3    H249064   5.799   4.618   1.408  0.9439  2.5907 -0.8903
 9217TIP3   OH249065   0.800   2.198   3.122 -0.1333  0.2302 -0.3892
 9217TIP3    H149066   0.734   2.177   3.057  0.6708 -0.3759 -1.0330
 9217TIP3    H249067   0.883   2.185   3.076  0.4878 -1.4439  1.1093
 9218TIP3   OH249068   2.666   5.722   5.413 -0.3609  0.4824 -0.0475
 9218TIP3    H149069   2.675   5.765   5.328  2.5021  0.3740  0.1067
 9218TIP3    H249070   2.572   5.715   5.426 -0.8968  1.4822 -2.6986
 9219TIP3   OH249071   3.892   2.688   4.504 -0.0490  0.0000 -0.1252
 9219TIP3    H149072   3.883   2.674   4.410  0.6559 -1.5985  0.0095
 9219TIP3    H249073   3.986   2.678   4.521 -0.1651  0.2705  0.7496
 9220TIP3   OH249074   3.266   4.911   0.873 -0.0505  0.0525 -0.2899
 9220TIP3    H149075   3.197   4.844   0.872  0.7035 -0.7437 -0.4759
 9220TIP3    H249076   3.329   4.881   0.808  1.0656  0.1249  0.7179
 9221TIP3   OH249077   1.203   2.538  15.786  0.2931  0.0661 -0.5664
 9221TIP3    H149078   1.117   2.498  15.798  0.0298  0.7498 -0.1645
 9221TIP3    H249079   1.232   2.506  15.700  0.2952 -1.3461 -0.0764
 9222TIP3   OH249080   6.525   0.850   4.132 -0.0456  0.7256  0.1173
 9222TIP3    H149081   6.571   0.861   4.049  0.3843  0.7611  0.3578
 9222TIP3    H249082   6.540   0.932   4.179 -0.5623  0.8360  0.0977
 9223TIP3   OH249083   5.591   1.706   0.292  0.5947 -0.4947  0.0201
 9223TIP3    H149084   5.635   1.790   0.306 -0.0254 -0.1149 -0.2829
 9223TIP3    H249085   5.536   1.720   0.215  2.0537 -1.7926 -1.3453
 9224TIP3   OH249086   4.756   0.334   5.101  0.2429 -0.4938  0.3838
 9224TIP3    H149087   4.790   0.410   5.053  1.6536  0.0995  2.2004
 9224TIP3    H249088   4.833   0.298   5.145 -0.7676 -1.8063  1.1365
 9225TIP3   OH249089   5.208   6.608  12.861  0.0341 -0.6091  0.5122
 9225TIP3    H149090   5.263   6.671  12.814 -2.0542 -0.5066 -2.0058
 9225TIP3    H249091   5.254   6.525  12.852  0.2747 -0.3643 -0.6684
 9226TIP3   OH249092   4.681   1.587   1.704 -0.0443 -0.4420 -0.4592
 9226TIP3    H149093   4.624   1.638   1.762 -0.6752  0.2007 -1.6026
 9226TIP3    H249094   4.746   1.548   1.762 -0.2179  0.7684  0.5855
 9227TIP3   OH249095   3.399   6.159  15.674  0.1413  0.2683 -0.0659
 9227TIP3    H149096   3.400   6.230  15.610 -0.4898 -0.2220 -0.6377
 9227TIP3    H249097   3.321   6.108  15.652 -0.6762  0.6423  1.7193
 9228TIP3   OH249098   4.577   6.104   3.532  0.1660  0.5150 -0.1731
 9228TIP3    H149099   4.516   6.055   3.478 -1.1889  2.1575 -0.2463
 9228TIP3    H249100   4.536   6.105   3.619 -0.0933  1.8684 -0.2856
 9229TIP3   OH249101   5.410   1.221  12.255 -0.3815  0.2105 -0.0046
 9229TIP3    H149102   5.469   1.247  12.325 -0.1383  0.4393 -0.2913
 9229TIP3    H249103   5.382   1.132  12.278  0.9477 -0.3347 -0.4323
 9230TIP3   OH249104   3.450   3.220   0.180 -0.4515  0.4728 -0.3535
 9230TIP3    H149105   3.501   3.150   0.221  3.1934  3.0073 -0.0790
 9230TIP3    H249106   3.479   3.221   0.089 -0.0759  1.8481 -0.2457
 9231TIP3   OH249107   1.056   5.062   5.072 -0.1212  0.2603 -0.4442
 9231TIP3    H149108   1.123   5.002   5.038  0.5110  0.9164 -0.3833
 9231TIP3    H249109   1.106   5.128   5.119 -0.7450  1.3688 -1.3045
 9232TIP3   OH249110   4.337   5.435   2.168 -0.0648 -0.2862  0.0109
 9232TIP3    H149111   4.268   5.370   2.151 -0.9141  0.5630  0.1553
 9232TIP3    H249112   4.293   5.506   2.214  0.0703  1.9651 -3.0269
 9233TIP3   OH249113   0.766   5.303   4.672 -0.2192 -0.9596 -0.6444
 9233TIP3    H149114   0.768   5.378   4.731  2.1884 -1.2892 -0.1793
 9233TIP3    H249115   0.794   5.229   4.726 -0.0219 -1.6734 -1.6880
 9234TIP3   OH249116   0.746   0.206  12.233 -0.0578 -0.2412  0.2658
 9234TIP3    H149117   0.731   0.296  12.202  0.8969  0.0903  0.7461
 9234TIP3    H249118   0.658   0.169  12.240 -0.3839 -0.2751 -2.6133
 9235TIP3   OH249119   3.146   1.008  17.343  0.2036  0.1936  0.2737
 9235TIP3    H149120   3.232   0.969  17.331  0.0903 -0.3385  1.1821
 9235TIP3    H249121   3.106   1.005  17.255  0.4382 -1.1340  0.1975
 9236TIP3   OH249122   2.443   0.942  11.792  0.3335 -0.7711 -0.4882
 9236TIP3    H149123   2.479   1.004  11.729  0.1909  0.3143  0.4699
 9236TIP3    H249124   2.519   0.907  11.838  0.2895  0.4017  0.5119
 9237TIP3   OH249125   4.922   1.352  14.772 -0.0448 -0.5115 -0.3746
 9237TIP3    H149126   4.924   1.395  14.857  1.0373  0.7246 -0.9917
 9237TIP3    H249127   4.830   1.329  14.758 -0.2366 -0.6657  1.0740
 9238TIP3   OH249128   4.160   6.286  13.030  0.7065  0.2968 -0.1070
 9238TIP3    H149129   4.073   6.325  13.028  0.8891  0.7618  0.6176
 9238TIP3    H249130   4.152   6.212  13.090  0.5367 -0.3597 -0.9251
 9239TIP3   OH249131   4.713   4.308   5.958  0.4099 -0.1904  0.5884
 9239TIP3    H149132   4.682   4.226   5.919 -1.2064  0.5733  0.1831
 9239TIP3    H249133   4.644   4.334   6.018  0.7278  1.0433  0.4532
 9240TIP3   OH249134   0.755   3.535  14.844 -0.2579  0.4102  0.0296
 9240TIP3    H149135   0.768   3.586  14.924  1.5827  2.7990 -1.6407
 9240TIP3    H249136   0.671   3.565  14.810 -0.3183  0.5277  0.2850
 9241TIP3   OH249137   5.406   5.371  14.155 -0.0584  0.2934  0.2733
 9241TIP3    H149138   5.356   5.452  14.169  1.0106  0.6007  2.8165
 9241TIP3    H249139   5.497   5.398  14.157  0.3158 -0.9405  1.0596
 9242TIP3   OH249140   2.205   1.383  12.272 -0.0237 -0.0763  0.2614
 9242TIP3    H149141   2.287   1.378  12.223  1.1584 -0.5113  2.1989
 9242TIP3    H249142   2.224   1.441  12.346 -0.4548 -2.5194  2.4392
 9243TIP3   OH249143   4.400   1.219   5.235 -0.2230  0.0873 -0.3838
 9243TIP3    H149144   4.331   1.207   5.301 -1.7162 -0.0363 -1.8973
 9243TIP3    H249145   4.406   1.313   5.223 -1.8646  0.0640 -1.9044
 9244TIP3   OH249146   3.990   5.886  14.926 -0.5193  0.5901 -0.0887
 9244TIP3    H149147   3.907   5.920  14.893 -1.7706 -1.4037  0.8013
 9244TIP3    H249148   4.022   5.954  14.986 -0.6236  2.0972 -1.6660
 9245TIP3   OH249149   1.178   0.983   1.711  0.1592  0.2062  0.0258
 9245TIP3    H149150   1.240   0.982   1.784  0.9601  1.7060 -0.5937
 9245TIP3    H249151   1.232   0.975   1.633 -0.5943 -0.2286 -0.4637
 9246TIP3   OH249152   5.051   3.543   3.334 -0.2626 -0.1697 -0.1804
 9246TIP3    H149153   4.984   3.565   3.270 -0.0663 -0.3890 -0.4615
 9246TIP3    H249154   5.003   3.534   3.417 -0.7256 -1.2300 -0.5491
 9247TIP3   OH249155   5.411   0.002   5.142 -0.6698 -0.3540 -0.1548
 9247TIP3    H149156   5.436  -0.089   5.126  1.5011  0.3116 -0.8477
 9247TIP3    H249157   5.491   0.044   5.172 -2.0000  1.0167  1.6737
 9248TIP3   OH249158   0.256   2.950  15.175 -0.0448  0.2196  0.2033
 9248TIP3    H149159   0.222   2.927  15.089  0.3909 -2.2187  0.5891
 9248TIP3    H249160   0.334   2.894  15.185 -1.5537 -1.6033  3.1487
 9249TIP3   OH249161   5.124   5.803  11.668  0.8855 -0.1174 -0.0532
 9249TIP3    H149162   5.108   5.800  11.574  2.0373 -0.3489 -0.2632
 9249TIP3    H249163   5.171   5.886  11.682  2.1236 -0.8087  0.0552
 9250TIP3   OH249164   2.507   0.575  14.843 -0.1555 -0.1927 -0.1340
 9250TIP3    H149165   2.586   0.522  14.857  0.6532  1.0974  0.3258
 9250TIP3    H249166   2.511   0.642  14.911 -0.8399  0.8097 -1.0611
 9251TIP3   OH249167   0.999   2.113   0.503 -0.4086 -0.4106 -0.0898
 9251TIP3    H149168   0.934   2.132   0.570 -1.3336 -1.2356 -0.7312
 9251TIP3    H249169   0.967   2.156   0.424 -0.3731 -1.1188 -0.4984
 9252TIP3   OH249170   1.248   2.968   4.916  0.1266  0.4253 -0.4009
 9252TIP3    H149171   1.330   2.984   4.961  0.2126 -0.1769 -0.3293
 9252TIP3    H249172   1.272   2.959   4.823  0.2959 -0.7777 -0.2562
 9253TIP3   OH249173   4.854   6.678   1.518  0.0180  0.3258  0.1915
 9253TIP3    H149174   4.875   6.745   1.584  0.1685 -0.2471  0.7325
 9253TIP3    H249175   4.878   6.595   1.559  0.6400 -0.0077 -0.8002
 9254TIP3   OH249176   0.672   4.744   3.596 -0.4246  0.3711  0.4885
 9254TIP3    H149177   0.717   4.806   3.653 -0.6738  2.2036 -1.2054
 9254TIP3    H249178   0.675   4.784   3.509 -3.8080 -0.2333 -0.0453
 9255TIP3   OH249179   6.682   4.305   6.780 -0.6605 -0.1810  0.2008
 9255TIP3    H149180   6.691   4.364   6.854  2.6667  1.1263 -1.0204
 9255TIP3    H249181   6.663   4.361   6.706  0.3650 -0.8822 -0.6255
 9256TIP3   OH249182   3.595   1.213  15.679 -0.1894 -0.2740  0.0146
 9256TIP3    H149183   3.615   1.304  15.656 -2.6668 -0.1291 -2.0860
 9256TIP3    H249184   3.523   1.220  15.742 -1.0319 -0.7426 -0.8756
 9257TIP3   OH249185   4.382   1.373  13.589  0.1744 -0.1457 -0.4136
 9257TIP3    H149186   4.323   1.302  13.563  1.4082 -1.7104  0.8176
 9257TIP3    H249187   4.421   1.343  13.671  1.0398  1.8143 -0.0416
 9258TIP3   OH249188   4.897   3.280   0.283 -0.0858 -0.2563  0.3816
 9258TIP3    H149189   4.889   3.367   0.244 -1.0998 -0.0636  0.9905
 9258TIP3    H249190   4.818   3.269   0.335  2.1125  0.4650  4.2956
 9259TIP3   OH249191   3.934   4.221  17.521 -0.5150 -0.1188 -0.1624
 9259TIP3    H149192   3.892   4.136  17.508  0.0075 -0.4824  0.4382
 9259TIP3    H249193   3.882   4.282  17.469 -0.4717 -0.9234 -1.1683
 9260TIP3   OH249194   3.966   2.853   1.591  0.0286  0.0688 -0.4065
 9260TIP3    H149195   3.917   2.832   1.670  1.9796 -0.2335  0.8099
 9260TIP3    H249196   3.955   2.948   1.580  0.0891  0.1898  0.5041
 9261TIP3   OH249197   5.462   3.400  17.086 -0.0976  0.3322  0.7018
 9261TIP3    H149198   5.384   3.437  17.130  0.3515  1.0714  0.9008
 9261TIP3    H249199   5.536   3.445  17.127  0.4379 -0.3183  0.4677
 9262TIP3   OH249200   4.891   5.947   3.823  0.0114 -0.4084 -0.0281
 9262TIP3    H149201   4.824   5.979   3.884  2.7446  1.5694  2.1969
 9262TIP3    H249202   4.865   5.983   3.738 -1.8401  0.0754  0.6819
 9263TIP3   OH249203   3.413   6.626  16.062  0.0982  0.4383  0.1794
 9263TIP3    H149204   3.461   6.565  16.005  1.6817  0.9890  0.8546
 9263TIP3    H249205   3.451   6.712  16.042 -1.5418  1.1140 -0.1765
 9264TIP3   OH249206   3.996   2.252  17.044  0.1765  0.4807  0.2332
 9264TIP3    H149207   3.956   2.169  17.071  1.0271  0.1959  0.6678
 9264TIP3    H249208   4.079   2.227  17.004  0.6600  1.1416  0.7947
 9265TIP3   OH249209   4.880   3.414   2.133  0.0476  0.6993 -0.1101
 9265TIP3    H149210   4.890   3.321   2.114  0.5171  0.7961 -0.3473
 9265TIP3    H249211   4.943   3.457   2.076 -0.0094  1.1495  0.1616
 9266TIP3   OH249212   3.923   4.864  13.751  0.5680  0.4057 -0.9526
 9266TIP3    H149213   4.006   4.820  13.731  0.6631  0.2689 -0.2777
 9266TIP3    H249214   3.882   4.809  13.818  0.1860  0.7667 -0.8856
 9267TIP3   OH249215   4.202   2.585   5.182 -0.0427 -0.7832 -0.3379
 9267TIP3    H149216   4.190   2.662   5.239 -0.9179 -0.5823 -0.7924
 9267TIP3    H249217   4.246   2.620   5.104  0.0233 -0.8401 -0.3267
 9268TIP3   OH249218   3.799   6.458   6.532  0.4188 -0.1019  0.8026
 9268TIP3    H149219   3.849   6.505   6.599 -0.3945 -1.5938  2.5434
 9268TIP3    H249220   3.707   6.475   6.554  0.1254 -1.6592  0.8901
 9269TIP3   OH249221   1.158   6.377   4.435  0.4978  0.0182  0.1965
 9269TIP3    H149222   1.119   6.463   4.447 -0.7471 -0.3916 -0.7186
 9269TIP3    H249223   1.236   6.378   4.491 -0.3408  1.1681  1.3972
 9270TIP3   OH249224   2.027   0.653  11.878 -0.1642  0.1473  0.2262
 9270TIP3    H149225   2.050   0.713  11.807  1.0410 -0.1810  0.3308
 9270TIP3    H249226   2.100   0.592  11.884 -2.6273 -3.3647 -1.9326
 9271TIP3   OH249227   1.488   4.300   1.401  0.1027 -0.1580  0.1248
 9271TIP3    H149228   1.481   4.208   1.429 -0.7503  0.1151  0.8736
 9271TIP3    H249229   1.398   4.323   1.376 -0.2752  1.2384  2.4817
 9272TIP3   OH249230   1.679   5.921  16.484 -0.1922  0.8056  0.3697
 9272TIP3    H149231   1.602   5.886  16.439 -1.3504 -0.2499  2.9155
 9272TIP3    H249232   1.688   5.864  16.561  4.6434 -0.6941 -0.9668
 9273TIP3   OH249233   2.188   3.804   6.138  0.5147 -0.5304 -0.1646
 9273TIP3    H149234   2.239   3.807   6.058 -0.7640  0.8731 -0.9781
 9273TIP3    H249235   2.108   3.758   6.114  0.4281 -0.7368  0.4980
 9274TIP3   OH249236   3.318   6.126   4.047 -0.5670 -0.2984  0.6916
 9274TIP3    H149237   3.381   6.154   4.113  0.8360  2.1167 -1.4490
 9274TIP3    H249238   3.256   6.199   4.041 -0.2039 -0.0867 -1.1175
 9275TIP3   OH249239   0.226   0.459  14.023  0.2752  0.5137 -0.3024
 9275TIP3    H149240   0.134   0.439  14.009  0.3942 -1.4418  1.3121
 9275TIP3    H249241   0.271   0.375  14.013  1.6364  1.0643  0.8023
 9276TIP3   OH249242   3.761   2.262   2.732 -0.1169  0.5801 -0.1594
 9276TIP3    H149243   3.833   2.219   2.687 -0.1530  0.2195  0.1187
 9276TIP3    H249244   3.691   2.267   2.666  0.3347  1.4069 -0.5861
 9277TIP3   OH249245   3.655   3.925   0.030 -0.4313  0.5049 -0.2293
 9277TIP3    H149246   3.642   4.014   0.062 -1.6353  0.2130  0.1730
 9277TIP3    H249247   3.703   3.882   0.100 -0.6539  0.6044 -0.0115
 9278TIP3   OH249248   3.678   5.929  12.369  0.1863 -0.2203 -0.1879
 9278TIP3    H149249   3.713   5.985  12.300  1.8123 -2.1298 -0.9895
 9278TIP3    H249250   3.737   5.943  12.444  0.1725 -0.3173 -0.1586
 9279TIP3   OH249251   3.804   2.595  14.844  0.5466  0.0323 -0.1016
 9279TIP3    H149252   3.877   2.538  14.864  2.0972  1.6373 -0.8477
 9279TIP3    H249253   3.830   2.640  14.763 -1.5390  0.2275 -0.7422
 9280TIP3   OH249254   3.607   4.387   0.516 -0.4226 -0.1394 -0.0259
 9280TIP3    H149255   3.520   4.354   0.492 -0.7817 -0.1433  1.2123
 9280TIP3    H249256   3.590   4.472   0.556  0.2941  0.5143 -1.0703
 9281TIP3   OH249257   1.993   3.779   3.932  0.0694 -0.4082 -0.5481
 9281TIP3    H149258   1.929   3.781   3.860 -0.2763 -0.8663 -0.2590
 9281TIP3    H249259   2.028   3.690   3.929  0.4601 -0.2586 -0.4941
 9282TIP3   OH249260   6.690   1.418   3.999  0.1284 -0.2512 -0.2254
 9282TIP3    H149261   6.605   1.428   4.042 -0.1526 -0.8032 -0.6332
 9282TIP3    H249262   6.753   1.416   4.071 -0.5110 -3.1857  0.3878
 9283TIP3   OH249263   4.378   2.667  15.387 -0.7584 -0.1448 -0.3199
 9283TIP3    H149264   4.322   2.701  15.456  0.9075  1.4077  0.3418
 9283TIP3    H249265   4.345   2.708  15.307 -1.2619 -0.1298 -0.1086
 9284TIP3   OH249266   5.745   5.756   5.185 -0.5204  0.0301 -0.1539
 9284TIP3    H149267   5.735   5.707   5.104  1.1741 -0.3058 -0.1976
 9284TIP3    H249268   5.740   5.690   5.254 -0.5255  0.1105 -0.0770
 9285TIP3   OH249269   5.168   0.018   5.767 -0.1367  0.2181 -0.0547
 9285TIP3    H149270   5.089  -0.015   5.810 -1.8780 -0.2332 -3.2448
 9285TIP3    H249271   5.144   0.105   5.735  0.8878  0.3402 -0.5313
 9286TIP3   OH249272   4.920   3.998  12.907  0.0583 -0.0865 -0.2209
 9286TIP3    H149273   4.855   4.040  12.964  1.0254  1.0445  0.0975
 9286TIP3    H249274   4.952   3.924  12.958 -0.4925 -0.2407 -0.0973
 9287TIP3   OH249275   5.684   2.831  15.085  0.1416  0.6056  0.1876
 9287TIP3    H149276   5.666   2.924  15.100 -1.9004  0.2390  0.4071
 9287TIP3    H249277   5.609   2.801  15.034  1.0373 -0.8182 -0.3285
 9288TIP3   OH249278   4.208   5.898  14.730  0.6081 -0.1403  0.1750
 9288TIP3    H149279   4.158   5.979  14.730 -0.5876 -0.8141 -1.2641
 9288TIP3    H249280   4.149   5.833  14.768  0.9404 -0.6553 -0.1751
 9289TIP3   OH249281   6.333   1.527  13.188  0.0911 -0.0911  0.4379
 9289TIP3    H149282   6.337   1.479  13.105 -0.3446 -0.0355  0.3802
 9289TIP3    H249283   6.366   1.465  13.253 -1.7963 -1.0052  0.5918
 9290TIP3   OH249284   2.974   1.006  14.205 -0.5519  0.3357 -0.2536
 9290TIP3    H149285   2.991   0.993  14.298 -0.7439  0.0818 -0.2503
 9290TIP3    H249286   2.879   1.005  14.198 -0.5509 -1.9001 -0.7378
 9291TIP3   OH249287   4.359   3.287  14.845 -0.0059  0.0228  0.7865
 9291TIP3    H149288   4.446   3.311  14.815 -0.0767  0.2503  0.7635
 9291TIP3    H249289   4.373   3.243  14.929 -0.0000  1.5272  1.5922
 9292TIP3   OH249290   0.038   3.908  17.453  0.2815  0.1621 -0.6427
 9292TIP3    H149291  -0.012   3.937  17.377 -0.9090  1.2519  0.5194
 9292TIP3    H249292   0.130   3.915  17.424 -0.1527 -1.7228 -2.7471
 9293TIP3   OH249293   4.149   4.683  13.723  0.3971 -0.5168  0.2633
 9293TIP3    H149294   4.194   4.738  13.787  0.7621 -0.8557  0.3007
 9293TIP3    H249295   4.157   4.594  13.757  0.4928 -0.6858 -0.1892
 9294TIP3   OH249296   1.713   5.208   3.024  0.0090  0.1920  0.3657
 9294TIP3    H149297   1.721   5.273   2.954 -0.9996  2.6820  2.3893
 9294TIP3    H249298   1.783   5.229   3.085 -1.6358  0.8551  2.1140
 9295TIP3   OH249299   2.857   0.304   2.803  0.2862  0.0870  0.1348
 9295TIP3    H149300   2.858   0.341   2.892 -0.5898 -0.0132  0.1964
 9295TIP3    H249301   2.800   0.362   2.754  0.2709 -0.2163 -0.2101
 9296TIP3   OH249302   1.579   3.765   4.345  0.0698 -0.3003 -0.4864
 9296TIP3    H149303   1.488   3.789   4.323  0.1153 -0.2804 -0.6537
 9296TIP3    H249304   1.627   3.778   4.264  0.6489  1.8416  0.1460
 9297TIP3   OH249305   0.440   1.506  11.334  0.2507 -0.1923 -0.9207
 9297TIP3    H149306   0.484   1.561  11.399  0.2741 -0.6385 -0.5506
 9297TIP3    H249307   0.382   1.449  11.385 -0.3073 -0.0271 -1.3546
 9298TIP3   OH249308   2.825   3.817  14.906 -0.7639 -0.0202 -1.0018
 9298TIP3    H149309   2.893   3.849  14.965  0.1113 -0.7731 -1.5738
 9298TIP3    H249310   2.789   3.896  14.866 -1.0041  0.4605  0.1276
 9299TIP3   OH249311   4.136   0.088  17.538 -0.4021  0.5833 -0.3971
 9299TIP3    H149312   4.085   0.034  17.478 -0.6545  0.6968 -0.2851
 9299TIP3    H249313   4.227   0.060  17.524 -0.4641  0.5777 -0.7966
 9300TIP3   OH249314   2.770   3.658  17.109 -0.0125 -0.1721  0.2608
 9300TIP3    H149315   2.703   3.669  17.041  0.6235  0.7471 -0.2363
 9300TIP3    H249316   2.725   3.682  17.190 -0.4881 -0.2731  0.0356
 9301TIP3   OH249317   3.281   2.582   0.998 -0.5098  0.2286 -0.1655
 9301TIP3    H149318   3.297   2.496   1.037  0.1478  0.2021 -0.4768
 9301TIP3    H249319   3.295   2.569   0.904 -0.0700  0.7495 -0.1778
 9302TIP3   OH249320   2.335   0.411   1.694  0.3623  0.0173 -0.1610
 9302TIP3    H149321   2.263   0.469   1.719  0.8226 -0.3305  2.1926
 9302TIP3    H249322   2.302   0.323   1.711  0.6357 -0.2606 -1.0534
 9303TIP3   OH249323   4.559   5.579  16.376  0.1588  0.0106  0.0788
 9303TIP3    H149324   4.612   5.507  16.342  1.3750  1.1380 -0.4654
 9303TIP3    H249325   4.487   5.535  16.422  2.2279 -1.6216  2.0110
 9304TIP3   OH249326   3.014   2.099  11.757 -0.3378  0.1432 -0.7628
 9304TIP3    H149327   3.080   2.116  11.824 -1.0380 -1.1530  0.3169
 9304TIP3    H249328   2.956   2.175  11.761  2.2383  2.5215 -3.3693
 9305TIP3   OH249329   4.279   4.322   4.476 -0.0703 -0.2013 -0.2730
 9305TIP3    H149330   4.334   4.352   4.403 -1.4464  0.4344 -1.0927
 9305TIP3    H249331   4.225   4.253   4.438  0.3725 -1.0637  0.6146
 9306TIP3   OH249332   6.700   4.451   4.472  0.0584  0.1938  0.0472
 9306TIP3    H149333   6.697   4.540   4.437 -2.6965  1.1423  2.3193
 9306TIP3    H249334   6.738   4.461   4.559 -2.6624 -0.3496  1.3678
 9307TIP3   OH249335   0.412   3.469  14.814 -0.0703  0.2480  0.2157
 9307TIP3    H149336   0.363   3.447  14.893  1.3695 -1.1971  0.7736
 9307TIP3    H249337   0.346   3.472  14.744 -1.2141  0.5174  1.2849
 9308TIP3   OH249338   4.794   4.780  17.190  0.1332  0.4312  0.0187
 9308TIP3    H149339   4.883   4.816  17.181  0.0373  0.4288 -1.0206
 9308TIP3    H249340   4.741   4.854  17.218  0.7243  0.0926  2.2015
 9309TIP3   OH249341   2.226   2.990  12.062 -0.4140  0.1130 -0.1196
 9309TIP3    H149342   2.181   2.923  12.114 -1.2845 -1.0618 -2.2885
 9309TIP3    H249343   2.239   3.062  12.124  1.6056 -2.3760  2.6472
 9310TIP3   OH249344   2.633   5.700   2.894  0.2720  0.5114  0.1499
 9310TIP3    H149345   2.564   5.638   2.869  0.8720  1.1091 -3.5119
 9310TIP3    H249346   2.691   5.650   2.952 -1.0130 -1.2727 -0.0310
 9311TIP3   OH249347   4.500   1.707  13.829  0.1902 -0.5049  0.2462
 9311TIP3    H149348   4.587   1.670  13.816 -0.2141 -1.1833 -0.5866
 9311TIP3    H249349   4.505   1.794  13.789  1.0442  0.2788  1.9319
 9312TIP3   OH249350   6.295   2.597  14.725  0.4718  0.1510  0.3277
 9312TIP3    H149351   6.246   2.520  14.755 -0.1318  1.1240  1.9416
 9312TIP3    H249352   6.246   2.627  14.648 -0.5822  0.1697  0.9811
 9313TIP3   OH249353   0.716   4.418   2.175 -0.0105 -0.3106 -0.5110
 9313TIP3    H149354   0.722   4.326   2.148 -2.2505 -0.2177 -1.4779
 9313TIP3    H249355   0.754   4.466   2.102  0.2427 -0.4094 -0.4461
 9314TIP3   OH249356   5.718   3.967  12.999  0.3461 -0.1396 -0.1005
 9314TIP3    H149357   5.654   3.952  12.930 -2.7130  2.6204  1.8807
 9314TIP3    H249358   5.759   4.050  12.977 -0.5048  0.6613  1.2028
 9315TIP3   OH249359   2.635   0.405  14.594 -0.3207 -0.9491 -0.4070
 9315TIP3    H149360   2.599   0.381  14.680  0.2856  1.1990  0.5202
 9315TIP3    H249361   2.685   0.485  14.611  1.9850 -1.8653 -2.2979
 9316TIP3   OH249362   4.223   6.026  17.328  0.1463  0.3776  0.1253
 9316TIP3    H149363   4.192   6.112  17.300  0.8671  0.5994 -0.0130
 9316TIP3    H249364   4.313   6.041  17.357 -0.0587 -0.1383  1.0771
 9317TIP3   OH249365   2.400   4.593   3.766 -0.3827 -0.1711 -0.1301
 9317TIP3    H149366   2.414   4.620   3.675  0.6999  0.0583  0.0875
 9317TIP3    H249367   2.350   4.665   3.805 -0.2491  0.0585 -0.3735
 9318TIP3   OH249368   1.689   1.382  15.023 -0.0423 -0.2713  0.6373
 9318TIP3    H149369   1.604   1.338  15.028 -0.7116  1.0517  1.6257
 9318TIP3    H249370   1.672   1.463  14.975  0.5882  0.1378  1.0764
 9319TIP3   OH249371   5.530   0.748  12.695  0.4881 -0.4728 -0.1880
 9319TIP3    H149372   5.542   0.702  12.612 -0.9928  1.2418 -1.4343
 9319TIP3    H249373   5.599   0.814  12.695 -0.5622  0.6797 -0.9658
 9320TIP3   OH249374   6.606   1.153   5.240  0.3997 -0.1625  0.4251
 9320TIP3    H149375   6.584   1.234   5.286 -0.6002 -0.0730 -0.1952
 9320TIP3    H249376   6.535   1.093   5.262  1.1971 -0.9266  0.9753
 9321TIP3   OH249377   4.059   6.679  15.475 -0.1332  0.5282  0.1120
 9321TIP3    H149378   4.038   6.747  15.539 -1.0749  1.5724 -1.2611
 9321TIP3    H249379   4.149   6.698  15.447 -0.4872  1.3835 -0.4635
 9322TIP3   OH249380   1.520   3.328   3.796 -0.6201 -0.2930 -0.4188
 9322TIP3    H149381   1.451   3.390   3.776 -0.6418  0.1236  0.9119
 9322TIP3    H249382   1.555   3.303   3.710 -1.5974  0.4070 -1.0363
 9323TIP3   OH249383   0.152   2.600  12.219  0.3530 -0.4307 -0.4108
 9323TIP3    H149384   0.233   2.625  12.262  1.0908  0.3645 -2.1395
 9323TIP3    H249385   0.175   2.595  12.126 -1.2769 -1.4828 -0.8028
 9324TIP3   OH249386   3.313   0.090  15.788  0.0326 -0.1982 -0.3828
 9324TIP3    H149387   3.281   0.115  15.702 -0.0819  1.5171  0.1163
 9324TIP3    H249388   3.235   0.083  15.842  0.2163  0.4862 -0.0129
 9325TIP3   OH249389   4.084   4.464   2.410  0.2475  0.5085 -0.0043
 9325TIP3    H149390   4.004   4.414   2.394  1.2834 -1.2604  0.1690
 9325TIP3    H249391   4.118   4.431   2.493  2.3903 -0.4960 -1.2063
 9326TIP3   OH249392   0.965   3.892   5.298 -0.1333  0.2801 -0.2790
 9326TIP3    H149393   1.036   3.889   5.234 -0.3593  1.4681 -0.6126
 9326TIP3    H249394   0.885   3.878   5.247 -0.0965 -2.7380  0.3168
 9327TIP3   OH249395   3.333   0.703   3.038 -0.4636 -0.1353  0.3929
 9327TIP3    H149396   3.333   0.609   3.023  1.2523  0.0380 -0.9365
 9327TIP3    H249397   3.309   0.741   2.953  1.4633  0.6600  0.1510
 9328TIP3   OH249398   6.489   6.406  14.204  0.5658  0.2826  0.7507
 9328TIP3    H149399   6.488   6.357  14.286  0.7172 -0.1612  0.4902
 9328TIP3    H249400   6.466   6.496  14.230  0.1322  0.0488  1.2124
 9329TIP3   OH249401   6.083   2.889  11.365 -0.8090 -0.1719 -0.1482
 9329TIP3    H149402   6.144   2.818  11.349  0.2012  0.2153  1.7268
 9329TIP3    H249403   6.010   2.849  11.410 -0.1806 -0.0357  1.0258
 9330TIP3   OH249404   2.246   3.644  16.476 -0.2288 -0.6340  0.0186
 9330TIP3    H149405   2.288   3.730  16.477 -0.3077 -0.5392 -1.5573
 9330TIP3    H249406   2.163   3.657  16.522  0.2824 -0.1799  0.8426
 9331TIP3   OH249407   3.246   0.511   5.692 -0.2203  0.2379 -0.3693
 9331TIP3    H149408   3.294   0.501   5.774  0.8465  2.4872 -0.6209
 9331TIP3    H249409   3.167   0.560   5.716 -1.1018 -1.1459 -0.3622
 9332TIP3   OH249410   2.068   1.288   4.386 -0.4664  0.0737 -1.1129
 9332TIP3    H149411   2.024   1.205   4.405 -1.1102  0.8724  1.2312
 9332TIP3    H249412   1.998   1.353   4.381  0.2229  0.9775  0.3083
 9333TIP3   OH249413   4.885   6.200   0.927 -0.2564 -0.6572 -0.3458
 9333TIP3    H149414   4.928   6.166   1.006 -0.5617  0.8373  0.5000
 9333TIP3    H249415   4.949   6.261   0.890 -0.8844  0.1473 -0.1296
 9334TIP3   OH249416   1.108   2.038  15.431 -0.5534  0.1693  0.3662
 9334TIP3    H149417   1.077   2.104  15.369 -0.5781 -0.0815  0.1104
 9334TIP3    H249418   1.197   2.065  15.452  0.2684 -0.9417 -1.4746
 9335TIP3   OH249419   5.232   3.852  14.824  0.0108 -0.2734  0.1057
 9335TIP3    H149420   5.195   3.765  14.842  0.9019 -0.2698  2.1151
 9335TIP3    H249421   5.194   3.908  14.891 -0.6400  0.9484 -1.2448
 9336TIP3   OH249422   6.645   6.614  14.478 -0.0975  0.1217  0.1462
 9336TIP3    H149423   6.711   6.545  14.487 -0.3260  0.0223  1.1122
 9336TIP3    H249424   6.633   6.648  14.566 -2.9051 -1.3374  0.4530
 9337TIP3   OH249425   0.800   6.033   3.268  0.5015 -0.5035  0.6954
 9337TIP3    H149426   0.734   6.099   3.246  0.1231 -0.8773  0.7130
 9337TIP3    H249427   0.758   5.949   3.249  0.8270 -0.7579  1.0873
 9338TIP3   OH249428   4.211   2.833  14.841 -0.0013  0.3600 -0.2310
 9338TIP3    H149429   4.297   2.812  14.878 -0.3171 -0.5171  0.0360
 9338TIP3    H249430   4.216   2.926  14.819  0.2350  0.9259  1.9881
 9339TIP3   OH249431   1.078   6.660   5.275  0.0194 -0.3592  0.5912
 9339TIP3    H149432   1.113   6.642   5.187 -3.3598 -0.8871 -0.7991
 9339TIP3    H249433   1.094   6.580   5.324 -0.2192 -1.0066 -0.3520
 9340TIP3   OH249434   4.676   4.589  17.045 -0.1714  0.4606 -0.3096
 9340TIP3    H149435   4.722   4.629  17.119  0.5082  0.1829 -0.5754
 9340TIP3    H249436   4.585   4.582  17.075  0.0519  0.5503  0.4173
 9341TIP3   OH249437   0.189   1.593  16.826 -0.4037 -0.0138 -0.1270
 9341TIP3    H149438   0.129   1.665  16.808  0.3832  0.7218  0.1223
 9341TIP3    H249439   0.263   1.635  16.870  0.5027 -0.8344 -0.8559
 9342TIP3   OH249440   1.450   6.195  11.275  0.0663 -0.0325  0.5363
 9342TIP3    H149441   1.495   6.112  11.290  0.6416  0.4171  1.3448
 9342TIP3    H249442   1.368   6.170  11.231  1.4218 -0.7841 -1.6935
 9343TIP3   OH249443   0.860   2.287   1.275 -0.7826  0.6684  0.1324
 9343TIP3    H149444   0.932   2.324   1.328 -0.3730  1.2918 -0.8343
 9343TIP3    H249445   0.876   2.193   1.274 -0.9207  0.6150  1.2907
 9344TIP3   OH249446   5.700   6.159   0.296 -0.3205 -0.2096 -0.1752
 9344TIP3    H149447   5.670   6.231   0.239 -1.3371 -0.4753  0.0061
 9344TIP3    H249448   5.781   6.192   0.334 -0.7084  0.8141 -0.1801
 9345TIP3   OH249449   0.503   0.457  17.545 -0.8900 -0.4220  0.3449
 9345TIP3    H149450   0.488   0.549  17.566  2.7184  0.0795  1.3087
 9345TIP3    H249451   0.568   0.427  17.608 -0.0334 -2.9099 -1.5183
 9346TIP3   OH249452   1.544   2.359   0.554 -0.0964 -0.5612  0.7174
 9346TIP3    H149453   1.494   2.330   0.630  1.2363  0.6579  2.1405
 9346TIP3    H249454   1.612   2.292   0.543 -1.5947 -1.8940 -0.8312
 9347TIP3   OH249455   1.510   1.570   6.252  0.0319 -0.4820  0.4155
 9347TIP3    H149456   1.586   1.541   6.304 -0.0403  1.2822  1.5742
 9347TIP3    H249457   1.434   1.538   6.301 -0.0361  1.1777  1.4708
 9348TIP3   OH249458   2.297   0.270  14.504  0.4709  0.3903  0.2038
 9348TIP3    H149459   2.264   0.350  14.544  0.1550 -0.2573  1.2584
 9348TIP3    H249460   2.369   0.242  14.561 -1.9831 -2.2728  2.2807
 9349TIP3   OH249461   5.773   2.356   6.112 -0.3862 -0.4135 -0.0726
 9349TIP3    H149462   5.736   2.442   6.093 -0.0966 -0.4559 -0.8649
 9349TIP3    H249463   5.799   2.361   6.204  0.4845  0.6747 -0.3510
 9350TIP3   OH249464   3.068   1.704   1.413  0.3935 -0.0730 -0.4023
 9350TIP3    H149465   2.980   1.688   1.446  0.7166 -0.0895  0.4794
 9350TIP3    H249466   3.057   1.775   1.350 -0.4412 -0.9770 -1.3111
 9351TIP3   OH249467   5.940   2.444  16.918  0.2021  0.4386 -0.0282
 9351TIP3    H149468   5.881   2.509  16.956  0.2459  0.5213 -0.1029
 9351TIP3    H249469   5.906   2.360  16.949 -0.4987  0.4215 -0.7905
 9352TIP3   OH249470   2.923   1.202  15.110  0.4563  0.5740 -0.4643
 9352TIP3    H149471   2.953   1.179  15.022 -0.4262  0.2374 -0.6877
 9352TIP3    H249472   2.922   1.118  15.157 -1.6547  0.2778 -0.9390
 9353TIP3   OH249473   1.594   6.527   0.922 -0.5884 -0.4449  0.5015
 9353TIP3    H149474   1.634   6.443   0.901 -1.0791 -0.6960  0.5583
 9353TIP3    H249475   1.603   6.534   1.017 -2.0617 -1.2366  0.7328
 9354TIP3   OH249476   0.952   3.833  12.775 -0.6675 -0.2852  0.4446
 9354TIP3    H149477   0.943   3.782  12.694 -0.8557  1.6594 -0.8294
 9354TIP3    H249478   1.023   3.895  12.756 -2.0765  1.5763  0.9973
 9355TIP3   OH249479   1.151   1.645  12.207 -0.0328 -0.2808 -0.2227
 9355TIP3    H149480   1.111   1.568  12.247  0.3162 -0.4480 -0.1928
 9355TIP3    H249481   1.242   1.644  12.238  0.7288 -1.3244 -2.2570
 9356TIP3   OH249482   6.031   1.718  14.932  0.4604 -0.4479  0.0971
 9356TIP3    H149483   6.070   1.685  14.851  1.7622  0.0917  0.4861
 9356TIP3    H249484   6.010   1.809  14.913 -0.0304 -0.5560  0.1035
 9357TIP3   OH249485   1.019   0.046  15.647  0.3097 -0.0233  0.1398
 9357TIP3    H149486   1.018  -0.009  15.725  1.3874  1.2345  1.0893
 9357TIP3    H249487   0.978   0.128  15.675 -0.7886 -0.1049 -1.0988
 9358TIP3   OH249488   4.651   2.758   4.818 -0.5566 -0.3858 -0.4310
 9358TIP3    H149489   4.660   2.771   4.724  0.7532  2.1747 -0.0448
 9358TIP3    H249490   4.729   2.800   4.856 -1.6105 -0.3135  1.8389
 9359TIP3   OH249491   1.598   5.744   5.819  0.1082 -0.0551 -0.2570
 9359TIP3    H149492   1.647   5.665   5.842 -0.6199 -1.0143 -1.7624
 9359TIP3    H249493   1.538   5.715   5.750 -0.4541  1.7437 -0.5826
 9360TIP3   OH249494   6.430   3.963  16.104 -0.3243  0.9757  0.4070
 9360TIP3    H149495   6.351   3.969  16.158 -0.9273  1.4332 -0.4979
 9360TIP3    H249496   6.449   3.869  16.099 -0.9919  0.8378  0.3843
 9361TIP3   OH249497   2.819   5.787   4.309 -0.2244 -0.6610 -0.1575
 9361TIP3    H149498   2.806   5.694   4.292 -0.0272 -0.3137 -2.4771
 9361TIP3    H249499   2.750   5.831   4.259  0.2625  0.4857  0.1389
 9362TIP3   OH249500   4.116   5.247   0.324  0.2059 -0.0885  0.1238
 9362TIP3    H149501   4.201   5.276   0.358 -0.0606  0.3004  0.4796
 9362TIP3    H249502   4.099   5.307   0.251  0.2937 -0.2481 -0.0284
 9363TIP3   OH249503   1.796   6.402  11.962 -0.2394  0.0305 -0.6882
 9363TIP3    H149504   1.872   6.344  11.959 -0.9755 -0.9184 -2.3852
 9363TIP3    H249505   1.800   6.451  11.879 -0.8061  0.8489 -0.2443
 9364TIP3   OH249506   2.763   1.556   1.356  0.1588 -0.3343  0.6370
 9364TIP3    H149507   2.717   1.472   1.361  0.4936 -0.4652  1.8785
 9364TIP3    H249508   2.699   1.616   1.319 -0.0467 -1.1501 -0.4019
 9365TIP3   OH249509   5.849   0.544   4.857 -0.3729  0.4379  0.2999
 9365TIP3    H149510   5.881   0.475   4.914 -0.4504 -0.4779 -0.7309
 9365TIP3    H249511   5.926   0.571   4.807 -0.8127 -0.6248 -1.0182
 9366TIP3   OH249512   6.398   1.784   2.979 -0.5525 -0.3914  0.1836
 9366TIP3    H149513   6.381   1.873   3.010  1.1129  0.5772 -1.5284
 9366TIP3    H249514   6.403   1.732   3.059  0.1628  1.3639  1.3346
 9367TIP3   OH249515   6.646   3.652  15.646  0.0070  0.0529 -0.1043
 9367TIP3    H149516   6.557   3.620  15.637  0.2086 -0.7504  0.6577
 9367TIP3    H249517   6.685   3.598  15.715  1.3494 -0.2096 -1.0228
 9368TIP3   OH249518   1.151   4.100  16.815  0.2192 -0.0906  0.0250
 9368TIP3    H149519   1.098   4.166  16.769  1.4908  1.5138  0.7567
 9368TIP3    H249520   1.227   4.087  16.758  1.5660  1.5519  1.3417
 9369TIP3   OH249521   4.273   1.576  13.826  0.3775 -0.6532  0.0886
 9369TIP3    H149522   4.357   1.621  13.817  0.8702 -1.5678  0.0398
 9369TIP3    H249523   4.264   1.525  13.745 -0.4507 -0.2082 -0.1178
 9370TIP3   OH249524   0.559   1.559  11.603 -0.6939  0.0056 -0.7200
 9370TIP3    H149525   0.592   1.470  11.613  0.3564  0.5008  0.4977
 9370TIP3    H249526   0.605   1.594  11.527  0.6273  0.2470  0.1654
 9371TIP3   OH249527   1.728   4.198   2.595 -0.4572  0.4489  0.6230
 9371TIP3    H149528   1.686   4.114   2.614  0.4263 -0.2308 -0.3322
 9371TIP3    H249529   1.769   4.186   2.510  0.5195  1.5347  0.9074
 9372TIP3   OH249530   5.506   2.000  15.335 -0.4327 -0.1152 -0.2629
 9372TIP3    H149531   5.509   2.067  15.267 -1.3215  0.4924  0.2668
 9372TIP3    H249532   5.478   1.921  15.290 -0.9966  0.2736 -0.6114
 9373TIP3   OH249533   3.224   1.670  15.347 -0.1607 -0.4642 -0.1145
 9373TIP3    H149534   3.182   1.707  15.425  1.8371  1.8618 -0.0235
 9373TIP3    H249535   3.161   1.686  15.276 -0.5338  0.6504  0.4409
 9374TIP3   OH249536   4.480   1.048   6.654  0.4899  0.4930 -0.0608
 9374TIP3    H149537   4.493   1.034   6.747 -0.3717  0.6290  0.0889
 9374TIP3    H249538   4.547   1.112   6.630 -0.3518  1.7631  0.8376
 9375TIP3   OH249539   4.782   4.059  11.526 -0.0258  0.0738  0.3610
 9375TIP3    H149540   4.712   4.081  11.588 -0.7351  1.4305 -0.8520
 9375TIP3    H249541   4.859   4.104  11.561  0.1322 -0.9433  1.3849
 9376TIP3   OH249542   6.637   5.023  12.248  0.1728  0.0220 -0.3584
 9376TIP3    H149543   6.708   5.086  12.235  1.9640 -1.6634  0.6992
 9376TIP3    H249544   6.666   4.971  12.323 -1.5161 -1.6625 -0.8277
 9377TIP3   OH249545   5.766   2.157   0.701 -0.4263  0.0205  0.2725
 9377TIP3    H149546   5.793   2.069   0.674 -1.2536 -0.6252  1.4603
 9377TIP3    H249547   5.847   2.199   0.730  0.0146 -0.2432 -0.5308
 9378TIP3   OH249548   0.069   0.269  11.092  0.0611  0.3418  0.1360
 9378TIP3    H149549   0.099   0.341  11.147  1.1198 -1.3017  1.8206
 9378TIP3    H249550   0.021   0.212  11.152 -0.3286 -0.6242 -1.0508
 9379TIP3   OH249551   2.572   3.665   1.472  0.6181  0.5255  0.1092
 9379TIP3    H149552   2.538   3.618   1.548  1.4688  1.3908  1.0602
 9379TIP3    H249553   2.527   3.749   1.473 -0.6017 -0.0561 -1.3537
 9380TIP3   OH249554   1.386   4.281   2.504 -0.1634 -0.0200 -0.4801
 9380TIP3    H149555   1.355   4.268   2.594  2.7148 -0.4498  0.5691
 9380TIP3    H249556   1.401   4.192   2.471  1.1190  0.1548 -0.4337
 9381TIP3   OH249557   5.887   6.108  13.264  0.3705  0.0640 -0.6296
 9381TIP3    H149558   5.879   6.013  13.259  1.1977 -0.0596  0.0606
 9381TIP3    H249559   5.802   6.141  13.236 -0.1033 -0.8977 -0.3638
 9382TIP3   OH249560   4.778   4.467   6.782 -0.0071  0.0580  0.3131
 9382TIP3    H149561   4.798   4.492   6.692  0.7270  2.0115  0.9663
 9382TIP3    H249562   4.746   4.547   6.822  1.3395 -0.3071  2.2492
 9383TIP3   OH249563   3.929   1.952  12.069  0.0211  0.1213 -0.6845
 9383TIP3    H149564   3.841   1.987  12.059 -0.6559 -1.4228 -0.3534
 9383TIP3    H249565   3.960   1.940  11.979 -1.3715 -2.3013 -0.9168
 9384TIP3   OH249566   2.197   1.775   0.927  0.1736  0.3499 -0.1905
 9384TIP3    H149567   2.269   1.712   0.936  2.1286  2.5774  0.9404
 9384TIP3    H249568   2.175   1.773   0.834 -0.6311 -2.7081 -0.0552
 9385TIP3   OH249569   3.636   1.816  15.113 -0.2299 -0.6160  0.1846
 9385TIP3    H149570   3.716   1.764  15.125 -0.5076 -0.9213  0.7571
 9385TIP3    H249571   3.565   1.756  15.139 -0.5377  0.1463  1.1615
 9386TIP3   OH249572   1.876   0.673   0.395 -0.3761  0.5325 -0.9118
 9386TIP3    H149573   1.910   0.647   0.310  0.5915 -1.3775 -0.0155
 9386TIP3    H249574   1.893   0.767   0.401 -0.0682  0.6056 -2.6227
 9387TIP3   OH249575   0.995   6.560  14.002 -0.7421 -0.1298  0.8673
 9387TIP3    H149576   1.071   6.593  14.051 -0.6890  0.8224  0.1723
 9387TIP3    H249577   1.033   6.519  13.924 -0.9585  0.9517  0.1760
 9388TIP3   OH249578   1.122   4.197   1.051 -0.2851 -0.1045  0.0716
 9388TIP3    H149579   1.160   4.260   1.112  0.3036 -1.0258  0.7018
 9388TIP3    H249580   1.104   4.120   1.106 -0.2567 -0.7560 -0.8139
 9389TIP3   OH249581   5.397   4.108   2.507 -0.0908 -0.0256  0.2652
 9389TIP3    H149582   5.426   4.138   2.420  2.3157 -1.3152  0.5391
 9389TIP3    H249583   5.340   4.178   2.538  0.5968  1.4277 -1.5355
 9390TIP3   OH249584   3.740   1.292   4.489  0.6657 -0.2240 -0.2119
 9390TIP3    H149585   3.746   1.244   4.407 -0.7799  0.6815 -0.8925
 9390TIP3    H249586   3.831   1.313   4.511  1.0578  0.0242 -1.9104
 9391TIP3   OH249587   4.132   4.133  13.989 -0.3608  0.2205  0.6531
 9391TIP3    H149588   4.041   4.110  13.974 -1.6337  3.2621  2.7549
 9391TIP3    H249589   4.149   4.109  14.080  0.6253  0.5172  0.5602
 9392TIP3   OH249590   1.507   2.385   3.918  0.1291 -0.2515 -0.7602
 9392TIP3    H149591   1.418   2.413   3.936 -0.1409  1.3293 -3.8008
 9392TIP3    H249592   1.498   2.298   3.880 -0.4156  0.6161 -2.7613
 9393TIP3   OH249593   6.078   1.949   1.299  0.0291  0.0897  0.2836
 9393TIP3    H149594   6.010   1.988   1.244  2.0668  0.1841 -2.3788
 9393TIP3    H249595   6.158   1.960   1.249  1.7071 -1.8634  2.3362
 9394TIP3   OH249596   4.451   4.142  14.462  0.5636 -0.4547  0.1180
 9394TIP3    H149597   4.380   4.163  14.402 -0.4649  0.7710  1.6670
 9394TIP3    H249598   4.496   4.068  14.422 -1.6722 -1.3707 -0.8570
 9395TIP3   OH249599   0.486   5.403   1.470  0.5055 -0.1099  0.4551
 9395TIP3    H149600   0.473   5.371   1.559  1.3817  0.4231  0.7881
 9395TIP3    H249601   0.482   5.498   1.477  0.6608 -0.0624 -0.0580
 9396TIP3   OH249602   2.724   1.751   0.244 -0.1435 -0.9350 -0.9216
 9396TIP3    H149603   2.771   1.698   0.180  0.4470 -2.8000  0.9620
 9396TIP3    H249604   2.778   1.748   0.322 -1.0541  0.9256 -0.1493
 9397TIP3   OH249605   2.594   3.766   3.302 -0.7244 -0.5758  0.6861
 9397TIP3    H149606   2.650   3.837   3.270  1.0768 -0.8239  3.0571
 9397TIP3    H249607   2.648   3.719   3.365 -2.5881 -2.8118  0.7354
 9398TIP3   OH249608   1.303   3.162  17.411 -0.3921 -0.1309  0.2619
 9398TIP3    H149609   1.321   3.118  17.494 -1.1212 -0.7583  0.0895
 9398TIP3    H249610   1.226   3.118  17.375  0.3405 -0.3693 -1.1105
 9399TIP3   OH249611   5.681   4.529   4.136  0.0477 -0.1602  0.3152
 9399TIP3    H149612   5.648   4.554   4.223 -1.3129  2.3779 -0.8099
 9399TIP3    H249613   5.609   4.479   4.097  0.4354 -0.8205  0.4448
 9400TIP3   OH249614   4.636   4.549  14.654 -0.6975 -0.0459 -0.0746
 9400TIP3    H149615   4.697   4.565  14.726 -2.9404 -1.3682  2.3168
 9400TIP3    H249616   4.624   4.635  14.614  0.7005  0.7372  1.0627
 9401TIP3   OH249617   0.357   0.788  14.029  0.0865  0.1904 -0.3390
 9401TIP3    H149618   0.433   0.761  13.978 -0.6635 -0.2020 -1.2783
 9401TIP3    H249619   0.324   0.707  14.068  0.0578  0.3331 -0.0650
 9402TIP3   OH249620   0.844   2.177   0.720 -0.7504  0.0401  0.2004
 9402TIP3    H149621   0.776   2.165   0.787 -2.1531  0.2352 -1.1458
 9402TIP3    H249622   0.837   2.269   0.694 -0.0721  0.0182 -0.0812
 9403TIP3   OH249623   0.471   2.285  14.546 -0.1445 -0.1175 -0.3205
 9403TIP3    H149624   0.444   2.222  14.480 -1.2954 -0.9500  0.8922
 9403TIP3    H249625   0.566   2.274  14.553 -0.4286 -2.5533  0.6347
 9404TIP3   OH249626   0.243   2.528  16.284 -0.5522 -1.0706  0.0209
 9404TIP3    H149627   0.214   2.533  16.375 -1.5163 -1.6082 -0.2505
 9404TIP3    H249628   0.339   2.535  16.289 -0.7051  1.3988  0.8768
 9405TIP3   OH249629   2.478   4.569   6.091 -0.2241 -0.4039  0.2977
 9405TIP3    H149630   2.518   4.508   6.152  1.7165 -1.2720 -1.7146
 9405TIP3    H249631   2.410   4.518   6.047 -0.0216 -0.4869  0.0810
 9406TIP3   OH249632   3.492   3.439  17.036  0.0208  0.3788  0.1066
 9406TIP3    H149633   3.559   3.402  16.979  0.4692  0.5154  0.5345
 9406TIP3    H249634   3.540   3.471  17.112 -0.6553 -0.6725  1.0064
 9407TIP3   OH249635   1.966   0.761   1.960  0.3510  0.4197  0.4034
 9407TIP3    H149636   1.922   0.789   2.040  0.5659 -0.0408  0.6842
 9407TIP3    H249637   2.038   0.823   1.949  0.3778  0.4257  0.6146
 9408TIP3   OH249638   5.408   4.723  14.534 -0.4161 -0.2015 -0.0018
 9408TIP3    H149639   5.469   4.692  14.467  1.4668  1.0861  1.0177
 9408TIP3    H249640   5.407   4.653  14.600 -1.4075 -0.9721 -0.7977
 9409TIP3   OH249641   2.372   4.618  11.781  0.3900 -0.5743 -0.6632
 9409TIP3    H149642   2.341   4.702  11.747  0.6246 -0.0986  0.2533
 9409TIP3    H249643   2.324   4.553  11.731 -0.5050  0.1220 -0.7403
 9410TIP3   OH249644   4.282   0.187   1.279 -0.2370  0.4640 -0.5919
 9410TIP3    H149645   4.352   0.183   1.343 -0.8748 -2.2916  0.0657
 9410TIP3    H249646   4.215   0.242   1.319 -0.0171 -0.0317  0.4762
 9411TIP3   OH249647   4.244   3.907   5.145  0.0127 -0.0232 -0.4156
 9411TIP3    H149648   4.193   3.865   5.214  1.4231 -0.3129  0.5026
 9411TIP3    H249649   4.201   3.881   5.063 -1.9471  0.6853  0.3446
 9412TIP3   OH249650   3.312   2.415  13.989 -0.2123 -0.4196 -1.0119
 9412TIP3    H149651   3.375   2.344  13.980  1.7678  1.1062 -0.0519
 9412TIP3    H249652   3.328   2.472  13.913 -0.6988 -0.1961 -0.9538
 9413TIP3   OH249653   5.481   1.774   3.372  0.3665  0.1883  0.1724
 9413TIP3    H149654   5.505   1.778   3.280  0.1573  1.2991  0.1541
 9413TIP3    H249655   5.448   1.685   3.385  2.2611 -0.6163 -0.3449
 9414TIP3   OH249656   6.124   3.941  15.367  0.0142  0.0934  0.1660
 9414TIP3    H149657   6.034   3.954  15.337 -0.0276  0.2932  0.3792
 9414TIP3    H249658   6.173   3.919  15.287 -0.5214 -1.6321  0.2788
 9415TIP3   OH249659   5.924   6.569  15.830  0.5236  0.3270  0.9030
 9415TIP3    H149660   5.848   6.533  15.875 -0.6359  1.5213 -0.0212
 9415TIP3    H249661   5.906   6.663  15.824  1.2434  0.3915 -0.8451
 9416TIP3   OH249662   6.667   3.311   3.948 -0.5342  0.4552 -0.0575
 9416TIP3    H149663   6.717   3.260   3.884  0.9185 -1.5995  2.5188
 9416TIP3    H249664   6.579   3.318   3.909  0.7623  1.1909 -3.1627
 9417TIP3   OH249665   4.163   4.510  16.680  0.4316  0.6001 -0.0414
 9417TIP3    H149666   4.080   4.489  16.724  1.0319 -0.3207  0.7225
 9417TIP3    H249667   4.227   4.510  16.751  1.2175  0.4384 -0.7392
 9418TIP3   OH249668   1.223   5.508   5.675 -0.2892  0.5360 -0.6100
 9418TIP3    H149669   1.295   5.459   5.713 -0.0274  0.6291 -0.9896
 9418TIP3    H249670   1.155   5.505   5.743  0.5832  1.6856  0.3563
 9419TIP3   OH249671   5.036   5.337   6.136 -0.0850 -1.0655 -0.6593
 9419TIP3    H149672   5.006   5.426   6.122  1.1399 -0.3761  0.8019
 9419TIP3    H249673   5.084   5.314   6.057 -1.6015 -0.9848 -1.6370
 9420TIP3   OH249674   1.019   1.017  12.619 -0.3387 -1.0310 -0.0697
 9420TIP3    H149675   0.982   0.930  12.628 -3.3638  0.2132  0.7272
 9420TIP3    H249676   0.990   1.064  12.697  0.2311  1.0188 -1.0124
 9421TIP3   OH249677   3.454   5.797   4.971 -0.5234 -0.9518  0.1834
 9421TIP3    H149678   3.497   5.712   4.980  0.3193 -0.5913 -0.2206
 9421TIP3    H249679   3.377   5.792   5.027  0.2754 -1.4799  1.2779
 9422TIP3   OH249680   3.953   2.355   3.663 -0.0325 -0.0580 -0.1570
 9422TIP3    H149681   3.873   2.406   3.649 -0.5732 -0.9383 -0.3809
 9422TIP3    H249682   3.994   2.395   3.739 -0.8070  0.2683  0.1040
 9423TIP3   OH249683   6.440   3.310   4.918  0.1828  0.2184  0.5820
 9423TIP3    H149684   6.397   3.366   4.853  0.6971  0.8844  0.7987
 9423TIP3    H249685   6.486   3.245   4.866 -0.6665 -0.1996  0.3355
 9424TIP3   OH249686   5.389   1.859  12.479  0.2856  0.3539  0.2188
 9424TIP3    H149687   5.389   1.845  12.384 -2.5111 -0.3730  0.2344
 9424TIP3    H249688   5.451   1.931  12.492  0.5183  0.6789 -2.1829
 9425TIP3   OH249689   0.701   2.351  14.292 -0.5260  0.2181  0.4042
 9425TIP3    H149690   0.618   2.327  14.251 -1.4106 -0.0199  2.2404
 9425TIP3    H249691   0.716   2.282  14.357  2.2142 -0.9135 -1.2485
 9426TIP3   OH249692   3.920   5.646  12.319  0.0156 -0.0433 -0.6270
 9426TIP3    H149693   3.890   5.692  12.397  0.9320  0.7786 -0.7410
 9426TIP3    H249694   3.869   5.565  12.318 -1.1439  0.6516 -0.0475
 9427TIP3   OH249695   5.371   4.029  13.393 -0.3549  0.2308 -0.0036
 9427TIP3    H149696   5.391   4.115  13.357  1.5502  0.4070  1.3082
 9427TIP3    H249697   5.417   3.967  13.336 -1.2601  0.1075 -0.6163
 9428TIP3   OH249698   4.225   2.573   5.942  0.1822 -0.1226 -0.2297
 9428TIP3    H149699   4.167   2.627   5.887 -0.8070 -2.5502 -1.7661
 9428TIP3    H249700   4.194   2.588   6.031 -0.9950  0.7459 -0.7483
 9429TIP3   OH249701   4.433   0.769   6.077  0.6103  0.0449  0.0369
 9429TIP3    H149702   4.370   0.732   6.015  2.3656 -1.5875 -0.8765
 9429TIP3    H249703   4.443   0.702   6.144 -0.4585  1.3527  1.5817
 9430TIP3   OH249704   4.413   6.515  14.817 -0.1984  0.0119  0.3878
 9430TIP3    H149705   4.501   6.546  14.798 -0.6584  0.6737 -0.7560
 9430TIP3    H249706   4.426   6.436  14.870  1.0412  0.6273  1.0352
 9431TIP3   OH249707   5.292   5.196   0.283  0.0225 -0.2718 -0.4336
 9431TIP3    H149708   5.335   5.274   0.249 -0.4089  0.5705  0.8722
 9431TIP3    H249709   5.228   5.173   0.216  1.5219 -0.7428 -1.7719
 9432TIP3   OH249710   0.445   0.767  14.932 -0.3676  0.3501  0.0164
 9432TIP3    H149711   0.494   0.752  15.013 -1.1418  0.3729  0.4973
 9432TIP3    H249712   0.480   0.849  14.897  0.4489 -0.0101 -0.0437
 9433TIP3   OH249713   5.876   6.279  17.586  0.7952  0.7790 -0.4075
 9433TIP3    H149714   5.953   6.250  17.635 -0.1264 -1.1269 -0.0156
 9433TIP3    H249715   5.826   6.199  17.570  0.0918  1.6093 -2.8012
 9434TIP3   OH249716   4.674   2.319   4.744  0.1044  0.2191 -0.7733
 9434TIP3    H149717   4.738   2.254   4.717  2.0515  1.4383  0.6336
 9434TIP3    H249718   4.589   2.280   4.723  1.1449 -2.8453  0.1709
 9435TIP3   OH249719   1.461   4.853   0.640  0.2001  0.2619  0.0410
 9435TIP3    H149720   1.456   4.945   0.665 -0.3566  0.6023 -1.2414
 9435TIP3    H249721   1.370   4.828   0.621  0.4528 -0.2752 -0.5293
 9436TIP3   OH249722   3.830   0.529  12.169 -0.0344  0.4097 -0.0462
 9436TIP3    H149723   3.764   0.520  12.101 -0.6944 -1.0241  0.7464
 9436TIP3    H249724   3.905   0.479  12.136 -0.2519 -0.0454  0.1364
 9437TIP3   OH249725   5.787   5.896  11.719 -0.0104  0.8767  0.3004
 9437TIP3    H149726   5.749   5.979  11.690 -0.5523  0.7948  0.7737
 9437TIP3    H249727   5.775   5.837  11.645  0.0371  1.1082  0.1040
 9438TIP3   OH249728   0.800   0.303   0.663  0.2899  0.2123 -0.2493
 9438TIP3    H149729   0.724   0.308   0.606 -1.5315 -3.5688  1.5011
 9438TIP3    H249730   0.844   0.221   0.639  1.3005  0.1489  1.5793
 9439TIP3   OH249731   5.379   4.615   0.288  0.0661  0.1986  0.5158
 9439TIP3    H149732   5.357   4.704   0.260  0.7592  0.2361  0.0562
 9439TIP3    H249733   5.430   4.579   0.215 -1.0922 -0.9461  0.2385
 9440TIP3   OH249734   2.663   2.318   5.920 -0.4724  0.0217 -0.0461
 9440TIP3    H149735   2.719   2.374   5.866  1.9228 -1.0181  1.1595
 9440TIP3    H249736   2.658   2.364   6.004  0.9493 -1.1381  0.7320
 9441TIP3   OH249737   0.120   5.705   4.433 -0.0833 -0.2207 -0.0678
 9441TIP3    H149738   0.204   5.751   4.436 -0.5228  0.7553 -1.5312
 9441TIP3    H249739   0.075   5.742   4.357 -1.5394 -1.2572  0.2407
 9442TIP3   OH249740   1.464   5.121   1.400  0.1984  0.1691  0.1901
 9442TIP3    H149741   1.392   5.116   1.337  0.0085  2.0375  0.2106
 9442TIP3    H249742   1.543   5.120   1.346  0.0674  0.7983 -0.0156
 9443TIP3   OH249743   0.293   5.235  15.334 -0.3611  0.2870  0.3219
 9443TIP3    H149744   0.366   5.261  15.390 -0.7763 -1.2938  1.6790
 9443TIP3    H249745   0.331   5.226  15.247  1.4272 -1.8252  1.2293
 9444TIP3   OH249746   0.983   1.947   6.496 -0.3020 -0.5462  1.0304
 9444TIP3    H149747   0.900   1.929   6.540  0.2760 -2.1124  1.5474
 9444TIP3    H249748   0.993   2.042   6.503 -1.6008 -0.4326  1.7528
 9445TIP3   OH249749   0.487   2.492   0.322  0.6753 -0.6825 -0.0195
 9445TIP3    H149750   0.431   2.553   0.370  2.7071 -0.1206  1.8009
 9445TIP3    H249751   0.566   2.542   0.303  1.0676 -1.7905 -1.5185
 9446TIP3   OH249752   5.055   3.717  12.590  0.3065 -0.5021 -0.0587
 9446TIP3    H149753   5.047   3.643  12.530 -0.0801 -1.1974  0.8144
 9446TIP3    H249754   4.982   3.705  12.652  0.8645  0.0216  0.7177
 9447TIP3   OH249755   5.169   2.717   0.115 -0.2447  0.3137  0.7763
 9447TIP3    H149756   5.089   2.665   0.105 -0.3986  0.8873 -1.9286
 9447TIP3    H249757   5.239   2.656   0.093 -0.2541  0.6309 -0.2037
 9448TIP3   OH249758   3.347   0.085  12.552 -0.2570 -0.3936 -0.0137
 9448TIP3    H149759   3.357   0.146  12.626  0.5541 -0.8908  0.2942
 9448TIP3    H249760   3.253   0.067  12.549 -0.5438  0.9560 -0.1871
 9449TIP3   OH249761   2.842   1.643  16.764 -0.4168 -0.7122 -0.3935
 9449TIP3    H149762   2.819   1.718  16.710 -1.0099 -1.9613 -1.9654
 9449TIP3    H249763   2.912   1.674  16.821 -0.1430  0.8146 -1.5069
 9450TIP3   OH249764   2.377   0.252  10.773 -0.4643 -0.4230  0.0763
 9450TIP3    H149765   2.406   0.257  10.864  0.6076  1.0613 -0.3105
 9450TIP3    H249766   2.374   0.343  10.743  1.9963 -0.9702 -2.1860
 9451TIP3   OH249767   1.954   0.645   3.842  0.2295 -0.0446 -0.7880
 9451TIP3    H149768   1.904   0.722   3.816 -1.0519 -0.9712 -1.1490
 9451TIP3    H249769   1.963   0.593   3.762 -1.9635 -1.9305  0.0887
 9452TIP3   OH249770   2.336   0.744  13.556  0.2956  0.3142 -0.2290
 9452TIP3    H149771   2.370   0.656  13.573  3.1059  1.6412  1.8587
 9452TIP3    H249772   2.394   0.779  13.489 -0.7314  0.6317 -0.9590
 9453TIP3   OH249773   2.011   0.728  16.429  0.8271  1.1039 -0.4268
 9453TIP3    H149774   2.021   0.634  16.410  2.7982  0.8769  1.3718
 9453TIP3    H249775   1.920   0.747  16.406  0.6679 -0.9860 -1.8230
 9454TIP3   OH249776   6.327   0.335  11.017  0.4344 -0.3736  0.6660
 9454TIP3    H149777   6.278   0.312  10.938  0.0671 -0.1765  0.8339
 9454TIP3    H249778   6.294   0.276  11.084 -0.2382  0.3649  1.0044
 9455TIP3   OH249779   0.250   5.325  11.218 -0.6734  0.0526  0.2735
 9455TIP3    H149780   0.162   5.327  11.180  0.0865  1.1316 -1.6055
 9455TIP3    H249781   0.262   5.235  11.248 -1.9228 -0.4664 -0.7262
 9456TIP3   OH249782   2.066   3.940  12.617 -0.3498  0.2185 -0.0830
 9456TIP3    H149783   2.059   3.921  12.524  1.7406  1.4034 -0.5385
 9456TIP3    H249784   2.146   3.894  12.645 -1.5521 -1.1032  1.4427
 9457TIP3   OH249785   2.753   0.587  16.224  0.2153  0.6211 -0.8558
 9457TIP3    H149786   2.677   0.578  16.166 -0.2832  1.6321 -0.3850
 9457TIP3    H249787   2.802   0.505  16.213 -0.9313 -0.0398 -1.1841
 9458TIP3   OH249788   5.048   1.010  15.222  0.0220 -0.2529 -0.1380
 9458TIP3    H149789   5.084   0.946  15.283 -2.0481 -1.0024  0.3644
 9458TIP3    H249790   4.980   1.056  15.272 -1.0894 -0.2517 -1.5894
 9459TIP3   OH249791   6.368   3.195  15.291 -0.0630 -0.3670 -0.2310
 9459TIP3    H149792   6.367   3.141  15.212  0.8174 -0.0661 -0.4543
 9459TIP3    H249793   6.451   3.242  15.288  0.4339 -1.0512  1.3553
 9460TIP3   OH249794   1.134   6.384   4.850 -0.1421 -0.0319 -0.1525
 9460TIP3    H149795   1.113   6.291   4.857 -0.1355 -0.1881 -1.8896
 9460TIP3    H249796   1.215   6.387   4.800 -0.6128  0.9293 -0.9014
 9461TIP3   OH249797   0.192   5.096   6.635  0.2767  0.6251  0.4605
 9461TIP3    H149798   0.269   5.111   6.580 -0.8064 -0.7283 -1.5605
 9461TIP3    H249799   0.225   5.047   6.710  1.6449  1.5779  0.5209
 9462TIP3   OH249800   3.476   5.220  17.291  0.4235 -0.4993  0.4773
 9462TIP3    H149801   3.381   5.216  17.286  0.5073 -1.1407 -2.0245
 9462TIP3    H249802   3.504   5.128  17.293  0.9916 -0.3498 -0.1166
 9463TIP3   OH249803   1.070   3.436  17.402  0.2153 -0.1242  0.7438
 9463TIP3    H149804   1.081   3.515  17.455  0.7909 -0.8791  1.8163
 9463TIP3    H249805   1.152   3.429  17.352  0.2548 -0.1545  0.8135
 9464TIP3   OH249806   5.387   1.769   1.008  0.3274  1.1208 -0.1461
 9464TIP3    H149807   5.452   1.837   0.994  0.7941  0.8435  0.6090
 9464TIP3    H249808   5.436   1.694   1.042 -0.1370  0.3045 -1.2223
 9465TIP3   OH249809   3.588   1.634   4.153 -0.3588 -0.2902 -0.1354
 9465TIP3    H149810   3.576   1.727   4.136  0.4230 -0.2420 -0.5190
 9465TIP3    H249811   3.661   1.609   4.096 -1.0559 -1.3091 -0.6192
 9466TIP3   OH249812   3.777   1.634  15.985 -0.1393 -0.1959 -0.0559
 9466TIP3    H149813   3.868   1.614  15.964  0.1834 -0.2690  1.3325
 9466TIP3    H249814   3.778   1.727  16.008 -0.4796 -0.1254 -0.3101
 9467TIP3   OH249815   3.285   6.561  13.225 -0.0654 -0.3209 -0.5832
 9467TIP3    H149816   3.358   6.564  13.163  1.2389  1.1694  0.8974
 9467TIP3    H249817   3.272   6.653  13.250 -1.5104 -0.7273  0.2656
 9468TIP3   OH249818   2.158   5.301  12.614  0.0538  0.1451 -0.0851
 9468TIP3    H149819   2.113   5.240  12.555 -1.8519  0.0488  1.3762
 9468TIP3    H249820   2.248   5.268  12.618  0.1316 -0.1072 -2.5214
 9469TIP3   OH249821   3.518   1.624  17.018  0.3230 -0.3198  0.7176
 9469TIP3    H149822   3.522   1.594  16.928  1.3568  1.3917  0.1476
 9469TIP3    H249823   3.453   1.694  17.018  0.8823  0.2129  1.1210
 9470TIP3   OH249824   3.328   2.083   2.567  0.1007  0.1322 -0.5307
 9470TIP3    H149825   3.285   2.132   2.637  0.0502 -0.3310 -0.2340
 9470TIP3    H249826   3.339   1.995   2.602  1.1298  0.1904 -0.6733
 9471TIP3   OH249827   1.981   1.260  15.493 -0.3397  0.7216  0.0218
 9471TIP3    H149828   1.976   1.185  15.552  2.1840  0.4548 -0.0055
 9471TIP3    H249829   2.053   1.314  15.528 -0.2769  1.7068 -1.5292
 9472TIP3   OH249830   2.906   1.983  13.114 -0.1590  0.0073 -0.9552
 9472TIP3    H149831   2.971   1.913  13.108 -1.9710 -1.9007  0.3055
 9472TIP3    H249832   2.947   2.049  13.170  1.0111 -0.7652 -0.8651
 9473TIP3   OH249833   0.799   0.522   3.239 -0.3785 -0.0180 -0.1002
 9473TIP3    H149834   0.806   0.585   3.310  0.1952 -1.0664  0.8129
 9473TIP3    H249835   0.783   0.575   3.161 -0.5687  1.1906  0.7296
 9474TIP3   OH249836   2.290   1.158  13.046 -1.0981 -0.2920  0.0279
 9474TIP3    H149837   2.263   1.213  13.120 -1.3181  0.5771 -0.6748
 9474TIP3    H249838   2.235   1.188  12.973 -1.4898 -1.7153 -0.2928
 9475TIP3   OH249839   0.601   0.433  16.996  0.8768 -0.0556  0.1443
 9475TIP3    H149840   0.602   0.342  16.964  0.4849 -0.5663  1.5029
 9475TIP3    H249841   0.573   0.484  16.920 -1.4258 -1.3776 -0.0079
 9476TIP3   OH249842   5.069   1.717   3.832 -0.1063  0.4485 -0.2643
 9476TIP3    H149843   5.090   1.683   3.919 -2.6430 -0.1362  0.2041
 9476TIP3    H249844   5.151   1.756   3.801  1.1017 -0.1032  2.0014
 9477TIP3   OH249845   5.458   0.173   3.977  0.0708  0.4205  0.0651
 9477TIP3    H149846   5.546   0.202   3.952  0.8253 -1.4492  0.4104
 9477TIP3    H249847   5.446   0.207   4.066  1.0967 -0.5945  0.6200
 9478TIP3   OH249848   3.441   4.995  14.334  0.5314  0.1818 -0.0423
 9478TIP3    H149849   3.444   5.010  14.239  1.7022  2.0054  0.2327
 9478TIP3    H249850   3.348   4.998  14.356  0.2031 -0.7810 -1.1833
 9479TIP3   OH249851   5.053   4.263   6.033  0.9804 -0.5163 -0.2972
 9479TIP3    H149852   5.083   4.228   5.949  0.7589 -1.7430  0.1138
 9479TIP3    H249853   5.013   4.188   6.077  0.3770  0.2998  0.5765
 9480TIP3   OH249854   3.124   6.365  16.217  0.2540 -0.0047 -0.3064
 9480TIP3    H149855   3.089   6.404  16.137 -0.1638 -1.8620 -1.0714
 9480TIP3    H249856   3.103   6.272  16.210  3.7152 -0.9627  0.0525
 9481TIP3   OH249857   0.375   4.834   3.703 -0.4175  0.0778  0.0485
 9481TIP3    H149858   0.397   4.765   3.765  1.3042  1.1246  0.6996
 9481TIP3    H249859   0.318   4.894   3.752 -1.2937 -0.4728 -0.2772
 9482TIP3   OH249860   6.258   2.274   4.862  0.6081  0.5942  0.1171
 9482TIP3    H149861   6.214   2.337   4.918 -0.3223  0.1041 -0.0430
 9482TIP3    H249862   6.225   2.293   4.774 -0.3076 -0.6064  0.1691
 9483TIP3   OH249863   5.605   6.021  16.547  0.4081  0.5409  0.5296
 9483TIP3    H149864   5.656   6.065  16.615 -0.2956  0.6384  1.0053
 9483TIP3    H249865   5.619   5.928  16.562 -0.6537  0.5301  1.5361
 9484TIP3   OH249866   6.096   4.502   6.309  0.2386  0.1853 -0.0175
 9484TIP3    H149867   6.010   4.465   6.292 -0.5487  0.7325  2.3746
 9484TIP3    H249868   6.079   4.575   6.369  2.3191  0.6142  0.1293
 9485TIP3   OH249869   2.312   4.801   5.771 -0.4132 -0.2154 -0.9112
 9485TIP3    H149870   2.394   4.805   5.821  1.0706  0.5153 -3.2331
 9485TIP3    H249871   2.243   4.806   5.837  1.4078  0.4824  1.0435
 9486TIP3   OH249872   5.791   3.846   5.166  0.6302 -0.4727  0.1192
 9486TIP3    H149873   5.748   3.761   5.173  0.6833 -0.6806 -1.7368
 9486TIP3    H249874   5.840   3.842   5.084  0.8124  1.2816  0.1057
 9487TIP3   OH249875   0.260   1.095   5.681 -0.3196 -0.2923 -0.2927
 9487TIP3    H149876   0.243   1.174   5.631  0.1035 -0.6874 -1.0815
 9487TIP3    H249877   0.180   1.081   5.732 -0.6393  0.2884 -0.6235
 9488TIP3   OH249878   3.111   3.892   2.524 -0.6402 -0.1082  0.0996
 9488TIP3    H149879   3.122   3.842   2.605 -1.1817  2.5031  1.9198
 9488TIP3    H249880   3.179   3.857   2.465 -0.4330 -2.3035  1.5241
 9489TIP3   OH249881   0.291   6.420  13.799  0.8371 -0.0946 -0.3282
 9489TIP3    H149882   0.373   6.371  13.802 -0.0556 -1.6523 -0.6632
 9489TIP3    H249883   0.237   6.374  13.735 -0.2503  1.0074 -0.2515
 9490TIP3   OH249884   3.330   5.471  16.678  0.2877  0.1222 -0.1785
 9490TIP3    H149885   3.421   5.500  16.670 -0.0704  2.0014  1.8518
 9490TIP3    H249886   3.290   5.496  16.595  1.4991 -0.4354 -0.9677
 9491TIP3   OH249887   5.399   1.800   6.145  0.3464  0.4486  0.5914
 9491TIP3    H149888   5.378   1.735   6.212 -1.3371  1.2807  0.9213
 9491TIP3    H249889   5.332   1.787   6.077  0.5351  1.2628  0.2450
 9492TIP3   OH249890   2.924   3.134   0.662  0.3534  0.2441 -0.3530
 9492TIP3    H149891   2.995   3.150   0.724  0.8856 -0.5936 -0.7286
 9492TIP3    H249892   2.891   3.048   0.685 -0.0666  0.3279 -0.6323
 9493TIP3   OH249893   0.664   4.655  16.088  0.1494 -0.4416 -0.2389
 9493TIP3    H149894   0.743   4.709  16.089 -1.6621  2.4262 -0.2482
 9493TIP3    H249895   0.667   4.611  16.003 -0.0591  2.7147 -2.0560
 9494TIP3   OH249896   0.718   3.675   2.252  0.6962  0.3701 -0.6426
 9494TIP3    H149897   0.709   3.651   2.345  0.1379  3.3504  0.1616
 9494TIP3    H249898   0.812   3.689   2.241  0.5757  1.8035  0.0041
 9495TIP3   OH249899   1.143   0.729   2.110  0.1782  0.2316  0.3090
 9495TIP3    H149900   1.116   0.782   2.035  1.6854 -0.5126 -0.8213
 9495TIP3    H249901   1.068   0.671   2.127  0.7201 -1.4482 -2.3965
 9496TIP3   OH249902   4.808   0.082  10.961  0.2955  0.1140  0.1712
 9496TIP3    H149903   4.848   0.033  11.033  0.3046 -1.8940 -1.1132
 9496TIP3    H249904   4.851   0.168  10.963  1.9774 -0.7092  1.1351
 9497TIP3   OH249905   0.609   0.404  12.479 -0.1578 -0.6850  0.4886
 9497TIP3    H149906   0.638   0.427  12.390 -1.3893  0.9698  0.4578
 9497TIP3    H249907   0.516   0.381  12.468 -1.1216  2.1640  1.6161
 9498TIP3   OH249908   0.316   0.682  11.438 -0.1130  0.0586 -0.0031
 9498TIP3    H149909   0.255   0.754  11.425  0.6934  0.9212  0.7906
 9498TIP3    H249910   0.329   0.645  11.351 -0.5575  0.8595 -0.4210
 9499TIP3   OH249911   1.235   2.608   4.557 -0.3061 -0.0429 -0.0545
 9499TIP3    H149912   1.217   2.659   4.636  0.6176  0.8808 -0.4273
 9499TIP3    H249913   1.173   2.642   4.492 -1.1588 -0.8958  0.2921
 9500TIP3   OH249914   5.819   2.109   6.658  0.0407  0.6383 -0.2548
 9500TIP3    H149915   5.804   2.154   6.741  2.3317  2.5896 -0.7952
 9500TIP3    H249916   5.752   2.145   6.600 -1.3110 -0.4314  0.5704
 9501TIP3   OH249917   4.737   0.839   5.224  0.5483  0.3717  0.6199
 9501TIP3    H149918   4.707   0.920   5.265  0.1493  0.6610 -0.2388
 9501TIP3    H249919   4.677   0.772   5.257 -1.2209  0.9670 -1.2067
 9502TIP3   OH249920   2.930   5.794   5.847  0.4019  0.6642 -0.2535
 9502TIP3    H149921   2.847   5.772   5.805  0.7739 -0.5724 -0.3798
 9502TIP3    H249922   2.944   5.724   5.911  1.8713  0.2309 -0.9980
 9503TIP3   OH249923   6.558   1.932   3.768 -1.0269 -0.1389  0.4104
 9503TIP3    H149924   6.472   1.967   3.748 -0.3535  0.6572 -1.2547
 9503TIP3    H249925   6.549   1.838   3.757 -1.4560  0.0210 -0.7339
 9504TIP3   OH249926   2.956   0.228   0.182  0.0440  0.1208  0.2270
 9504TIP3    H149927   2.987   0.286   0.112  0.1747 -0.3145 -0.0773
 9504TIP3    H249928   2.982   0.273   0.263  2.8628 -0.9094  0.0002
 9505TIP3   OH249929   1.419   2.963  16.818 -0.5746  0.0635 -0.1404
 9505TIP3    H149930   1.504   2.950  16.861  0.1349  3.0825 -0.3954
 9505TIP3    H249931   1.374   2.879  16.828  2.0887 -1.3796  0.7594
 9506TIP3   OH249932   4.426   4.769  14.723  0.6207  0.4665 -0.2623
 9506TIP3    H149933   4.333   4.791  14.736  0.5509 -0.2339  0.4823
 9506TIP3    H249934   4.430   4.674  14.735  0.9204 -0.0173 -3.3328
 9507TIP3   OH249935   1.297   4.400   4.329  0.3400  0.4283 -0.5793
 9507TIP3    H149936   1.346   4.476   4.298  0.9567 -0.6693 -2.4320
 9507TIP3    H249937   1.343   4.325   4.292 -1.6023 -0.7428 -0.7603
 9508TIP3   OH249938   4.632   3.659  15.790  0.4222  0.3479 -0.9632
 9508TIP3    H149939   4.689   3.663  15.867 -0.0393  0.3504 -0.6126
 9508TIP3    H249940   4.680   3.605  15.727  0.5306 -0.1992 -0.4294
 9509TIP3   OH249941   0.800   4.270  11.835  0.2404  0.6326  0.2366
 9509TIP3    H149942   0.891   4.241  11.827  0.5508  2.0503 -2.1826
 9509TIP3    H249943   0.806   4.361  11.864 -0.6058 -0.1527  3.3242
 9510TIP3   OH249944   2.350   5.441   4.762  0.2093 -0.3700  0.3655
 9510TIP3    H149945   2.334   5.350   4.789  1.7464 -0.8416 -0.1875
 9510TIP3    H249946   2.281   5.491   4.804 -0.5705 -1.7809  0.8283
 9511TIP3   OH249947   2.007   6.426   4.794  0.3467  0.4542 -0.0842
 9511TIP3    H149948   2.012   6.502   4.736 -0.8456 -1.6713 -3.2345
 9511TIP3    H249949   2.094   6.387   4.790 -0.2707 -0.8668 -2.3621
 9512TIP3   OH249950   1.764   1.536   0.994  0.2582  0.0751  0.3772
 9512TIP3    H149951   1.741   1.480   1.068 -0.2364  0.6952  0.7030
 9512TIP3    H249952   1.844   1.497   0.958  0.7142 -0.0137  1.4679
 9513TIP3   OH249953   4.233   0.839  12.258  0.4153  0.0567  1.0910
 9513TIP3    H149954   4.215   0.789  12.338  1.2759 -1.1745  0.5371
 9513TIP3    H249955   4.167   0.909  12.258  0.4796  0.1664  2.9439
 9514TIP3   OH249956   3.870   5.281  13.987  0.9621  0.7955  0.1449
 9514TIP3    H149957   3.850   5.210  13.926  3.2595  0.2537 -0.0358
 9514TIP3    H249958   3.784   5.321  14.005 -0.7939 -3.1439  1.7529
 9515TIP3   OH249959   5.527   2.479   2.478 -0.4207  0.7287  0.3775
 9515TIP3    H149960   5.527   2.565   2.436  0.9649 -0.0380 -1.2967
 9515TIP3    H249961   5.614   2.471   2.518 -0.4694  0.0230  0.3535
 9516TIP3   OH249962   1.218   2.713  10.622  0.3750  0.3258  0.1148
 9516TIP3    H149963   1.156   2.721  10.694 -0.2993  3.5371 -0.6312
 9516TIP3    H249964   1.304   2.719  10.663  0.0199  1.2468  0.7740
 9517TIP3   OH249965   1.675   0.979   3.147 -0.3756 -0.4354 -0.2256
 9517TIP3    H149966   1.591   0.994   3.104  0.5317  2.5258 -1.1912
 9517TIP3    H249967   1.679   1.046   3.215 -0.0006 -2.4367  1.8403
 9518TIP3   OH249968   2.726   4.079   6.668 -0.1365  0.0894 -0.3190
 9518TIP3    H149969   2.687   4.023   6.601  0.9469 -0.7116 -0.3062
 9518TIP3    H249970   2.694   4.042   6.751  1.4555 -1.2525 -0.2597
 9519TIP3   OH249971   0.374   0.717   6.353 -0.0252  0.7009 -0.4091
 9519TIP3    H149972   0.414   0.641   6.311 -0.5550  1.2298 -1.9261
 9519TIP3    H249973   0.326   0.761   6.283 -0.7007  1.7891  0.6973
 9520TIP3   OH249974   2.493   6.519  13.520  0.0719  0.0058  0.0875
 9520TIP3    H149975   2.500   6.500  13.614  1.5380  3.8559  0.9080
 9520TIP3    H249976   2.401   6.544  13.508  0.6166  3.0528  1.4187
 9521TIP3   OH249977   3.568   4.319  12.535  0.8204 -0.4716  0.2769
 9521TIP3    H149978   3.502   4.251  12.520  0.5286 -0.1708  0.1909
 9521TIP3    H249979   3.518   4.399  12.547  1.1518 -0.3249  0.7071
 9522TIP3   OH249980   4.999   0.775   2.740 -0.2506  0.0933 -0.6171
 9522TIP3    H149981   4.906   0.755   2.739 -0.2510  0.0163  0.0972
 9522TIP3    H249982   5.027   0.764   2.649 -0.6426 -1.2892 -0.5999
 9523TIP3   OH249983   4.070   2.677  13.456  0.4584  0.0470 -0.2141
 9523TIP3    H149984   4.154   2.632  13.448 -0.2677 -1.6044  0.8914
 9523TIP3    H249985   4.075   2.723  13.539  0.7227  1.0456 -0.7589
 9524TIP3   OH249986   6.207   2.294   2.664  0.0268  0.4995 -0.2114
 9524TIP3    H149987   6.220   2.384   2.634 -0.3815 -0.0437 -2.1657
 9524TIP3    H249988   6.114   2.277   2.650  0.1006 -0.2313  0.1512
 9525TIP3   OH249989   5.584   5.711  13.131 -0.0404 -0.3867  0.5219
 9525TIP3    H149990   5.621   5.630  13.165 -1.6822 -1.0824  0.7201
 9525TIP3    H249991   5.489   5.701  13.142 -0.7283 -0.4981 -3.7733
 9526TIP3   OH249992   1.726   2.615   0.132 -0.4374  0.0148 -0.5866
 9526TIP3    H149993   1.807   2.658   0.161  0.1565 -1.4224 -0.0480
 9526TIP3    H249994   1.755   2.538   0.084 -1.4958 -0.0961 -1.0774
 9527TIP3   OH249995   0.262   5.220  15.881 -0.4828  0.4889  0.0559
 9527TIP3    H149996   0.182   5.273  15.876 -1.3158 -0.5712  1.2227
 9527TIP3    H249997   0.282   5.217  15.974 -1.7015 -2.8935  0.3424
 9528TIP3   OH249998   0.143   0.121   4.179 -0.5819  0.2957 -0.2946
 9528TIP3    H149999   0.189   0.080   4.252  0.6610  1.0189 -0.6383
 9528TIP3    H250000   0.133   0.051   4.114  0.5660  0.2611 -0.4452
 9529TIP3   OH250001   6.676   5.300   1.253  0.8544  0.1559  0.1157
 9529TIP3    H150002   6.764   5.271   1.229 -0.0535 -1.0644 -2.0284
 9529TIP3    H250003   6.619   5.259   1.188 -1.0841  2.8927 -0.0795
 9530TIP3   OH250004   4.224   6.255  17.559 -0.6031 -0.2740 -0.2299
 9530TIP3    H150005   4.239   6.167  17.593 -0.9867  0.0208  0.7099
 9530TIP3    H250006   4.134   6.254  17.527 -1.0466  0.1497  0.9731
 9531TIP3   OH250007   2.290   2.690   4.120 -0.2333  0.2833  0.1271
 9531TIP3    H150008   2.239   2.769   4.105 -0.9060  0.1769  1.6867
 9531TIP3    H250009   2.378   2.721   4.142  0.2218  0.4879 -1.7932
 9532TIP3   OH250010   0.861   6.633   4.969  0.4872  0.1526  0.3409
 9532TIP3    H150011   0.846   6.723   4.996  1.1112  0.0453  1.0591
 9532TIP3    H250012   0.843   6.580   5.047 -0.6018 -0.4181 -0.2720
 9533TIP3   OH250013   5.520   6.667  14.958 -0.4000 -0.3227  0.6559
 9533TIP3    H150014   5.551   6.726  15.027  0.7817 -0.8147  0.5663
 9533TIP3    H250015   5.590   6.603  14.948 -1.4194 -1.4206  0.3527
 9534TIP3   OH250016   2.901   2.379   0.005 -0.0001 -0.3336  0.4064
 9534TIP3    H150017   2.956   2.392  -0.071  0.2140 -1.1804  0.4136
 9534TIP3    H250018   2.871   2.467   0.028  0.8066  0.0549  0.0071
 9535TIP3   OH250019   1.103   0.269   2.035  0.0587 -0.3418  0.4671
 9535TIP3    H150020   1.020   0.223   2.048 -0.5987  0.9041  0.8099
 9535TIP3    H250021   1.167   0.217   2.083 -0.6302 -0.9855  0.7065
 9536TIP3   OH250022   3.596   0.385   4.932  0.6393  0.6120  0.1745
 9536TIP3    H150023   3.569   0.310   4.879  1.3546  0.1406  0.4538
 9536TIP3    H250024   3.536   0.455   4.907  1.5538  0.7059 -1.9830
 9537TIP3   OH250025   5.266   5.465  17.390  0.5604 -0.0989 -0.3210
 9537TIP3    H150026   5.182   5.422  17.373  0.1167  0.2822  0.8071
 9537TIP3    H250027   5.292   5.433  17.476 -0.0963  2.2810  0.8590
 9538TIP3   OH250028   4.475   6.483   2.246 -0.1150 -0.6252 -0.8246
 9538TIP3    H150029   4.401   6.506   2.301 -0.6272  0.1924 -1.8138
 9538TIP3    H250030   4.453   6.518   2.159  0.3424 -2.4630 -1.7402
 9539TIP3   OH250031   5.481   2.812  13.194  0.6491 -0.1837  0.2127
 9539TIP3    H150032   5.410   2.838  13.135  1.4996  0.9849 -0.3292
 9539TIP3    H250033   5.443   2.819  13.281 -0.0258  0.0323 -0.0919
 9540TIP3   OH250034   3.486   4.020  15.603 -0.1454  0.6203  0.2403
 9540TIP3    H150035   3.528   4.085  15.547  1.7919 -0.7077  0.0686
 9540TIP3    H250036   3.400   4.006  15.562 -0.5654  2.8908  0.2004
 9541TIP3   OH250037   3.152   1.260  15.983  0.0141 -0.1219 -0.4695
 9541TIP3    H150038   3.083   1.254  15.917 -0.9666  1.5112  0.3390
 9541TIP3    H250039   3.129   1.338  16.034  1.4066 -0.6512  1.0357
 9542TIP3   OH250040   2.478   1.653  12.642  0.0271 -0.2880 -0.0079
 9542TIP3    H150041   2.452   1.745  12.635 -0.2196 -0.3264  0.3830
 9542TIP3    H250042   2.541   1.651  12.714  0.3761 -0.3537 -0.3133
 9543TIP3   OH250043   0.753   6.276  17.182  0.7093  0.5765  0.1024
 9543TIP3    H150044   0.763   6.371  17.178 -1.2940  0.8161 -0.9850
 9543TIP3    H250045   0.744   6.257  17.275 -0.2736  1.6769  0.2661
 9544TIP3   OH250046   3.679   2.092   5.968  0.1060 -0.3260  0.1724
 9544TIP3    H150047   3.691   2.142   6.049  1.7254  2.2665 -1.5607
 9544TIP3    H250048   3.767   2.066   5.942 -0.0480  1.1820 -2.1000
 9545TIP3   OH250049   0.174   4.728   0.431  0.9683  0.2081 -0.3255
 9545TIP3    H150050   0.234   4.685   0.369  0.7913 -0.1025 -0.2848
 9545TIP3    H250051   0.164   4.665   0.502  0.9676  0.4587 -0.1022
 9546TIP3   OH250052   5.002   3.798   6.066 -0.3856  0.1667 -0.6691
 9546TIP3    H150053   5.058   3.777   5.991 -0.0784 -0.2427 -0.3329
 9546TIP3    H250054   5.047   3.870   6.110 -0.2216 -0.0236 -0.5180
 9547TIP3   OH250055   4.948   5.486   2.233  0.4741 -0.5469 -0.1799
 9547TIP3    H150056   4.924   5.468   2.324  1.6749  0.9761  0.4729
 9547TIP3    H250057   5.040   5.463   2.228  0.9145  1.1531 -0.4712
 9548TIP3   OH250058   5.642   1.884  12.753 -0.2591  0.3420  0.5393
 9548TIP3    H150059   5.738   1.881  12.754 -0.2671 -0.4586 -0.1676
 9548TIP3    H250060   5.620   1.913  12.665 -0.6682 -0.0841  0.4956
 9549TIP3   OH250061   3.329   2.280  17.261 -0.1018  0.2470  0.5508
 9549TIP3    H150062   3.310   2.305  17.170  0.6064 -0.2404  0.2640
 9549TIP3    H250063   3.408   2.329  17.283  0.8195 -1.0721  0.2660
 9550TIP3   OH250064   2.281   3.768  12.975  0.2276  0.0058 -0.2192
 9550TIP3    H150065   2.277   3.856  13.014 -0.8061 -0.0240 -0.2226
 9550TIP3    H250066   2.216   3.718  13.024 -0.3389 -0.3148 -1.2781
 9551TIP3   OH250067   3.341   1.440   4.479  0.1631 -0.7189 -0.2361
 9551TIP3    H150068   3.264   1.433   4.422 -0.1792  2.1527 -0.2960
 9551TIP3    H250069   3.413   1.462   4.420  0.1213  0.7558  0.2279
 9552TIP3   OH250070   4.448   1.228  17.061 -0.3357  0.5949  0.2494
 9552TIP3    H150071   4.509   1.292  17.025  0.1055 -0.1297 -0.3125
 9552TIP3    H250072   4.468   1.225  17.155  0.1944  0.6768  0.1405
 9553TIP3   OH250073   1.737   5.621  12.335  0.2699  0.1703  0.3603
 9553TIP3    H150074   1.647   5.655  12.329  0.3905  0.4092 -0.1686
 9553TIP3    H250075   1.730   5.530  12.306 -0.1363 -0.4302  2.2268
 9554TIP3   OH250076   3.420   3.473  15.371  0.1391 -0.7228  0.4386
 9554TIP3    H150077   3.413   3.544  15.307 -0.0905 -1.9393 -0.9178
 9554TIP3    H250078   3.498   3.496  15.423 -0.5308  1.0486  0.7317
 9555TIP3   OH250079   1.007   2.474  11.836  0.0358  0.2571  0.1201
 9555TIP3    H150080   0.999   2.498  11.744  1.2316  0.2343 -0.0120
 9555TIP3    H250081   0.917   2.473  11.869 -0.6225 -1.5923 -1.4957
 9556TIP3   OH250082   2.415   0.107   1.827 -0.3273 -0.1201 -0.4214
 9556TIP3    H150083   2.416   0.060   1.743  0.8272 -0.7176 -0.0879
 9556TIP3    H250084   2.450   0.044   1.890  2.4383  1.5180 -0.1556
 9557TIP3   OH250085   2.047   6.342  14.909 -0.1712 -0.0178 -0.1351
 9557TIP3    H150086   1.957   6.316  14.891 -0.3800  0.0613  0.7772
 9557TIP3    H250087   2.041   6.433  14.938  0.3190  0.3393 -1.0904
 9558TIP3   OH250088   3.863   3.304   3.045  0.0085  0.0299 -0.2396
 9558TIP3    H150089   3.950   3.297   3.084 -0.3854 -0.1113  0.6306
 9558TIP3    H250090   3.804   3.322   3.118 -1.1132 -2.6473 -0.3449
 9559TIP3   OH250091   5.211   4.011   0.022  0.2502 -0.1572  0.1531
 9559TIP3    H150092   5.285   4.033  -0.035 -0.1650 -0.5865 -0.5491
 9559TIP3    H250093   5.244   3.939   0.076  0.2508 -0.5559 -0.3710
 9560TIP3   OH250094   1.237   4.670  13.432 -0.7219 -0.0213 -0.3163
 9560TIP3    H150095   1.211   4.756  13.401 -1.0912 -0.1976 -0.5090
 9560TIP3    H250096   1.186   4.657  13.513 -2.6604 -1.1071 -1.6345
 9561TIP3   OH250097   0.291   5.988   6.453  0.1021 -0.2068  0.3099
 9561TIP3    H150098   0.292   6.079   6.481  0.9308 -0.7295  2.1591
 9561TIP3    H250099   0.206   5.976   6.410 -0.3945  1.1888  0.8679
 9562TIP3   OH250100   1.438   4.074  15.268 -0.0411  0.2159  0.0746
 9562TIP3    H150101   1.479   4.108  15.347  1.3012  1.2852 -1.0357
 9562TIP3    H250102   1.486   3.993  15.250 -1.2056 -0.7261  1.0242
 9563TIP3   OH250103   5.112   5.176  15.206 -0.0842 -0.1823  0.2827
 9563TIP3    H150104   5.092   5.084  15.224 -1.4157  0.0131 -0.0912
 9563TIP3    H250105   5.183   5.173  15.142 -0.6332 -0.9709 -0.3160
 9564TIP3   OH250106   4.737   6.172  12.338  0.4817  0.2311  0.4393
 9564TIP3    H150107   4.770   6.182  12.428  1.4176 -0.3279  0.1759
 9564TIP3    H250108   4.679   6.096  12.343  1.9234 -0.9331  0.2420
 9565TIP3   OH250109   6.312   5.465  12.242 -0.4930  0.2355  0.8171
 9565TIP3    H150110   6.335   5.375  12.220  1.1733  0.8983 -0.4015
 9565TIP3    H250111   6.358   5.482  12.324 -0.5213  0.0850  0.8638
 9566TIP3   OH250112   2.232   2.667  12.162  0.3610  0.2668 -0.3365
 9566TIP3    H150113   2.301   2.674  12.228  0.5824  0.5589 -0.5942
 9566TIP3    H250114   2.276   2.635  12.083  0.7318  2.7798 -1.2453
 9567TIP3   OH250115   5.279   0.398  16.851 -0.3145  0.0178 -0.7792
 9567TIP3    H150116   5.357   0.367  16.805  0.5713 -0.2292  0.8329
 9567TIP3    H250117   5.312   0.464  16.912 -1.7400  1.8493 -1.8838
 9568TIP3   OH250118   1.893   2.277  11.388 -0.3641 -0.2535  0.0443
 9568TIP3    H150119   1.875   2.222  11.312  1.0001  0.8766 -1.1681
 9568TIP3    H250120   1.947   2.223  11.445 -0.1064 -0.6199 -0.5334
 9569TIP3   OH250121   6.365   0.589   1.594 -0.2411  0.0702  0.4473
 9569TIP3    H150122   6.286   0.560   1.639  0.2977  0.6749  1.8447
 9569TIP3    H250123   6.431   0.594   1.663  1.0010 -0.3516 -0.6825
 9570TIP3   OH250124   4.150   4.543   0.754 -0.1064 -0.5221  0.3524
 9570TIP3    H150125   4.190   4.460   0.727 -1.4669 -0.1592 -3.3549
 9570TIP3    H250126   4.056   4.525   0.757 -0.4976  0.9537 -1.2143
 9571TIP3   OH250127   4.142   5.171   2.471  0.1019  0.1479  0.1896
 9571TIP3    H150128   4.236   5.156   2.480 -0.0496 -1.2700 -0.2778
 9571TIP3    H250129   4.131   5.196   2.379  0.0703  0.8193  0.3711
 9572TIP3   OH250130   3.277   5.819   1.261 -0.0101  0.2504  0.1711
 9572TIP3    H150131   3.269   5.903   1.305  2.1244  0.0920  0.9777
 9572TIP3    H250132   3.371   5.810   1.242 -0.2107 -1.8147 -0.1538
 9573TIP3   OH250133   4.857   0.788   1.514  0.3749 -0.4607  0.4630
 9573TIP3    H150134   4.891   0.793   1.425 -1.0878 -0.4179 -0.1238
 9573TIP3    H250135   4.859   0.694   1.534  1.4267 -0.4033  0.7034
 9574TIP3   OH250136   0.379   1.941  13.787 -0.1255  0.1632 -0.3374
 9574TIP3    H150137   0.398   1.855  13.824  2.0243  0.5941 -0.3344
 9574TIP3    H250138   0.283   1.946  13.786 -0.3238 -0.8530  2.8138
 9575TIP3   OH250139   3.762   5.521   4.340  0.5538 -0.2892  0.2859
 9575TIP3    H150140   3.827   5.589   4.323 -1.1247  1.1177 -0.8858
 9575TIP3    H250141   3.693   5.537   4.276 -1.3319 -1.2026  1.9678
 9576TIP3   OH250142   6.067   4.034   3.136 -0.3749  0.5295  0.1576
 9576TIP3    H150143   5.999   4.061   3.198 -0.9711  1.5753 -0.9106
 9576TIP3    H250144   6.133   3.990   3.190 -1.1091  0.9632  1.4496
 9577TIP3   OH250145   1.685   2.671   5.697 -0.0029 -0.2966 -0.4687
 9577TIP3    H150146   1.689   2.609   5.770  1.1795 -0.6890 -0.8454
 9577TIP3    H250147   1.596   2.663   5.663 -0.3572 -0.6072  0.4909
 9578TIP3   OH250148   2.954   3.070  16.464  0.0487 -0.2340 -0.7664
 9578TIP3    H150149   2.983   3.146  16.515 -0.1173 -0.1863 -0.7434
 9578TIP3    H250150   3.033   3.017  16.453 -0.3213 -1.2968  1.3331
 9579TIP3   OH250151   2.325   3.441   4.337 -0.3280 -0.0998 -0.2275
 9579TIP3    H150152   2.254   3.494   4.302 -0.4902 -0.4339 -0.4010
 9579TIP3    H250153   2.401   3.499   4.336 -0.6338  0.3156  0.1269
 9580TIP3   OH250154   3.337   1.116   5.623  0.4562 -0.0419 -0.3523
 9580TIP3    H150155   3.360   1.054   5.554  2.3350 -0.2313  0.3606
 9580TIP3    H250156   3.257   1.082   5.661 -0.2246 -0.3173 -1.9590
 9581TIP3   OH250157   0.644   2.655   3.558  0.3169 -0.2459 -0.2143
 9581TIP3    H150158   0.696   2.733   3.539 -0.6384  0.4612  0.0367
 9581TIP3    H250159   0.578   2.651   3.489 -1.4537  0.8182  1.3147
 9582TIP3   OH250160   0.660   4.183   3.006  0.6279 -0.0572  0.1561
 9582TIP3    H150161   0.626   4.238   3.076  1.8229 -0.4879  1.1209
 9582TIP3    H250162   0.622   4.096   3.023  1.2273 -0.2566  0.5350
 9583TIP3   OH250163   3.663   3.871   2.938 -0.7770  0.5777 -0.3209
 9583TIP3    H150164   3.697   3.919   2.863  2.0873  2.7414  2.1102
 9583TIP3    H250165   3.721   3.795   2.945 -0.5996  0.7430  0.0441
 9584TIP3   OH250166   4.883   3.059  14.845  0.4361  0.0407 -0.4766
 9584TIP3    H150167   4.804   3.026  14.802  1.0391  0.6719 -2.1371
 9584TIP3    H250168   4.873   3.154  14.844  1.3576  0.1395 -1.0143
 9585TIP3   OH250169   6.522   2.086  13.477 -0.4533 -0.3824 -0.2400
 9585TIP3    H150170   6.429   2.071  13.458 -0.4961 -0.4505  0.0168
 9585TIP3    H250171   6.557   2.125  13.397 -0.2218 -2.2904 -1.1240
 9586TIP3   OH250172   4.136   1.339   0.995 -0.5570  0.0244  0.5413
 9586TIP3    H150173   4.094   1.262   0.959 -0.5838 -0.7511  2.1198
 9586TIP3    H250174   4.117   1.335   1.089  2.3503  0.0261  1.2421
 9587TIP3   OH250175   2.373   6.332   1.427  0.0457 -0.2778 -0.3667
 9587TIP3    H150176   2.294   6.323   1.481  0.4586  1.8234  0.6944
 9587TIP3    H250177   2.369   6.258   1.366 -1.6145 -1.4475  1.0590
 9588TIP3   OH250178   6.027   4.535   0.517  0.2367  0.0722 -0.2027
 9588TIP3    H150179   5.956   4.599   0.522 -0.3495 -0.6633  1.7591
 9588TIP3    H250180   6.012   4.489   0.434 -1.8987 -0.3732  0.3514
 9589TIP3   OH250181   2.723   5.862   5.638 -0.1221 -0.3116 -0.1830
 9589TIP3    H150182   2.807   5.899   5.610 -0.2494  0.1588  0.0553
 9589TIP3    H250183   2.690   5.816   5.560  0.5483 -0.8551 -0.1539
 9590TIP3   OH250184   3.779   3.513   5.056  0.2791 -0.7428 -0.0284
 9590TIP3    H150185   3.856   3.475   5.098  0.4627  1.0107  1.3275
 9590TIP3    H250186   3.725   3.437   5.033  1.3909 -1.8958  0.9805
 9591TIP3   OH250187   1.706   0.212  14.229  0.3926  0.0527  0.0717
 9591TIP3    H150188   1.789   0.259  14.224  0.6414 -0.4127 -0.3088
 9591TIP3    H250189   1.690   0.203  14.323  0.1805  1.1586  0.1514
 9592TIP3   OH250190   1.655   4.313   0.424  0.0632 -0.8346  0.3799
 9592TIP3    H150191   1.659   4.382   0.491 -1.3647 -2.1783  1.9375
 9592TIP3    H250192   1.568   4.321   0.386  0.2716 -1.1377 -0.1703
 9593TIP3   OH250193   4.657   5.371   1.377  0.2684 -0.1242 -0.1073
 9593TIP3    H150194   4.592   5.303   1.358  0.5762 -0.4932  0.1662
 9593TIP3    H250195   4.604   5.451   1.386 -0.1480 -0.4158  0.0935
 9594TIP3   OH250196   1.360   6.259   1.098 -0.2142 -0.1728  0.5022
 9594TIP3    H150197   1.440   6.299   1.134 -0.3911 -1.6916  2.7682
 9594TIP3    H250198   1.301   6.252   1.173 -2.7707  1.3786 -1.2007
 9595TIP3   OH250199   5.999   6.315  15.795  0.7498  0.0749  1.1489
 9595TIP3    H150200   5.999   6.409  15.813 -0.2727 -0.1856  2.7314
 9595TIP3    H250201   5.912   6.297  15.759  1.4150 -0.0720 -0.4658
 9596TIP3   OH250202   0.980   3.133  16.883 -0.0204  0.2544 -0.0724
 9596TIP3    H150203   0.998   3.177  16.967 -1.1002  2.3901 -0.8824
 9596TIP3    H250204   1.041   3.060  16.881  2.0110  1.7856  1.3364
 9597TIP3   OH250205   5.494   2.092  17.061  0.3781  0.0292 -0.4537
 9597TIP3    H150206   5.431   2.164  17.060 -0.2685 -0.5007  0.6091
 9597TIP3    H250207   5.450   2.022  17.014 -1.0365 -1.2644  2.5236
 9598TIP3   OH250208   6.379   0.602  13.091  0.3058 -0.5410  0.1475
 9598TIP3    H150209   6.399   0.679  13.038  0.6363  0.3915  1.5586
 9598TIP3    H250210   6.307   0.630  13.147 -1.4060 -2.1362 -1.1240
 9599TIP3   OH250211   4.735   4.182  14.145 -0.5880 -0.0008  0.0858
 9599TIP3    H150212   4.750   4.180  14.050  1.3380 -0.0977  0.3627
 9599TIP3    H250213   4.690   4.100  14.164  2.9460 -2.1963 -0.1919
 9600TIP3   OH250214   0.138   0.639   1.890  0.2538 -0.0223  0.6831
 9600TIP3    H150215   0.155   0.575   1.959 -1.1401 -0.0814  1.0046
 9600TIP3    H250216   0.136   0.723   1.936 -1.4591 -0.1384  0.8918
 9601TIP3   OH250217   5.030   2.831  11.962  0.1568 -0.0671 -0.2550
 9601TIP3    H150218   4.974   2.847  11.885 -1.0669  1.6044  0.9083
 9601TIP3    H250219   4.972   2.790  12.026 -0.0669  2.3528  1.2408
 9602TIP3   OH250220   5.181   3.379  13.379 -0.0539  0.2237  0.1935
 9602TIP3    H150221   5.228   3.454  13.414  1.0026 -0.6952  0.8210
 9602TIP3    H250222   5.124   3.350  13.451  1.7324 -1.3456  1.0669
 9603TIP3   OH250223   1.847   4.689   0.982 -0.5787  0.4243  0.0254
 9603TIP3    H150224   1.932   4.657   0.950 -1.0935 -1.3572  0.3437
 9603TIP3    H250225   1.782   4.642   0.930 -1.3852  0.7340  0.7196
 9604TIP3   OH250226   5.563   0.051   4.582  0.1502  0.0693 -0.2025
 9604TIP3    H150227   5.518   0.040   4.498  0.0265  1.5658 -0.3451
 9604TIP3    H250228   5.527  -0.020   4.637 -0.5457 -0.2719 -1.0725
 9605TIP3   OH250229   1.908   3.651  11.751  0.0017 -0.3179 -0.0327
 9605TIP3    H150230   1.856   3.706  11.810  1.5196  1.9475 -0.6537
 9605TIP3    H250231   1.881   3.679  11.663  1.1168 -0.2147 -0.3564
 9606TIP3   OH250232   3.775   5.756  15.735 -0.1664 -0.1595 -0.4054
 9606TIP3    H150233   3.815   5.843  15.735  0.3962 -0.3767  1.6505
 9606TIP3    H250234   3.848   5.695  15.732 -0.5603 -0.7118 -4.3116
 9607TIP3   OH250235   4.627   1.491  12.753  0.0774 -0.1923 -0.2252
 9607TIP3    H150236   4.574   1.435  12.696  1.3991 -0.4792 -1.2199
 9607TIP3    H250237   4.636   1.442  12.834  0.4659 -1.0336 -0.7682
 9608TIP3   OH250238   4.802   6.658   0.407  0.3407 -0.3030 -0.6106
 9608TIP3    H150239   4.867   6.630   0.343  0.0687  0.9126 -1.4617
 9608TIP3    H250240   4.752   6.726   0.362  2.0692  2.8608  1.8268
 9609TIP3   OH250241   4.631   2.968  14.366  0.4050 -1.0064  0.3196
 9609TIP3    H150242   4.580   3.010  14.435 -1.1144 -1.7794 -0.2945
 9609TIP3    H250243   4.688   2.906  14.412 -0.1691 -1.0915  0.9285
 9610TIP3   OH250244   2.726   5.887  12.789 -0.8261 -0.1802 -0.7067
 9610TIP3    H150245   2.653   5.923  12.839  0.5592 -0.0019  1.3079
 9610TIP3    H250246   2.708   5.794  12.783 -0.5976 -0.3645  0.9933
 9611TIP3   OH250247   0.353   1.637   0.457 -0.1885  0.3928  0.2351
 9611TIP3    H150248   0.314   1.717   0.494  2.8987  1.4239  1.5636
 9611TIP3    H250249   0.354   1.576   0.530  1.3771  0.6817  0.4776
 9612TIP3   OH250250   5.200   0.852  15.370 -0.2877 -0.1804  0.3561
 9612TIP3    H150251   5.251   0.826  15.293  2.1496  0.7759  1.5511
 9612TIP3    H250252   5.255   0.829  15.444 -1.9999  0.1536  1.8023
 9613TIP3   OH250253   6.065   0.259   1.160 -0.1089  0.0929 -0.0225
 9613TIP3    H150254   6.039   0.234   1.248  1.4557  0.3452  0.5442
 9613TIP3    H250255   6.015   0.200   1.103 -1.1208 -0.0852  1.0129
 9614TIP3   OH250256   6.045   6.213  14.771 -0.0421 -0.1070 -0.4020
 9614TIP3    H150257   6.042   6.289  14.714 -1.0464  0.1660 -0.0041
 9614TIP3    H250258   6.054   6.249  14.859  1.5697 -0.5260 -0.3664
 9615TIP3   OH250259   3.774   1.315   5.800  0.2383  0.1259 -0.2841
 9615TIP3    H150260   3.833   1.371   5.749  0.2141  0.8515  0.4617
 9615TIP3    H250261   3.708   1.375   5.835  0.2607 -0.3442  0.6092
 9616TIP3   OH250262   3.857   4.748  16.333 -0.0423  0.1880 -0.0684
 9616TIP3    H150263   3.831   4.658  16.354  0.1177  0.4187  1.1939
 9616TIP3    H250264   3.931   4.766  16.391 -0.4825  1.3462  0.1697
 9617TIP3   OH250265   6.491   4.793   4.745 -0.4403 -0.3679 -0.6442
 9617TIP3    H150266   6.413   4.847   4.757  0.8338  1.2296  1.0513
 9617TIP3    H250267   6.506   4.752   4.830 -0.6297 -2.4408 -1.5494
 9618TIP3   OH250268   5.513   2.854  11.919  0.3832 -0.0424 -0.5050
 9618TIP3    H150269   5.482   2.920  11.857 -0.1907  0.2511  0.0802
 9618TIP3    H250270   5.435   2.802  11.940  0.7012 -0.5206 -0.4840
 9619TIP3   OH250271   5.270   1.661  16.105  0.1198 -0.3231  0.2792
 9619TIP3    H150272   5.227   1.709  16.175  0.0213  1.2372 -0.7956
 9619TIP3    H250273   5.218   1.681  16.027  0.6872 -1.3662 -0.3975
 9620TIP3   OH250274   1.758   5.525  12.053 -0.3506 -0.0132  0.4382
 9620TIP3    H150275   1.804   5.479  11.983 -0.1602 -0.2974  0.7526
 9620TIP3    H250276   1.671   5.544  12.016 -1.2568 -2.5754  1.0547
 9621TIP3   OH250277   4.225   1.494   5.743 -0.2302  0.6216  0.1235
 9621TIP3    H150278   4.153   1.550   5.771 -0.2600  0.2711  0.7737
 9621TIP3    H250279   4.275   1.478   5.824 -0.0448 -0.0286 -0.1191
 9622TIP3   OH250280   4.514   5.402   6.664 -1.0944  0.1522 -0.3315
 9622TIP3    H150281   4.525   5.472   6.599  0.8935 -1.0097 -1.3382
 9622TIP3    H250282   4.603   5.373   6.684 -1.8493 -2.7080 -0.6782
 9623TIP3   OH250283   6.161   6.202  15.202  0.4176  0.2215 -0.3047
 9623TIP3    H150284   6.230   6.264  15.224  1.6103 -0.8291 -0.9536
 9623TIP3    H250285   6.094   6.255  15.159  0.6787  1.3059  0.5825
 9624TIP3   OH250286   5.421   2.848   0.176  0.4087  0.4327  0.2583
 9624TIP3    H150287   5.455   2.764   0.145  0.6822 -0.0199  1.7105
 9624TIP3    H250288   5.340   2.862   0.127 -0.0585 -1.0683  0.5713
 9625TIP3   OH250289   5.060   2.931   2.483 -0.5826 -0.3172 -0.4538
 9625TIP3    H150290   5.025   2.847   2.453  1.4167 -1.8172  1.0720
 9625TIP3    H250291   5.066   2.922   2.578  0.9821  1.0017 -0.3783
 9626TIP3   OH250292   1.315   4.808   5.422  0.0859 -0.1651  0.3311
 9626TIP3    H150293   1.266   4.758   5.357  0.3813  1.1176 -0.9345
 9626TIP3    H250294   1.401   4.766   5.426 -0.3109 -0.9523  0.7658
 9627TIP3   OH250295   0.872   3.104  14.534 -0.0989 -0.0149 -0.3275
 9627TIP3    H150296   0.912   3.163  14.597  1.2087 -0.9099 -0.2922
 9627TIP3    H250297   0.859   3.158  14.456 -0.2058  0.6646  0.1480
 9628TIP3   OH250298   1.773   3.495  14.295 -0.7049 -0.4303 -0.0952
 9628TIP3    H150299   1.858   3.534  14.315 -0.3845 -1.2662  0.2230
 9628TIP3    H250300   1.720   3.567  14.262 -0.6517  0.6374  1.9930
 9629TIP3   OH250301   6.292   2.406   3.480 -0.6077  0.1583  0.2404
 9629TIP3    H150302   6.385   2.388   3.468 -0.6028 -0.0042  0.5152
 9629TIP3    H250303   6.251   2.372   3.400 -0.6512 -1.5457  0.9462
 9630TIP3   OH250304   1.219   4.132  12.388 -0.6318 -1.0556 -0.4584
 9630TIP3    H150305   1.180   4.217  12.403 -0.5237 -1.0225 -0.3646
 9630TIP3    H250306   1.145   4.073  12.374 -0.8593 -1.4728  2.0547
 9631TIP3   OH250307   6.274   4.557  12.948 -0.2569 -0.4042 -0.4825
 9631TIP3    H150308   6.334   4.601  13.008 -1.3283 -0.7412  0.8648
 9631TIP3    H250309   6.285   4.604  12.865 -0.3499  1.5189  0.5493
 9632TIP3   OH250310   0.854   0.783  12.625 -0.1743 -0.0989 -0.2505
 9632TIP3    H150311   0.788   0.811  12.561 -2.1319  1.6932  2.2902
 9632TIP3    H250312   0.816   0.706  12.667  0.1891 -0.1382  0.0119
 9633TIP3   OH250313   2.226   0.293  17.286 -0.1857  0.0313  0.0249
 9633TIP3    H150314   2.279   0.294  17.366 -1.4917  0.8789  0.9215
 9633TIP3    H250315   2.289   0.302  17.215  0.7839  3.0366  1.1214
 9634TIP3   OH250316   1.175   1.501  12.860 -0.3612 -0.2756  0.1503
 9634TIP3    H150317   1.101   1.558  12.839 -0.3725 -0.8263 -1.4767
 9634TIP3    H250318   1.152   1.417  12.819 -0.7962 -1.8199  3.2557
 9635TIP3   OH250319   5.055   5.376   1.040 -0.4464 -0.4985 -0.3276
 9635TIP3    H150320   4.989   5.430   0.995 -0.0517  0.7104  0.4942
 9635TIP3    H250321   5.022   5.368   1.129  0.6274  0.3245  0.1545
 9636TIP3   OH250322   1.006   3.577   5.853 -0.0405  0.0705 -0.0697
 9636TIP3    H150323   0.958   3.660   5.861  1.0702  0.6128  1.6601
 9636TIP3    H250324   1.062   3.588   5.776  3.2636  2.7813  2.3985
 9637TIP3   OH250325   2.136   6.452  14.672  0.2955 -0.3559 -0.0471
 9637TIP3    H150326   2.053   6.481  14.633 -0.5201 -1.8287  0.4965
 9637TIP3    H250327   2.111   6.382  14.733  1.8111  0.0959  1.1687
 9638TIP3   OH250328   4.261   4.232  11.954 -0.7782 -0.0525  0.6105
 9638TIP3    H150329   4.199   4.304  11.962 -2.9668 -1.8220  0.4028
 9638TIP3    H250330   4.207   4.156  11.935  1.5023 -1.6719  0.2669
 9639TIP3   OH250331   2.843   3.959  15.236 -0.5626  0.3960 -0.2639
 9639TIP3    H150332   2.920   4.001  15.197  0.0940 -0.7359 -0.2030
 9639TIP3    H250333   2.858   3.865  15.227 -1.0076  0.1097  1.5163
 9640TIP3   OH250334   1.689   2.888   3.326 -0.4527 -0.5186  0.0714
 9640TIP3    H150335   1.721   2.852   3.409  1.1299 -1.6908 -0.9966
 9640TIP3    H250336   1.761   2.876   3.265 -1.9884 -0.7325 -1.7826
 9641TIP3   OH250337   6.433   6.286   5.030 -0.3543  0.0159 -0.1175
 9641TIP3    H150338   6.454   6.361   4.974 -0.6260 -0.3644 -0.7397
 9641TIP3    H250339   6.427   6.323   5.118  0.5419  0.5425 -0.2711
 9642TIP3   OH250340   4.884   2.400   2.157 -0.1059  0.4625 -0.0681
 9642TIP3    H150341   4.795   2.433   2.170 -0.0073  0.9296 -0.5513
 9642TIP3    H250342   4.900   2.412   2.063  0.1796 -0.3447 -0.1356
 9643TIP3   OH250343   4.567   2.161   1.663  0.2774 -0.1698 -0.0182
 9643TIP3    H150344   4.480   2.130   1.688 -0.3849  0.4230 -1.4703
 9643TIP3    H250345   4.557   2.256   1.654  0.7594 -0.2195 -1.3161
 9644TIP3   OH250346   5.254   0.062   4.485 -0.0309 -0.4276  0.5426
 9644TIP3    H150347   5.195  -0.013   4.483 -0.2676 -0.2548  0.8543
 9644TIP3    H250348   5.335   0.030   4.447 -0.0073 -0.9497  1.0130
 9645TIP3   OH250349   6.441   6.192   2.363 -0.3003 -0.1505  0.5496
 9645TIP3    H150350   6.397   6.231   2.439 -0.0384 -2.0149  1.7333
 9645TIP3    H250351   6.435   6.098   2.378  0.1460 -0.5728 -1.5645
 9646TIP3   OH250352   2.932   4.044   2.330  0.1881  0.8335 -0.2365
 9646TIP3    H150353   2.955   3.978   2.395  1.4673 -0.0171 -1.4936
 9646TIP3    H250354   2.894   4.116   2.381 -0.2211 -0.4052  1.2695
 9647TIP3   OH250355   0.293   6.068   4.149  0.6236 -0.3334 -0.3822
 9647TIP3    H150356   0.263   6.124   4.220  3.1785  0.7529 -0.0630
 9647TIP3    H250357   0.259   6.109   4.070 -1.7992 -1.2627  0.0745
 9648TIP3   OH250358   4.295   4.721   0.520  0.1681 -0.0467  0.1563
 9648TIP3    H150359   4.257   4.654   0.576 -0.4562  0.5011  0.4019
 9648TIP3    H250360   4.267   4.804   0.559  1.1263  0.3658 -0.0046
 9649TIP3   OH250361   0.776   3.624  12.617 -0.2616  0.1480 -0.0190
 9649TIP3    H150362   0.797   3.533  12.597 -1.6802 -0.4194  0.9698
 9649TIP3    H250363   0.791   3.671  12.535  1.5801 -0.7483 -0.2404
 9650TIP3   OH250364   2.098   3.395   2.568 -0.8159 -0.3048 -0.1726
 9650TIP3    H150365   2.124   3.477   2.526  1.7468 -1.6344 -1.3590
 9650TIP3    H250366   2.170   3.373   2.626 -1.7015 -1.4752  0.5272
 9651TIP3   OH250367   1.594   1.176   0.010 -1.0371 -0.3666  0.1101
 9651TIP3    H150368   1.528   1.225  -0.038  0.2360  0.9914 -0.3123
 9651TIP3    H250369   1.672   1.181  -0.044  0.0955  0.1378  1.7111
 9652TIP3   OH250370   5.674   4.243   3.452 -0.6409  0.4511 -0.6373
 9652TIP3    H150371   5.734   4.307   3.492 -2.5151  1.7541  0.2217
 9652TIP3    H250372   5.624   4.293   3.388 -1.1878 -0.4837 -0.9568
 9653TIP3   OH250373   6.205   5.842  15.507 -0.6624  0.3460 -0.6350
 9653TIP3    H150374   6.143   5.807  15.571  2.0410 -1.1004  1.3861
 9653TIP3    H250375   6.236   5.924  15.545  1.7329 -1.0214  0.6251
 9654TIP3   OH250376   6.457   4.806   6.152 -0.1419  0.2781  0.0749
 9654TIP3    H150377   6.509   4.794   6.072 -0.6390 -1.6234 -0.0226
 9654TIP3    H250378   6.455   4.900   6.166  0.2204  0.6381 -1.9923
 9655TIP3   OH250379   0.094   0.480   3.570  0.6578  0.2660 -0.3442
 9655TIP3    H150380   0.003   0.500   3.590  0.8311  1.4733 -0.6620
 9655TIP3    H250381   0.141   0.500   3.651  0.6515 -0.3327 -0.1876
 9656TIP3   OH250382   4.843   6.397   0.184  0.0213 -0.3031  0.4385
 9656TIP3    H150383   4.904   6.362   0.249  0.3883  0.8493  0.7469
 9656TIP3    H250384   4.877   6.484   0.164  0.5795 -1.0339 -2.1726
 9657TIP3   OH250385   3.248   2.712  13.670  0.4916  0.1265 -0.5323
 9657TIP3    H150386   3.191   2.787  13.685 -0.9460 -1.0909  0.4027
 9657TIP3    H250387   3.261   2.711  13.575  0.9421  1.8035 -0.5213
 9658TIP3   OH250388   2.409   4.122   0.031  0.3666  0.5576 -0.2134
 9658TIP3    H150389   2.379   4.054  -0.029  1.9655 -1.2285  0.8608
 9658TIP3    H250390   2.379   4.092   0.117  1.8876  0.6972  0.3896
 9659TIP3   OH250391   1.274   0.673  16.541 -0.0836 -0.0730  0.0385
 9659TIP3    H150392   1.346   0.692  16.480  1.3873 -3.9099  0.3162
 9659TIP3    H250393   1.213   0.620  16.490 -0.7354 -0.1595  0.8924
 9660TIP3   OH250394   2.887   0.824   0.198 -0.4796  0.4659 -0.1487
 9660TIP3    H150395   2.911   0.773   0.121 -0.4399 -0.2633  0.3309
 9660TIP3    H250396   2.898   0.915   0.171 -0.0630  0.2124 -0.8705
 9661TIP3   OH250397   4.937   5.546  15.878 -0.3773 -0.1960  0.2044
 9661TIP3    H150398   4.910   5.635  15.903 -0.8050 -0.2956  0.1054
 9661TIP3    H250399   4.980   5.512  15.955  2.9411  1.3223 -0.7941
 9662TIP3   OH250400   4.933   6.466   2.508 -0.7431 -0.0194 -0.6327
 9662TIP3    H150401   4.907   6.511   2.427  0.5182  1.1190 -0.4395
 9662TIP3    H250402   4.851   6.436   2.546 -1.5835  1.5665 -1.1192
 9663TIP3   OH250403   5.198   0.286   6.545 -0.2093 -0.2483 -0.4351
 9663TIP3    H150404   5.255   0.219   6.507 -0.2036 -0.2904 -0.3530
 9663TIP3    H250405   5.204   0.360   6.484 -0.2088 -0.3188 -0.5205
 9664TIP3   OH250406   0.992   0.056  17.537 -0.1070 -0.2277  0.0417
 9664TIP3    H150407   0.958  -0.033  17.528 -0.8696  0.1819 -1.5932
 9664TIP3    H250408   1.080   0.045  17.573 -0.8097 -1.5141  1.4485
 9665TIP3   OH250409   1.841   5.215  11.588 -0.2492  0.5427 -0.1799
 9665TIP3    H150410   1.803   5.142  11.636  0.5840  0.8479  0.9887
 9665TIP3    H250411   1.816   5.199  11.497 -0.6531 -0.8224  0.1421
 9666TIP3   OH250412   5.913   5.964   5.684 -0.3884  0.2794 -0.6983
 9666TIP3    H150413   5.935   5.919   5.603  0.5669  0.1666 -0.3884
 9666TIP3    H250414   5.848   5.908   5.726  0.5198 -0.6466 -0.4881
 9667TIP3   OH250415   0.947   6.233  14.578 -0.0612 -0.1368  0.1758
 9667TIP3    H150416   0.961   6.278  14.661  0.2178  0.6716 -0.2995
 9667TIP3    H250417   1.002   6.279  14.516  0.6706 -1.4955 -0.2287
 9668TIP3   OH250418   0.991   3.182  13.826  0.1464  0.2952 -0.0843
 9668TIP3    H150419   1.070   3.202  13.775  1.2237 -0.3412  1.2563
 9668TIP3    H250420   1.018   3.195  13.917 -1.4572  0.5406  0.3757
 9669TIP3   OH250421   6.229   6.581   1.010 -0.1178 -0.3048  0.3597
 9669TIP3    H150422   6.234   6.489   0.985  0.2958 -0.7004  1.7964
 9669TIP3    H250423   6.173   6.621   0.943 -1.6860 -1.9305  0.6253
 9670TIP3   OH250424   4.595   4.620  16.665 -0.6075  0.2611  0.2836
 9670TIP3    H150425   4.516   4.576  16.696 -0.3478 -0.4575 -0.0530
 9670TIP3    H250426   4.618   4.682  16.734 -0.8731 -0.2693  0.8471
 9671TIP3   OH250427   6.353   1.255  12.238  0.4549 -0.3735  0.4572
 9671TIP3    H150428   6.399   1.179  12.202 -0.1138  0.0725 -1.2928
 9671TIP3    H250429   6.370   1.326  12.176 -0.6686  0.4033  0.9948
 9672TIP3   OH250430   5.782   3.295  15.041 -0.4138  0.4658  0.8556
 9672TIP3    H150431   5.827   3.218  15.077  1.0945 -0.5866 -2.7709
 9672TIP3    H250432   5.691   3.268  15.034  0.3381 -1.9050 -1.9641
 9673TIP3   OH250433   1.067   3.923   0.709  0.1428 -0.5551 -0.3333
 9673TIP3    H150434   1.079   4.007   0.663 -3.3949  1.0568  1.3494
 9673TIP3    H250435   1.125   3.929   0.785 -1.4411  1.3578  0.8256
 9674TIP3   OH250436   3.232   1.162  13.097  0.1340 -0.1232  0.0060
 9674TIP3    H150437   3.146   1.202  13.081 -0.4945 -0.8652  1.3654
 9674TIP3    H250438   3.258   1.127  13.012  0.8487  3.2965 -1.3349
 9675TIP3   OH250439   5.990   1.576  17.145 -0.0153 -0.7625  0.5026
 9675TIP3    H150440   5.991   1.554  17.238 -2.6331  2.3472  1.4457
 9675TIP3    H250441   5.898   1.587  17.124  0.5673 -0.4818 -2.2611
 9676TIP3   OH250442   0.423   0.184  15.476  0.1031  0.3123  0.1064
 9676TIP3    H150443   0.425   0.125  15.401 -2.2209 -0.6016  0.6778
 9676TIP3    H250444   0.457   0.131  15.549 -1.2036 -0.0908  0.4469
 9677TIP3   OH250445   5.842   1.859  13.370  0.1316  0.1083  0.3186
 9677TIP3    H150446   5.910   1.831  13.309 -1.8529 -1.3930 -1.3311
 9677TIP3    H250447   5.854   1.803  13.447  1.2124  0.3978  0.3703
 9678TIP3   OH250448   6.562   1.620  16.596 -0.2239  0.6969  0.1527
 9678TIP3    H150449   6.469   1.618  16.570 -0.6054  0.8360  1.4312
 9678TIP3    H250450   6.606   1.568  16.529 -1.3495 -0.0420 -0.0536
 9679TIP3   OH250451   4.093   5.090  15.100 -0.3252  0.0355 -0.2280
 9679TIP3    H150452   4.101   5.182  15.077  1.1716  0.1566  0.6231
 9679TIP3    H250453   4.170   5.072  15.155 -0.4598 -1.7697 -0.5562
 9680TIP3   OH250454   2.383   2.571  17.502 -0.0537 -0.1131  0.4970
 9680TIP3    H150455   2.293   2.541  17.498 -0.5943  1.5004 -0.1306
 9680TIP3    H250456   2.413   2.545  17.590 -1.5150  0.3923  1.1804
 9681TIP3   OH250457   0.291   2.246   3.428 -0.3028  0.8421  0.1543
 9681TIP3    H150458   0.212   2.192   3.421 -1.3034  2.0727  1.2387
 9681TIP3    H250459   0.300   2.287   3.341 -0.2962 -0.0347 -0.2633
 9682TIP3   OH250460   3.712   2.580  12.533 -0.0416  0.9488  0.3776
 9682TIP3    H150461   3.780   2.586  12.601 -0.1477 -1.0962  0.7343
 9682TIP3    H250462   3.633   2.614  12.575  0.0861  0.4811  1.0116
 9683TIP3   OH250463   0.586   3.486  12.333  0.3229  0.0244  0.2782
 9683TIP3    H150464   0.631   3.501  12.416 -1.9744 -4.5159  2.7581
 9683TIP3    H250465   0.648   3.437  12.280  0.0953 -1.9271  1.7085
 9684TIP3   OH250466   6.674   1.034   2.696 -0.0063 -0.0712 -0.7267
 9684TIP3    H150467   6.653   0.965   2.633 -2.0330  1.3825 -1.7674
 9684TIP3    H250468   6.728   1.096   2.645  0.7257 -0.2445 -0.1760
 9685TIP3   OH250469   4.102   4.728   5.044  0.0942 -0.1648  0.0708
 9685TIP3    H150470   4.130   4.818   5.027  0.1953 -0.0335  0.8837
 9685TIP3    H250471   4.109   4.685   4.959 -5.4746  1.9501 -1.8803
 9686TIP3   OH250472   0.305   1.334  12.874 -0.8233  0.2383 -0.0303
 9686TIP3    H150473   0.384   1.282  12.894 -1.0447 -0.0934 -0.0126
 9686TIP3    H250474   0.242   1.306  12.940  0.0453  2.8494  2.0568
 9687TIP3   OH250475   3.566   2.618   4.435 -0.2558  0.0480  0.0226
 9687TIP3    H150476   3.507   2.543   4.430 -1.0346  0.6089  0.5811
 9687TIP3    H250477   3.561   2.658   4.348 -0.0795 -0.3616 -0.1781
 9688TIP3   OH250478   3.354   0.874  13.765 -0.9596  0.9016  0.0089
 9688TIP3    H150479   3.363   0.797  13.709 -2.1842  0.2381  0.6713
 9688TIP3    H250480   3.301   0.935  13.714 -1.2204  0.7085  0.0481
 9689TIP3   OH250481   5.451   3.807   5.530 -0.4697 -0.1118 -0.9709
 9689TIP3    H150482   5.519   3.832   5.468 -0.8343  0.5207 -1.1176
 9689TIP3    H250483   5.476   3.851   5.612 -1.4334  1.2701 -1.3856
 9690TIP3   OH250484   6.114   0.119  10.886  0.2056 -0.3612 -0.5918
 9690TIP3    H150485   6.065   0.069  10.821 -0.2643  1.4684 -1.7250
 9690TIP3    H250486   6.165   0.182  10.835 -0.3128  1.2477  0.7789
 9691TIP3   OH250487   5.135   2.370  11.554 -0.7242 -0.0300  0.0957
 9691TIP3    H150488   5.153   2.446  11.610  0.2268  1.0708 -1.5767
 9691TIP3    H250489   5.040   2.359  11.557 -1.2616  2.9525 -1.5922
 9692TIP3   OH250490   3.352   4.227   5.661  0.2515  0.3944 -0.0253
 9692TIP3    H150491   3.342   4.155   5.599 -1.6115 -0.1457  0.8108
 9692TIP3    H250492   3.410   4.193   5.729 -1.3041 -0.7356  0.8254
 9693TIP3   OH250493   1.592   1.660  14.583 -0.4862 -0.0112  0.0652
 9693TIP3    H150494   1.513   1.638  14.534  0.5417 -0.8288 -1.3131
 9693TIP3    H250495   1.583   1.753  14.604 -1.6465 -0.0149 -0.3499
 9694TIP3   OH250496   5.522   3.016  12.656 -0.2058 -0.2953  0.5037
 9694TIP3    H150497   5.520   2.924  12.682  0.9117 -1.3200 -2.5819
 9694TIP3    H250498   5.615   3.040  12.662 -0.1194 -0.1642 -0.9356
 9695TIP3   OH250499   1.199   3.732  13.095 -0.1766  0.1912  0.3206
 9695TIP3    H150500   1.227   3.780  13.016 -2.2423 -0.7032 -1.0456
 9695TIP3    H250501   1.243   3.648  13.088 -0.8973 -0.1496 -0.2951
 9696TIP3   OH250502   2.387   3.744  14.786 -0.2949  0.0810 -0.4252
 9696TIP3    H150503   2.316   3.788  14.832 -0.9549  0.2683 -1.5658
 9696TIP3    H250504   2.440   3.704  14.855 -1.3152  0.2264  0.4716
 9697TIP3   OH250505   0.232   5.540  16.427 -0.7168  0.1952 -0.3727
 9697TIP3    H150506   0.288   5.526  16.351 -1.0669  1.4276 -0.8819
 9697TIP3    H250507   0.182   5.459  16.436  0.0100 -0.3201 -0.8658
 9698TIP3   OH250508   0.988   0.471  14.183 -0.3479 -0.2160  0.8759
 9698TIP3    H150509   0.905   0.430  14.161  0.5544 -1.3792 -0.6085
 9698TIP3    H250510   0.986   0.555  14.137 -0.6705 -0.2713  0.7856
 9699TIP3   OH250511   4.880   4.265   6.955 -0.5362  0.2140  0.2811
 9699TIP3    H150512   4.799   4.230   6.991 -0.9685  1.6490  0.7772
 9699TIP3    H250513   4.851   4.326   6.887  0.1893 -0.2628 -0.4779
 9700TIP3   OH250514   3.008   2.283  13.811  0.0414 -0.3479 -0.1287
 9700TIP3    H150515   3.057   2.238  13.741  2.2125  0.6340  0.6735
 9700TIP3    H250516   3.026   2.231  13.889  0.8704  0.6868  0.4029
 9701TIP3   OH250517   2.979   0.140   2.613 -0.1025 -0.1563  0.2518
 9701TIP3    H150518   3.030   0.204   2.564  0.2205  0.5885  1.5196
 9701TIP3    H250519   2.959   0.183   2.696 -1.3329 -1.0764  0.4626
 9702TIP3   OH250520   1.093   1.237   1.909  0.4171 -0.5004 -0.0789
 9702TIP3    H150521   1.007   1.266   1.939  0.8548  1.3453 -0.5380
 9702TIP3    H250522   1.082   1.222   1.815  0.8203  0.6849 -0.3265
 9703TIP3   OH250523   3.047   2.557  13.328 -0.1176 -0.1260 -0.0517
 9703TIP3    H150524   2.987   2.555  13.402 -1.2194 -0.7895 -0.9366
 9703TIP3    H250525   2.996   2.596  13.257  0.7788  0.0984 -0.5825
 9704TIP3   OH250526   3.181   2.333  14.803 -0.3770  0.2241  0.0165
 9704TIP3    H150527   3.263   2.348  14.756 -1.5077  2.3194 -1.4119
 9704TIP3    H250528   3.179   2.238  14.815  0.7879 -0.2505 -2.7181
 9705TIP3   OH250529   3.618   2.293  12.051  0.5136 -0.2543  0.3381
 9705TIP3    H150530   3.680   2.324  12.116 -1.3068  2.2437  1.0104
 9705TIP3    H250531   3.535   2.286  12.098 -0.0071 -2.5235 -0.7722
 9706TIP3   OH250532   3.495   3.886  13.599 -0.1689  0.7030 -0.3470
 9706TIP3    H150533   3.507   3.937  13.679 -1.6850  0.3449  0.1268
 9706TIP3    H250534   3.581   3.847  13.583  0.7488  2.5295 -0.1484
 9707TIP3   OH250535   2.696   4.511  16.465 -0.1996 -0.1817 -0.1917
 9707TIP3    H150536   2.753   4.435  16.478  0.5146 -0.0719 -2.2713
 9707TIP3    H250537   2.748   4.570  16.411 -1.3725  1.0455 -0.0160
 9708TIP3   OH250538   5.016   4.846  17.039 -0.3469 -0.5174 -0.1395
 9708TIP3    H150539   4.964   4.783  16.989 -1.8524  0.3753  0.2281
 9708TIP3    H250540   5.020   4.924  16.982 -0.1210 -0.2923  0.1827
 9709TIP3   OH250541   0.012   2.625  13.727  0.3640 -0.6103  0.0895
 9709TIP3    H150542  -0.081   2.629  13.706  0.1278 -0.9148  1.0138
 9709TIP3    H250543   0.056   2.665  13.652 -0.4448 -1.2822 -0.7680
 9710TIP3   OH250544   3.206   5.665   5.160 -0.3105  0.1523 -0.0272
 9710TIP3    H150545   3.154   5.616   5.097 -2.0476  1.1674  0.5512
 9710TIP3    H250546   3.239   5.598   5.220 -4.6632 -0.3730  2.2337
 9711TIP3   OH250547   6.034   1.977  14.204  0.0410  0.4656  0.1064
 9711TIP3    H150548   6.091   1.937  14.139 -0.1744  0.2685  0.0375
 9711TIP3    H250549   6.073   2.063  14.221  1.4018 -0.3431  1.4038
 9712TIP3   OH250550   1.722   0.639   0.025  0.3227  0.0172 -0.1136
 9712TIP3    H150551   1.674   0.643   0.108  0.4250 -0.9990  0.0075
 9712TIP3    H250552   1.727   0.545   0.005 -0.1828  0.2762 -1.5519
 9713TIP3   OH250553   4.765   5.991   1.109  0.4461 -0.5843  0.1258
 9713TIP3    H150554   4.786   5.958   1.197 -0.0338  0.5562  0.6889
 9713TIP3    H250555   4.671   5.976   1.100 -0.0615  1.7219  0.9248
 9714TIP3   OH250556   3.169   5.130  16.594 -0.1203  0.0825 -0.2948
 9714TIP3    H150557   3.191   5.038  16.610  3.0556  1.0680  2.1568
 9714TIP3    H250558   3.253   5.171  16.570 -0.2800  3.1117  3.4097
 9715TIP3   OH250559   0.419   3.332   5.744 -0.1138 -0.1609  0.0255
 9715TIP3    H150560   0.453   3.388   5.675  2.5757 -0.8834  0.6698
 9715TIP3    H250561   0.482   3.339   5.815 -0.2055 -3.1422  0.5568
 9716TIP3   OH250562   3.203   0.071  16.988 -0.1916  0.5967  0.4636
 9716TIP3    H150563   3.187   0.157  17.027  0.1005  2.0954 -2.4566
 9716TIP3    H250564   3.116   0.035  16.973 -0.4511  1.7289 -0.9554
 9717TIP3   OH250565   0.624   1.943   0.623  0.0373 -0.8370 -0.1092
 9717TIP3    H150566   0.672   1.933   0.541 -0.2666 -0.8490 -0.2847
 9717TIP3    H250567   0.652   2.028   0.656 -0.2540 -0.5841 -0.4998
 9718TIP3   OH250568   3.320   2.138  11.715 -0.2862  0.2057  0.1041
 9718TIP3    H150569   3.270   2.194  11.656 -2.2589  0.5666  1.9924
 9718TIP3    H250570   3.285   2.157  11.802  2.4014 -0.4006  1.4185
 9719TIP3   OH250571   1.233   5.507  12.324  0.8919  0.0050 -0.1864
 9719TIP3    H150572   1.243   5.587  12.376  2.1776  1.3781 -2.3740
 9719TIP3    H250573   1.259   5.533  12.236 -2.3530 -1.8264 -1.8884
 9720TIP3   OH250574   4.000   1.923  15.036 -0.4407  0.1076 -0.3560
 9720TIP3    H150575   4.004   1.973  14.954  1.3437 -2.3276 -1.9072
 9720TIP3    H250576   4.092   1.906  15.058 -0.8262 -3.9771 -1.0306
 9721TIP3   OH250577   5.320   1.883  17.491 -0.1616 -0.2548 -0.2729
 9721TIP3    H150578   5.244   1.866  17.547 -0.2845 -1.8846 -0.8878
 9721TIP3    H250579   5.387   1.823  17.522  0.3379  0.0456 -0.7595
 9722TIP3   OH250580   6.030   5.667   0.612  0.5314  0.2686 -0.2150
 9722TIP3    H150581   6.001   5.750   0.650  1.2918  0.7247 -0.6074
 9722TIP3    H250582   6.125   5.673   0.612  0.6407 -1.0484  0.7114
 9723TIP3   OH250583   0.251   3.018  13.430 -0.6985  0.2616  0.1984
 9723TIP3    H150584   0.179   2.998  13.490 -0.0263  0.1009  0.9694
 9723TIP3    H250585   0.210   3.021  13.344 -1.3921 -1.2743  0.4375
 9724TIP3   OH250586   2.730   2.417   5.286 -0.3984  0.0139  0.6019
 9724TIP3    H150587   2.659   2.479   5.270 -0.9309 -0.9414 -0.8689
 9724TIP3    H250588   2.719   2.392   5.378 -1.0628  0.9709  0.7959
 9725TIP3   OH250589   2.855   0.874   6.433 -0.5699 -0.2458 -0.0814
 9725TIP3    H150590   2.815   0.790   6.410 -0.0361 -0.6487  0.4266
 9725TIP3    H250591   2.808   0.938   6.380 -2.3357 -0.6250  0.9568
 9726TIP3   OH250592   0.542   0.216  14.973 -0.5943  0.0804  0.3483
 9726TIP3    H150593   0.596   0.154  14.923  1.5745  2.5911 -0.6628
 9726TIP3    H250594   0.585   0.301  14.959 -3.7990  1.9538  1.0741
 9727TIP3   OH250595   0.521   5.183   2.421  0.6366  0.4574 -0.0919
 9727TIP3    H150596   0.553   5.133   2.345  0.5931 -0.2756  0.3551
 9727TIP3    H250597   0.474   5.118   2.474  0.1411  1.0941  0.2598
 9728TIP3   OH250598   3.815   3.955   1.638 -0.0573 -0.1406  0.6938
 9728TIP3    H150599   3.740   3.990   1.686 -1.5317 -1.1847 -0.7478
 9728TIP3    H250600   3.778   3.891   1.578  1.6105  1.3968 -2.1793
 9729TIP3   OH250601   6.211   2.213  14.164  0.1290 -0.0380  0.0591
 9729TIP3    H150602   6.127   2.238  14.126  1.3867  0.9230 -2.3467
 9729TIP3    H250603   6.248   2.151  14.100  0.9139 -1.1017  1.4883
 9730TIP3   OH250604   3.258   6.507   2.858  0.6613 -0.2792  0.2292
 9730TIP3    H150605   3.219   6.477   2.940 -0.9234  1.0312 -0.0049
 9730TIP3    H250606   3.291   6.427   2.817 -0.4753 -1.2526  1.1290
 9731TIP3   OH250607   5.513   0.739  16.818 -0.5956 -0.3961  0.0277
 9731TIP3    H150608   5.543   0.822  16.855 -0.0639 -1.4176  1.9961
 9731TIP3    H250609   5.460   0.765  16.742  0.1156  1.6963  0.1729
 9732TIP3   OH250610   0.874   5.381   4.430 -0.8646  0.0746 -0.3875
 9732TIP3    H150611   0.906   5.471   4.431  0.0202 -0.2303  0.3741
 9732TIP3    H250612   0.850   5.363   4.521  0.7807 -1.0646 -0.1438
 9733TIP3   OH250613   6.050   5.798  11.681 -0.4034  0.0558  0.1832
 9733TIP3    H150614   6.059   5.769  11.771 -0.6455  0.1603  0.2427
 9733TIP3    H250615   5.980   5.863  11.684  2.2896  3.2119  0.6699
 9734TIP3   OH250616   2.747   3.388  12.334 -0.3218 -0.7906  0.7454
 9734TIP3    H150617   2.787   3.308  12.367 -1.1835 -0.4854  2.6279
 9734TIP3    H250618   2.656   3.366  12.318 -0.6608 -0.1025  1.6571
 9735TIP3   OH250619   5.229   5.774   0.880  0.5792  0.3243  0.4093
 9735TIP3    H150620   5.138   5.784   0.851  0.8850 -0.2589 -0.8124
 9735TIP3    H250621   5.222   5.727   0.964 -0.1781 -2.2697 -0.9866
 9736TIP3   OH250622   2.165   4.293   4.624  0.2777 -0.3334  0.7557
 9736TIP3    H150623   2.078   4.332   4.627 -0.0576 -1.1564  2.7462
 9736TIP3    H250624   2.177   4.252   4.709  1.4850 -2.6953 -0.4319
 9737TIP3   OH250625   1.688   5.959  12.422  0.0580  0.1594 -0.0957
 9737TIP3    H150626   1.764   5.932  12.370 -1.4314 -0.3304 -2.1286
 9737TIP3    H250627   1.615   5.909  12.386 -1.2668  0.6471  1.7643
 9738TIP3   OH250628   5.473   2.879  16.837  0.2883  0.9096  0.3343
 9738TIP3    H150629   5.424   2.947  16.882  0.0402  1.6287 -0.9658
 9738TIP3    H250630   5.515   2.924  16.763  0.5453 -0.2397 -0.2505
 9739TIP3   OH250631   2.957   6.230   5.537 -0.6198 -0.0205 -0.4855
 9739TIP3    H150632   2.960   6.166   5.609  2.1103  1.2848  0.7297
 9739TIP3    H250633   2.993   6.182   5.462  0.4549 -0.2723  0.1541
 9740TIP3   OH250634   2.426   3.352  14.650 -0.6398  0.1096 -0.0677
 9740TIP3    H150635   2.460   3.400  14.725 -0.0909 -1.1710  0.5449
 9740TIP3    H250636   2.443   3.409  14.575  0.4026  0.6691  0.5709
 9741TIP3   OH250637   2.404   0.288  17.089  0.2124 -0.7455 -0.2437
 9741TIP3    H150638   2.456   0.209  17.098  0.3015 -0.5293  1.5020
 9741TIP3    H250639   2.468   0.358  17.074  0.3183 -0.6993  0.3958
 9742TIP3   OH250640   1.688   5.498  14.207  0.4077  0.0108 -0.3784
 9742TIP3    H150641   1.709   5.419  14.257  1.2030 -0.9214 -2.0963
 9742TIP3    H250642   1.626   5.468  14.140 -0.5024  1.1922 -0.0987
 9743TIP3   OH250643   6.286   5.257  12.793  0.0096 -0.0240 -0.2568
 9743TIP3    H150644   6.202   5.277  12.751  0.1851 -0.1968 -0.7012
 9743TIP3    H250645   6.275   5.167  12.826 -0.0490  0.0272 -0.1364
 9744TIP3   OH250646   4.869   4.012  13.460  0.0743 -0.1237  0.3777
 9744TIP3    H150647   4.811   4.087  13.470 -1.6340 -1.5231  1.3970
 9744TIP3    H250648   4.843   3.972  13.377  0.8770  0.2914 -0.0888
 9745TIP3   OH250649   2.754   0.921   4.915 -0.7806 -0.2636 -0.4979
 9745TIP3    H150650   2.672   0.922   4.868 -1.2054 -2.5823  0.0539
 9745TIP3    H250651   2.806   0.852   4.872  1.6021  2.1811 -1.8809
 9746TIP3   OH250652   6.196   1.384  16.104 -0.0596  0.2079  0.2836
 9746TIP3    H150653   6.135   1.452  16.076 -1.9522 -0.9123  1.4405
 9746TIP3    H250654   6.256   1.374  16.030 -2.0670  0.4813 -1.4976
 9747TIP3   OH250655   0.928   0.112   4.212  0.2289  0.2597  0.3172
 9747TIP3    H150656   0.834   0.093   4.219  0.6338 -2.1055  0.0503
 9747TIP3    H250657   0.956   0.129   4.302 -0.0418 -1.3737  0.7388
 9748TIP3   OH250658   5.383   1.810   5.723 -0.0368  0.2328 -0.7026
 9748TIP3    H150659   5.338   1.780   5.802  0.5703 -0.8521 -0.7528
 9748TIP3    H250660   5.315   1.855   5.673 -0.7816 -0.3509 -0.2403
 9749TIP3   OH250661   3.951   6.280  13.346 -0.0246  0.1447 -0.1259
 9749TIP3    H150662   3.883   6.308  13.285 -0.9002 -0.3039  0.6148
 9749TIP3    H250663   3.917   6.198  13.384  1.2964 -0.5354 -0.3424
 9750TIP3   OH250664   3.427   6.131   4.287 -0.0079  0.4122 -0.2657
 9750TIP3    H150665   3.418   6.067   4.357  0.5165  1.6436  0.9951
 9750TIP3    H250666   3.516   6.119   4.254  0.3553  0.9648  0.4863
 9751TIP3   OH250667   1.977   6.574  14.481 -0.2306  0.7323  0.2294
 9751TIP3    H150668   1.883   6.587  14.471 -0.0835  1.1128 -0.8152
 9751TIP3    H250669   2.016   6.657  14.453  0.4283  0.4264  0.2176
 9752TIP3   OH250670   1.799   3.575  12.923 -0.0495 -0.8414  0.6963
 9752TIP3    H150671   1.831   3.655  12.883  1.4585 -1.3856  0.7326
 9752TIP3    H250672   1.715   3.558  12.880  1.0278 -0.8749 -1.5571
 9753TIP3   OH250673   0.112   1.560  17.444  0.6378  0.0920 -0.1090
 9753TIP3    H150674   0.167   1.491  17.482 -0.2866 -0.8628 -0.4562
 9753TIP3    H250675   0.080   1.609  17.520  1.2605  0.1283  0.1421
 9754TIP3   OH250676   6.328   1.285   1.421 -0.5138  0.4222 -0.9144
 9754TIP3    H150677   6.301   1.196   1.445  0.4969  0.0590 -1.0894
 9754TIP3    H250678   6.315   1.336   1.501 -2.2406  0.4105 -1.1404
 9755TIP3   OH250679   5.619   5.392  17.136  0.6589  0.1846 -0.3589
 9755TIP3    H150680   5.560   5.317  17.135  1.0614 -0.1401 -0.1516
 9755TIP3    H250681   5.659   5.392  17.049  2.0465 -0.9774  0.2230
 9756TIP3   OH250682   6.233   1.830   3.902  0.1470  0.0156 -0.0628
 9756TIP3    H150683   6.218   1.794   3.989  0.8345  0.2678  0.1681
 9756TIP3    H250684   6.266   1.918   3.918  0.6637 -0.0807 -0.5661
 9757TIP3   OH250685   3.037   6.486   1.012  0.2142 -0.1105  0.4907
 9757TIP3    H150686   3.027   6.548   0.940  0.6362 -1.0407 -0.3762
 9757TIP3    H250687   3.125   6.451   1.003 -0.2440 -1.3229  0.5825
 9758TIP3   OH250688   6.073   4.403   0.276 -0.4511 -0.8557  0.0451
 9758TIP3    H150689   6.159   4.387   0.315  1.0641 -1.8571 -3.3490
 9758TIP3    H250690   6.047   4.319   0.239 -1.6961  0.0304 -1.2015
 9759TIP3   OH250691   5.914   3.320  17.617  0.1545  0.1131  0.5308
 9759TIP3    H150692   5.994   3.286  17.658 -2.1896 -5.1133  1.6700
 9759TIP3    H250693   5.848   3.314  17.686 -2.0242  0.3420 -1.4065
 9760TIP3   OH250694   4.773   0.543   5.749  0.1686 -0.2968  0.4200
 9760TIP3    H150695   4.770   0.530   5.844  0.9409  0.9891  0.6375
 9760TIP3    H250696   4.862   0.519   5.724  0.3328  0.4852  0.2156
 9761TIP3   OH250697   2.063   3.573  13.025 -0.1079  0.2814  0.2312
 9761TIP3    H150698   2.013   3.554  13.105  1.5652  0.5548  1.3921
 9761TIP3    H250699   2.000   3.616  12.967 -1.2268  0.6090  1.6274
 9762TIP3   OH250700   5.919   3.828   2.038  0.7448 -0.2544  0.0796
 9762TIP3    H150701   5.979   3.901   2.049  2.5406 -1.7071  0.3209
 9762TIP3    H250702   5.926   3.778   2.119  1.0411 -1.7504 -0.8315
 9763TIP3   OH250703   3.434   4.618   0.374 -0.2154  0.3139  0.2534
 9763TIP3    H150704   3.351   4.646   0.336  0.4805  2.3015  0.0705
 9763TIP3    H250705   3.473   4.562   0.307 -1.1130 -0.0934  0.0616
 9764TIP3   OH250706   0.959   0.868   0.872 -0.2841 -0.3957 -0.2756
 9764TIP3    H150707   1.041   0.847   0.828 -0.5413 -0.5850 -0.6695
 9764TIP3    H250708   0.931   0.951   0.834 -0.8758 -0.9144 -1.0114
 9765TIP3   OH250709   3.846   3.897  15.575  0.1329 -0.0295 -0.5295
 9765TIP3    H150710   3.844   3.950  15.655 -0.7812  0.2992 -0.7554
 9765TIP3    H250711   3.934   3.910  15.539  0.5480 -0.1713  0.4072
 9766TIP3   OH250712   1.367   3.488  13.448 -0.4622  0.8488  0.2071
 9766TIP3    H150713   1.328   3.571  13.420 -1.6318  0.8049  1.5833
 9766TIP3    H250714   1.306   3.421  13.417  1.4267  0.2326 -2.6336
 9767TIP3   OH250715   2.846   4.661  16.284 -0.4686 -0.1951  0.3108
 9767TIP3    H150716   2.793   4.719  16.229  0.1729 -0.5723 -0.7253
 9767TIP3    H250717   2.911   4.719  16.324 -0.0641 -0.1326 -0.4290
 9768TIP3   OH250718   3.254   5.084   5.387  0.1125 -0.0681 -0.1954
 9768TIP3    H150719   3.169   5.085   5.431 -0.3369  1.0787 -1.0278
 9768TIP3    H250720   3.313   5.127   5.449 -0.6310  2.0342 -0.8275
 9769TIP3   OH250721   4.602   3.841   1.156  0.6921  0.3839  0.5223
 9769TIP3    H150722   4.665   3.894   1.108  0.6719  2.0536  2.2620
 9769TIP3    H250723   4.653   3.801   1.227  0.3274 -0.5176  0.2990
 9770TIP3   OH250724   1.589   4.000  14.141  0.1685 -0.5663  0.1610
 9770TIP3    H150725   1.684   3.995  14.142  0.1757 -0.5478  1.2091
 9770TIP3    H250726   1.564   3.986  14.050  1.2160  0.4115 -0.2886
 9771TIP3   OH250727   6.138   2.281   5.318  0.0164  0.0433 -0.1278
 9771TIP3    H150728   6.178   2.367   5.335  0.7800 -0.3734  0.2354
 9771TIP3    H250729   6.107   2.252   5.403 -0.2641 -0.0391 -0.2562
 9772TIP3   OH250730   5.314   4.198  12.274 -0.0251 -0.4896 -0.3736
 9772TIP3    H150731   5.407   4.192  12.251 -0.4676 -1.7138 -2.1086
 9772TIP3    H250732   5.300   4.290  12.295  1.1783  0.1334 -2.0834
 9773TIP3   OH250733   1.177   0.519  13.599  0.2457 -0.5597  0.1475
 9773TIP3    H150734   1.179   0.614  13.589 -1.3145 -0.5870 -0.6501
 9773TIP3    H250735   1.158   0.505  13.692 -2.5325 -0.0112 -0.2745
 9774TIP3   OH250736   2.255   1.104  16.544 -0.0096 -0.3113 -0.3823
 9774TIP3    H150737   2.316   1.163  16.588 -0.3032 -1.5608  1.8803
 9774TIP3    H250738   2.292   1.017  16.558 -1.8391 -1.0237  0.2880
 9775TIP3   OH250739   5.375   4.361   6.864 -0.1215 -0.1710  0.0917
 9775TIP3    H150740   5.392   4.298   6.934 -0.5791  0.2949  0.6236
 9775TIP3    H250741   5.283   4.386   6.875 -0.2356 -0.1743 -0.7419
 9776TIP3   OH250742   1.875   6.243  17.077  0.2530  0.1141  1.0995
 9776TIP3    H150743   1.885   6.325  17.028 -2.3639  0.6514  1.3085
 9776TIP3    H250744   1.871   6.175  17.009  2.3781  0.0910  0.9231
 9777TIP3   OH250745   0.330   4.546  11.572 -0.6337  0.5122 -0.2815
 9777TIP3    H150746   0.312   4.587  11.657 -0.2695  0.3808 -0.1403
 9777TIP3    H250747   0.405   4.595  11.537  0.5938 -0.7895  0.4299
 9778TIP3   OH250748   2.163   4.659   0.223  0.5312 -0.4112  0.0101
 9778TIP3    H150749   2.067   4.651   0.224  0.4228  0.0741 -2.1942
 9778TIP3    H250750   2.183   4.712   0.299 -0.9104 -0.8538  0.7480
 9779TIP3   OH250751   3.926   1.961  16.277 -0.7939 -0.3753  0.3821
 9779TIP3    H150752   3.977   2.037  16.305  0.8233 -1.4856  0.6071
 9779TIP3    H250753   3.882   1.931  16.356 -3.2981  1.6144 -0.1590
 9780TIP3   OH250754   0.779   2.634  13.787 -0.0480  0.3469  0.7540
 9780TIP3    H150755   0.695   2.594  13.763  0.3989 -0.3691  0.3806
 9780TIP3    H250756   0.823   2.649  13.704  0.5655 -0.0921  0.9958
 9781TIP3   OH250757   5.819   6.067  15.036 -0.5211 -0.2615 -0.0156
 9781TIP3    H150758   5.873   6.032  15.107 -0.2739  0.1938  0.0295
 9781TIP3    H250759   5.862   6.150  15.013  0.1750 -1.0190 -1.5843
 9782TIP3   OH250760   4.024   5.521   5.001 -0.0656 -0.1682 -0.0078
 9782TIP3    H150761   3.989   5.602   5.038  0.4448  1.0228 -2.0175
 9782TIP3    H250762   3.956   5.490   4.942 -0.0297 -0.9171  0.3405
 9783TIP3   OH250763   0.787   3.152  16.422 -0.2043  0.4120 -0.6458
 9783TIP3    H150764   0.824   3.212  16.357  0.3019 -0.1131 -0.8446
 9783TIP3    H250765   0.726   3.097  16.372  0.9262 -0.6615 -0.8950
 9784TIP3   OH250766   2.956   2.092  15.682  0.1185  0.5624  0.0923
 9784TIP3    H150767   2.901   2.051  15.749 -0.0802  0.4474 -0.1395
 9784TIP3    H250768   2.895   2.117  15.613  0.5823 -1.4803 -1.1437
 9785TIP3   OH250769   4.273   2.483   4.851  0.2792  0.1995  0.3342
 9785TIP3    H150770   4.344   2.426   4.880  0.1367 -0.3426 -0.3451
 9785TIP3    H250771   4.317   2.553   4.802  0.3776  0.1065  0.2897
 9786TIP3   OH250772   0.165   2.823   2.989  0.2202  0.7938 -0.0254
 9786TIP3    H150773   0.127   2.755   3.044 -0.0437  2.7259  2.3001
 9786TIP3    H250774   0.099   2.838   2.921 -0.4491 -0.0809  0.4062
 9787TIP3   OH250775   2.283   1.207   1.226  0.6143  0.0930  0.3681
 9787TIP3    H150776   2.324   1.290   1.249  2.0133 -0.1974 -0.9162
 9787TIP3    H250777   2.322   1.183   1.142 -1.7182 -0.5663 -0.6287
 9788TIP3   OH250778   6.329   1.894   5.445  0.2568 -0.1288  0.5074
 9788TIP3    H150779   6.360   1.933   5.527 -3.9943  1.7214  1.5273
 9788TIP3    H250780   6.365   1.950   5.376  1.4029  0.1653  1.3213
 9789TIP3   OH250781   3.900   3.352   3.896 -0.1837  0.1538  0.4479
 9789TIP3    H150782   3.860   3.266   3.912  1.3363 -0.7854 -0.5096
 9789TIP3    H250783   3.922   3.385   3.983 -1.5400 -0.0249  0.8786
 9790TIP3   OH250784   4.603   5.945   1.384 -0.3935 -0.2588 -0.3843
 9790TIP3    H150785   4.579   5.957   1.476 -0.3885  1.3674 -0.5713
 9790TIP3    H250786   4.548   6.008   1.337  0.2660 -0.4273 -1.4013
 9791TIP3   OH250787   2.982   0.863  16.281 -0.4672  0.1576  0.6403
 9791TIP3    H150788   2.895   0.901  16.271 -0.4097  0.0901 -0.1620
 9791TIP3    H250789   2.997   0.815  16.200  0.1860 -0.1019  0.9084
 9792TIP3   OH250790   4.446   5.230  11.857 -0.3612  0.1514  0.2222
 9792TIP3    H150791   4.403   5.147  11.878  0.9334 -0.1572  1.8741
 9792TIP3    H250792   4.455   5.229  11.762 -3.6336  0.1060 -0.2121
 9793TIP3   OH250793   6.474   3.543   3.906 -0.2468 -0.1059  0.9330
 9793TIP3    H150794   6.434   3.560   3.821  1.7836 -0.4422 -0.1576
 9793TIP3    H250795   6.434   3.461   3.935 -2.2942  0.9225  1.2349
 9794TIP3   OH250796   4.268   5.539   3.688 -0.6306  0.0941 -0.0583
 9794TIP3    H150797   4.264   5.445   3.676 -1.0522 -0.0662  1.2287
 9794TIP3    H250798   4.337   5.552   3.753 -0.5400  0.6814 -0.2632
 9795TIP3   OH250799   5.309   2.741   4.745 -0.4013 -0.1838  0.3810
 9795TIP3    H150800   5.304   2.744   4.649  0.5548 -1.8217  0.2398
 9795TIP3    H250801   5.251   2.668   4.769 -0.6512  0.2319  1.0499
 9796TIP3   OH250802   3.303   4.057   4.887 -0.4236  0.1337  0.4757
 9796TIP3    H150803   3.270   4.105   4.811 -2.6042  0.4065  1.5201
 9796TIP3    H250804   3.316   4.124   4.954  0.9129 -0.1812  0.5673
 9797TIP3   OH250805   6.444   4.416   4.346 -0.3941  0.2284  0.0904
 9797TIP3    H150806   6.524   4.416   4.399 -1.5122 -2.2832  1.9273
 9797TIP3    H250807   6.467   4.470   4.270  3.0356 -0.3549  0.5321
 9798TIP3   OH250808   0.163   4.699  14.717 -0.9478 -0.5646 -0.2290
 9798TIP3    H150809   0.235   4.638  14.735 -0.6272 -0.0001  0.4730
 9798TIP3    H250810   0.166   4.761  14.790 -0.4966  1.0229 -1.5483
 9799TIP3   OH250811   3.574   6.311  17.435  0.0583 -0.5607  0.6110
 9799TIP3    H150812   3.518   6.364  17.492  0.4251 -0.2565  0.6904
 9799TIP3    H250813   3.662   6.326  17.467  0.1044 -1.8650  1.1717
 9800TIP3   OH250814   1.434   1.767   2.619  0.3382  0.4866 -0.1931
 9800TIP3    H150815   1.349   1.788   2.580  0.9697 -0.8396 -2.4867
 9800TIP3    H250816   1.415   1.752   2.711 -1.6893  1.4401 -0.4015
 9801TIP3   OH250817   5.853   0.222  16.752  0.1638  0.3502  0.6719
 9801TIP3    H150818   5.884   0.303  16.792  0.3629  0.7179 -0.1840
 9801TIP3    H250819   5.778   0.195  16.805  0.6161  0.6358  1.4702
 9802TIP3   OH250820   1.320   1.605   4.808 -0.1656  0.2500 -0.4657
 9802TIP3    H150821   1.366   1.577   4.887 -2.7521 -0.0167  1.0389
 9802TIP3    H250822   1.296   1.696   4.826  0.5954  0.7111 -1.6595
 9803TIP3   OH250823   1.276   1.089  14.440  0.0686  0.5250 -0.8590
 9803TIP3    H150824   1.319   1.015  14.397  1.6803  0.8960  0.0161
 9803TIP3    H250825   1.214   1.048  14.501 -0.0719 -0.0636 -1.3881
 9804TIP3   OH250826   2.025   2.954  17.414  0.1160 -0.7496 -0.4323
 9804TIP3    H150827   2.104   2.901  17.426  0.5071  0.0856  0.8982
 9804TIP3    H250828   1.953   2.896  17.440  0.3657 -1.2209 -0.7746
 9805TIP3   OH250829   1.701   0.857   4.634 -0.2727 -0.5396  0.0297
 9805TIP3    H150830   1.746   0.781   4.597  0.6255 -0.4511  0.9034
 9805TIP3    H250831   1.665   0.904   4.558  1.7612 -0.1985 -0.7730
 9806TIP3   OH250832   5.510   6.120  12.935 -0.7534  0.1047 -0.1036
 9806TIP3    H150833   5.465   6.093  12.855 -0.4652  0.4293 -0.3812
 9806TIP3    H250834   5.576   6.053  12.949 -1.0707 -0.1694  0.0914
 9807TIP3   OH250835   3.714   4.396   5.054  0.0059 -0.2488  0.3326
 9807TIP3    H150836   3.678   4.451   4.984 -0.8845 -1.2588 -0.0368
 9807TIP3    H250837   3.804   4.379   5.028 -0.5128 -1.1838 -0.9525
 9808TIP3   OH250838   4.728   6.013  16.769  0.3240 -0.2105 -0.1676
 9808TIP3    H150839   4.811   6.059  16.755 -0.0418  0.2231 -0.9930
 9808TIP3    H250840   4.694   6.050  16.850  0.3187  0.5716 -0.5121
 9809TIP3   OH250841   2.306   4.385  11.389 -0.0773 -0.2572 -0.1655
 9809TIP3    H150842   2.260   4.446  11.331  0.2089 -0.1384 -0.2686
 9809TIP3    H250843   2.238   4.325  11.420 -0.8711  1.5588  1.8853
 9810TIP3   OH250844   5.310   1.112   2.982 -0.5291 -0.0559 -0.3916
 9810TIP3    H150845   5.265   1.090   2.901  1.8886 -2.2810 -1.2630
 9810TIP3    H250846   5.289   1.041   3.042 -0.8575  0.6543  0.3668
 9811TIP3   OH250847   6.364   4.844  16.296  0.4968 -0.7174 -0.5308
 9811TIP3    H150848   6.428   4.892  16.348  0.9749 -1.0585 -0.7876
 9811TIP3    H250849   6.280   4.859  16.339  0.9415 -1.3572  0.5923
 9812TIP3   OH250850   2.347   4.805  15.133 -0.2792  0.1932 -0.0308
 9812TIP3    H150851   2.437   4.775  15.117 -0.5239 -2.0489  2.0935
 9812TIP3    H250852   2.307   4.733  15.181 -2.4445  2.1839  1.3396
 9813TIP3   OH250853   4.312   2.061  15.440 -0.2355 -0.7079 -0.1435
 9813TIP3    H150854   4.376   2.019  15.498  1.3327  1.7328  0.0114
 9813TIP3    H250855   4.310   2.005  15.362  1.7101 -1.1457  0.0689
 9814TIP3   OH250856   3.196   5.259  12.749  0.3511  0.0296 -0.0458
 9814TIP3    H150857   3.184   5.350  12.721  0.1559  0.7678  2.2459
 9814TIP3    H250858   3.115   5.215  12.723  1.1050  0.0159 -2.6841
 9815TIP3   OH250859   3.792   1.170   0.769  0.5625 -0.0895  0.6670
 9815TIP3    H150860   3.847   1.093   0.758  0.4602 -0.0293 -0.3407
 9815TIP3    H250861   3.744   1.178   0.686  1.7675  1.9904  0.0978
 9816TIP3   OH250862   5.344   4.848  12.805  0.3096 -0.2703  0.5077
 9816TIP3    H150863   5.299   4.893  12.877 -1.9329 -0.8509 -0.4422
 9816TIP3    H250864   5.309   4.888  12.726  0.9045 -1.3088 -0.3023
 9817TIP3   OH250865   0.394   5.166   0.888 -0.5770  0.7453 -0.4219
 9817TIP3    H150866   0.397   5.079   0.928  0.3429  0.4304 -1.1250
 9817TIP3    H250867   0.458   5.161   0.817 -0.8121  1.8753 -0.7264
 9818TIP3   OH250868   5.008   0.003  16.761  0.6589 -0.1126 -0.4202
 9818TIP3    H150869   5.024  -0.032  16.674  0.3802 -2.9049  0.5393
 9818TIP3    H250870   4.969  -0.070  16.810 -1.1428  1.9439  1.4855
 9819TIP3   OH250871   3.156   4.793  17.203 -0.7989 -0.2800  0.1955
 9819TIP3    H150872   3.230   4.816  17.147 -1.6544  1.0306 -0.4633
 9819TIP3    H250873   3.123   4.711  17.168  0.9028 -1.4108  1.1056
 9820TIP3   OH250874   5.618   4.380   1.912 -0.3337 -0.4731 -0.6530
 9820TIP3    H150875   5.622   4.309   1.975  0.1297 -0.8655 -1.1115
 9820TIP3    H250876   5.646   4.340   1.829 -2.1716 -0.2906 -1.4041
 9821TIP3   OH250877   1.899   3.436  16.495  0.1875 -0.7473  0.5962
 9821TIP3    H150878   1.929   3.498  16.561 -0.5119 -0.6441  0.8296
 9821TIP3    H250879   1.846   3.489  16.435  1.9147 -0.5570 -0.8577
 9822TIP3   OH250880   4.259   0.165  16.558 -0.0995 -0.6847  0.0581
 9822TIP3    H150881   4.313   0.168  16.479 -0.1628  0.2302  0.0394
 9822TIP3    H250882   4.296   0.092  16.609  2.5305  1.1146  0.9789
 9823TIP3   OH250883   0.995   1.247  15.437 -0.9556 -0.0663 -0.3434
 9823TIP3    H150884   0.922   1.250  15.499 -2.2766 -0.2671 -1.8450
 9823TIP3    H250885   1.007   1.153  15.420  0.3385 -0.1104  0.6269
 9824TIP3   OH250886   2.271   1.499   1.326  0.0746 -0.2052  0.8271
 9824TIP3    H150887   2.303   1.533   1.410  1.6897  3.0443 -0.9193
 9824TIP3    H250888   2.244   1.577   1.277 -1.1181 -1.9968 -1.5789
 9825TIP3   OH250889   4.119   0.340  17.019  0.0374  0.4456 -0.0303
 9825TIP3    H150890   4.161   0.387  16.948 -1.3100  2.2744  0.3234
 9825TIP3    H250891   4.097   0.254  16.982  0.4001  0.9468 -1.4426
 9826TIP3   OH250892   0.171   5.927   5.253 -0.0031 -0.2967  0.4112
 9826TIP3    H150893   0.217   5.989   5.310  1.2430 -2.0041  1.3505
 9826TIP3    H250894   0.198   5.950   5.165  1.0716  0.0074  0.8030
 9827TIP3   OH250895   2.299   4.705   3.498 -0.1770  0.6225 -0.4507
 9827TIP3    H150896   2.259   4.768   3.438 -1.3157  1.0738  0.7370
 9827TIP3    H250897   2.267   4.620   3.468 -0.1089  0.7637 -0.9407
 9828TIP3   OH250898   2.894   0.287   4.450 -0.2818 -0.2283  0.6253
 9828TIP3    H150899   2.814   0.318   4.492 -0.0871  0.0588  0.7888
 9828TIP3    H250900   2.921   0.211   4.502 -0.4023 -0.2783  0.6161
 9829TIP3   OH250901   1.741   3.531  12.027  0.6266 -0.6010  0.6701
 9829TIP3    H150902   1.675   3.528  11.959  1.4474 -1.0190 -0.1265
 9829TIP3    H250903   1.691   3.536  12.109 -0.3708 -0.4955  0.0703
 9830TIP3   OH250904   0.535   1.871   4.793 -0.0524 -0.2236  0.4397
 9830TIP3    H150905   0.461   1.821   4.828  0.4209 -1.5047 -0.3351
 9830TIP3    H250906   0.608   1.850   4.851 -0.3220  1.2673  1.3775
 9831TIP3   OH250907   1.492   0.172  16.333  0.3438  0.2657 -0.3397
 9831TIP3    H150908   1.564   0.133  16.382 -1.9280 -1.1937  2.1688
 9831TIP3    H250909   1.475   0.111  16.262 -1.1916 -1.9614  1.7481
 9832TIP3   OH250910   1.587   3.542   0.722 -0.6505  0.2255  0.5050
 9832TIP3    H150911   1.662   3.506   0.675 -1.3082  0.6061 -0.8835
 9832TIP3    H250912   1.540   3.465   0.755  0.4665 -0.0103  1.6248
 9833TIP3   OH250913   5.252   6.319   5.705  0.3756  0.4842  0.5577
 9833TIP3    H150914   5.217   6.230   5.715 -0.8118  0.8689  0.0050
 9833TIP3    H250915   5.338   6.306   5.664 -0.4764 -0.3549 -1.0641
 9834TIP3   OH250916   2.346   4.051   2.964  0.1832 -0.1774  0.3950
 9834TIP3    H150917   2.388   4.077   3.046  0.7714 -0.1844  0.1071
 9834TIP3    H250918   2.273   4.112   2.953 -0.0591 -0.3473  1.0520
 9835TIP3   OH250919   3.608   3.812  15.396 -0.1482 -0.3996  0.0721
 9835TIP3    H150920   3.676   3.873  15.424  1.1913 -1.4034 -0.8529
 9835TIP3    H250921   3.656   3.734  15.369 -1.5722 -0.7157 -1.7543
 9836TIP3   OH250922   3.262   0.030   3.793  0.3438 -0.1543  0.0670
 9836TIP3    H150923   3.235   0.104   3.740 -0.4518 -0.0833  0.5602
 9836TIP3    H250924   3.184   0.006   3.843  0.3862 -1.7394 -0.5576
 9837TIP3   OH250925   2.819   0.308   5.378  0.0338  0.0029 -0.2331
 9837TIP3    H150926   2.908   0.293   5.346  0.0166 -1.2903  0.2911
 9837TIP3    H250927   2.828   0.316   5.473 -0.2372  1.3292 -0.3028
 9838TIP3   OH250928   0.196   3.662   0.491  0.0643  0.0923 -0.5487
 9838TIP3    H150929   0.121   3.648   0.549 -0.2577 -0.1030 -1.0101
 9838TIP3    H250930   0.271   3.632   0.543 -0.0658  1.0816  0.2366
 9839TIP3   OH250931   5.916   1.640   5.524 -0.1138  0.0685  0.3955
 9839TIP3    H150932   5.947   1.687   5.446  1.8669 -3.1425 -0.9766
 9839TIP3    H250933   5.980   1.661   5.592 -0.5876  1.1393  0.5269
 9840TIP3   OH250934   5.597   1.547  15.436 -0.1473 -0.2672 -0.1292
 9840TIP3    H150935   5.525   1.576  15.492 -0.9602 -1.6390 -0.3931
 9840TIP3    H250936   5.555   1.485  15.375  1.0926 -0.3761 -0.9046
 9841TIP3   OH250937   5.869   1.388   2.525  0.0350  0.2791  0.6898
 9841TIP3    H150938   5.908   1.300   2.524  0.3981  0.4295  1.2229
 9841TIP3    H250939   5.910   1.431   2.600 -0.5743  0.7068  0.7828
 9842TIP3   OH250940   1.057   6.317   0.667 -0.4713  0.5298 -0.2488
 9842TIP3    H150941   1.001   6.394   0.652  0.4346  0.9474 -1.6850
 9842TIP3    H250942   1.145   6.354   0.675 -0.0813 -0.3316 -0.5396
 9843TIP3   OH250943   4.408   3.896  16.816 -0.1024  0.1188  0.1434
 9843TIP3    H150944   4.393   3.906  16.722  0.8768  1.3946  0.0957
 9843TIP3    H250945   4.489   3.944  16.833 -1.2029  1.5071  1.9277
 9844TIP3   OH250946   3.848   5.565  14.588  0.2733 -0.1591 -0.0089
 9844TIP3    H150947   3.896   5.485  14.611  0.8579  0.1242 -0.2143
 9844TIP3    H250948   3.897   5.601  14.514  0.0942  0.4570  0.1658
 9845TIP3   OH250949   2.542   3.121  14.606  0.4448  1.1937  0.2306
 9845TIP3    H150950   2.592   3.100  14.685 -1.6781 -0.2534  1.2975
 9845TIP3    H250951   2.487   3.195  14.632 -1.6437 -0.4655  0.8385
 9846TIP3   OH250952   1.086   4.311  12.731  0.7303 -0.1114 -0.4669
 9846TIP3    H150953   1.058   4.382  12.788  0.3396  0.6245 -1.5417
 9846TIP3    H250954   1.009   4.293  12.675  1.3649 -0.2311 -1.3280
 9847TIP3   OH250955   2.318   2.108   2.276 -0.5354 -0.5086 -0.5597
 9847TIP3    H150956   2.413   2.101   2.283 -0.4252  1.7136  0.8364
 9847TIP3    H250957   2.286   2.104   2.366 -1.7635 -0.9190 -0.9877
 9848TIP3   OH250958   4.539   5.313   4.123  0.5683 -0.3788 -0.2716
 9848TIP3    H150959   4.508   5.255   4.193 -0.9976 -1.9455 -2.1358
 9848TIP3    H250960   4.588   5.256   4.064  1.9056  0.9118 -0.4457
 9849TIP3   OH250961   1.212   4.008   4.775  0.3440 -0.1113  0.0066
 9849TIP3    H150962   1.144   4.059   4.818  1.4972  1.8180 -0.3335
 9849TIP3    H250963   1.231   4.056   4.695  1.5281 -1.0412 -0.3002
 9850TIP3   OH250964   2.213   4.594   4.120 -0.2309 -0.1891 -0.5087
 9850TIP3    H150965   2.277   4.524   4.113  1.5013  1.2052  0.4537
 9850TIP3    H250966   2.243   4.661   4.058 -1.2586  0.1529 -0.6690
 9851TIP3   OH250967   5.164   0.818  16.422 -0.2196 -0.0873 -0.4864
 9851TIP3    H150968   5.191   0.831  16.331  0.2218 -0.4164 -0.4037
 9851TIP3    H250969   5.159   0.723  16.432 -0.2808 -0.0517 -0.1685
 9852TIP3   OH250970   5.867   3.984  13.998  0.3184 -0.0536  0.0988
 9852TIP3    H150971   5.954   4.022  13.985  0.0125  0.6638  0.0913
 9852TIP3    H250972   5.855   3.926  13.923  1.6788 -1.9098  1.2442
 9853TIP3   OH250973   4.174   1.715   0.065  0.2768 -0.0715 -0.1914
 9853TIP3    H150974   4.091   1.683   0.028  0.7285 -1.5901  0.0843
 9853TIP3    H250975   4.190   1.659   0.140  2.3865 -0.8719 -1.1816
 9854TIP3   OH250976   1.577   2.067   5.024 -0.7911  0.6729  0.5234
 9854TIP3    H150977   1.547   2.060   5.114  0.5159 -3.3358  0.8658
 9854TIP3    H250978   1.561   1.980   4.987  2.2508  0.9449 -1.8558
 9855TIP3   OH250979   0.446   3.656  16.638 -0.0889  0.0987 -0.4531
 9855TIP3    H150980   0.510   3.721  16.610  0.7234 -0.2252  0.5523
 9855TIP3    H250981   0.466   3.578  16.587  1.3032 -0.4529  0.8523
 9856TIP3   OH250982   3.475   1.253   0.069  0.4397  0.6270  0.1700
 9856TIP3    H150983   3.425   1.256  -0.012 -0.0501 -0.0624  0.4323
 9856TIP3    H250984   3.436   1.181   0.118  1.0925  0.6771  0.7796
 9857TIP3   OH250985   2.998   4.866   5.005  0.3967  0.7044 -0.0158
 9857TIP3    H150986   3.045   4.837   4.927 -0.1316  2.3010 -0.9802
 9857TIP3    H250987   3.067   4.887   5.068  0.8187 -1.0746  0.1700
 9858TIP3   OH250988   4.398   1.101   6.023  0.3126  0.2686 -0.3759
 9858TIP3    H150989   4.429   1.017   5.991 -0.1947  0.2914 -0.9442
 9858TIP3    H250990   4.455   1.121   6.097 -0.5041 -1.2864  0.7305
 9859TIP3   OH250991   5.556   1.301   2.178  0.4561  0.1770 -0.1790
 9859TIP3    H150992   5.600   1.261   2.253 -0.7993  0.5952  0.8197
 9859TIP3    H250993   5.502   1.371   2.217 -1.1227 -0.3642 -1.3265
 9860TIP3   OH250994   4.907   5.095   0.769 -0.1948 -0.6299 -0.1022
 9860TIP3    H150995   4.993   5.137   0.775 -0.4193 -0.4277  3.8445
 9860TIP3    H250996   4.845   5.168   0.776 -0.5826 -1.1285  2.5977
 9861TIP3   OH250997   6.103   6.516   4.791 -0.6772 -0.1240  0.3420
 9861TIP3    H150998   6.149   6.445   4.748 -1.0224 -0.5289  0.6350
 9861TIP3    H250999   6.053   6.558   4.721 -0.6262 -0.2904  0.2066
 9862TIP3   OH251000   0.332   1.777   4.592 -0.2117  0.1841  0.0507
 9862TIP3    H151001   0.377   1.825   4.662  0.3516 -0.2708  0.0136
 9862TIP3    H251002   0.289   1.704   4.637  0.5472 -0.3855 -0.1175
 9863TIP3   OH251003   6.393   2.167   5.328  0.6948  0.1866 -0.0050
 9863TIP3    H151004   6.303   2.182   5.302  0.7986 -0.7886 -0.9738
 9863TIP3    H251005   6.438   2.142   5.247  1.8500  0.7157  0.4442
 9864TIP3   OH251006   2.176   4.182  14.994 -0.7056 -0.4526 -0.6480
 9864TIP3    H151007   2.243   4.162  15.058  0.8068  1.0659 -1.6685
 9864TIP3    H251008   2.126   4.101  14.985  0.4751 -1.3753  0.7256
 9865TIP3   OH251009   3.364   1.140   1.138 -0.2674  0.0914 -0.6648
 9865TIP3    H151010   3.272   1.143   1.164 -0.1798  0.4398 -0.3797
 9865TIP3    H251011   3.363   1.112   1.047 -0.5825 -1.2407 -0.2682
 9866TIP3   OH251012   6.320   2.869   2.465  0.2710 -0.2647  0.0206
 9866TIP3    H151013   6.331   2.813   2.389 -0.3000  0.0602 -0.3062
 9866TIP3    H251014   6.400   2.856   2.516  0.3672 -0.9865 -0.2988
 9867TIP3   OH251015   2.965   3.165  15.041  0.1385 -0.6026  0.1624
 9867TIP3    H151016   2.965   3.124  15.128 -0.3467 -0.9717 -0.0078
 9867TIP3    H251017   2.923   3.101  14.984 -0.1397 -0.0975 -0.2114
 9868TIP3   OH251018   4.827   1.728  12.980 -0.0283 -0.1885 -0.4781
 9868TIP3    H151019   4.870   1.712  12.896 -0.4088 -0.2272 -0.6652
 9868TIP3    H251020   4.899   1.729  13.044  0.1980 -0.7347 -0.7222
 9869TIP3   OH251021   6.562   4.931   1.798  0.3702 -0.3506  0.4923
 9869TIP3    H151022   6.531   4.842   1.814 -1.6886  0.5776  2.1915
 9869TIP3    H251023   6.529   4.982   1.873 -2.0019  2.5765 -2.2259
 9870TIP3   OH251024   5.125   0.444   4.112  0.3205  0.0102 -0.1810
 9870TIP3    H151025   5.144   0.431   4.205 -1.6134  0.9576  0.4070
 9870TIP3    H251026   5.156   0.533   4.094 -0.4528  0.3157 -0.0688
 9871TIP3   OH251027   5.850   4.246   0.016  0.1439 -0.1519 -0.7606
 9871TIP3    H151028   5.919   4.219   0.076  0.2744 -1.7795 -1.6087
 9871TIP3    H251029   5.838   4.172  -0.043 -0.9970  0.8419 -1.8411
 9872TIP3   OH251030   5.548   4.698  13.164 -0.1340  0.0720  0.1109
 9872TIP3    H151031   5.563   4.605  13.174 -1.8668 -0.0851  1.9426
 9872TIP3    H251032   5.589   4.738  13.241  0.6882  0.8498 -0.7093
 9873TIP3   OH251033   3.943   3.495  12.962 -0.8532  0.9626 -0.5097
 9873TIP3    H151034   3.949   3.591  12.967  0.2966  0.9001 -0.5174
 9873TIP3    H251035   4.015   3.469  12.906  0.3163 -0.0739  1.3665
 9874TIP3   OH251036   2.506   0.768  12.865  0.6290 -0.2372  0.3128
 9874TIP3    H151037   2.527   0.854  12.900  1.9211 -0.6002  0.4876
 9874TIP3    H251038   2.481   0.784  12.774  2.9976  0.1466 -0.3428
 9875TIP3   OH251039   3.135   1.073  12.471 -0.4467  0.3915 -0.4079
 9875TIP3    H151040   3.054   1.037  12.509 -0.0934  0.8248  0.8093
 9875TIP3    H251041   3.125   1.059  12.377 -0.0759 -3.4148 -0.0340
 9876TIP3   OH251042   6.427   5.741   3.400  0.6344 -0.1687  0.2584
 9876TIP3    H151043   6.358   5.677   3.419 -2.6941  2.7119 -0.9600
 9876TIP3    H251044   6.432   5.743   3.304  1.0020  1.0670  0.2907
 9877TIP3   OH251045   6.245   3.986  14.818  0.5556 -0.5042 -0.8449
 9877TIP3    H151046   6.332   4.024  14.833 -0.1075  0.5158  0.6033
 9877TIP3    H251047   6.255   3.935  14.737  2.0863  0.8938 -1.6014
 9878TIP3   OH251048   0.746   2.131  13.618 -0.6649  0.1189 -1.7568
 9878TIP3    H151049   0.701   2.167  13.694  0.0077 -0.3730 -1.1108
 9878TIP3    H251050   0.676   2.091  13.565 -0.8130 -2.7680  0.3970
 9879TIP3   OH251051   2.706   2.062   0.714 -0.0291  0.2973 -0.4026
 9879TIP3    H151052   2.713   2.139   0.658 -0.5160 -0.0041 -0.8920
 9879TIP3    H251053   2.696   1.989   0.653 -0.0647 -0.0908  0.0654
 9880TIP3   OH251054   6.694   1.461  15.586  0.4315 -0.7685  0.0924
 9880TIP3    H151055   6.765   1.457  15.649 -0.8125 -0.6804  1.5610
 9880TIP3    H251056   6.653   1.374  15.589  1.3397 -1.3109 -1.8366
 9881TIP3   OH251057   4.413   4.300   2.836 -0.0734 -0.6825  0.6219
 9881TIP3    H151058   4.429   4.273   2.926  0.6867 -0.2176  0.6413
 9881TIP3    H251059   4.420   4.396   2.839  0.2818 -0.6848  0.0144
 9882TIP3   OH251060   1.536   3.341   1.162 -0.1352 -0.0723  0.4432
 9882TIP3    H151061   1.557   3.433   1.180 -0.9045 -0.1336  1.7673
 9882TIP3    H251062   1.575   3.293   1.235 -0.5311 -0.7098  0.2405
 9883TIP3   OH251063   3.628   2.164  13.345  0.2267  0.5291 -0.5708
 9883TIP3    H151064   3.708   2.116  13.323 -0.4713 -1.1962  0.4213
 9883TIP3    H251065   3.643   2.194  13.435 -0.8720 -1.4042  0.3376
 9884TIP3   OH251066   1.516   0.023   5.426 -0.6867  0.7426  0.3752
 9884TIP3    H151067   1.474   0.024   5.340 -0.8096  1.7561  0.4371
 9884TIP3    H251068   1.523   0.115   5.451 -1.9429  0.4381  2.0607
 9885TIP3   OH251069   2.384   0.728  12.220  0.3872  0.2228  0.1452
 9885TIP3    H151070   2.441   0.663  12.178  0.7265  0.1377  0.7277
 9885TIP3    H251071   2.342   0.679  12.291 -1.9136 -0.2596 -1.4398
 9886TIP3   OH251072   6.352   6.044  15.589 -0.0289 -0.6443 -0.5069
 9886TIP3    H151073   6.379   6.044  15.681 -0.8397 -0.5550 -0.2579
 9886TIP3    H251074   6.312   6.130  15.576 -2.0073 -1.4809 -0.2876
 9887TIP3   OH251075   0.553   5.493  14.988 -0.4112 -0.0701  0.8736
 9887TIP3    H151076   0.489   5.564  14.993  0.3358  0.5681  1.7452
 9887TIP3    H251077   0.619   5.515  15.054  0.8689 -0.5421 -0.1994
 9888TIP3   OH251078   5.697   0.163   1.265  0.0010  0.9533  0.3461
 9888TIP3    H151079   5.766   0.097   1.270  1.4343  2.3927  0.4923
 9888TIP3    H251080   5.744   0.245   1.248 -1.8140  1.7513 -1.2460
 9889TIP3   OH251081   4.354   2.863  13.352  0.1105  0.6036 -0.2573
 9889TIP3    H151082   4.333   2.956  13.359  0.1012  0.8322 -2.6113
 9889TIP3    H251083   4.411   2.856  13.275  0.8961 -1.2338  0.4176
 9890TIP3   OH251084   3.879   3.165   2.537 -0.2455 -0.1150  0.2858
 9890TIP3    H151085   3.865   3.172   2.631 -3.8622  1.6309 -0.2054
 9890TIP3    H251086   3.938   3.237   2.516 -0.2326  0.1254  1.1025
 9891TIP3   OH251087   1.725   2.290   4.956 -0.1883 -0.2269  0.5047
 9891TIP3    H151088   1.798   2.234   4.928  1.5060  1.0328  2.1444
 9891TIP3    H251089   1.667   2.230   5.003 -0.1458 -1.2322 -0.6902
 9892TIP3   OH251090   0.509   1.617   5.799 -0.0726  0.1236 -0.2883
 9892TIP3    H151091   0.512   1.526   5.771 -1.7632  0.3468 -1.3009
 9892TIP3    H251092   0.530   1.667   5.720  0.4726  0.6372  0.1730
 9893TIP3   OH251093   1.005   0.659  16.178  0.1747  0.0040 -0.4452
 9893TIP3    H151094   1.084   0.652  16.125  2.3933  2.4336  2.2568
 9893TIP3    H251095   1.020   0.601  16.252 -1.1960 -0.4470 -0.4787
 9894TIP3   OH251096   3.782   0.041   3.416  0.0013 -0.2877 -0.1627
 9894TIP3    H151097   3.705  -0.002   3.453  1.8766 -0.6754  3.7867
 9894TIP3    H251098   3.823  -0.025   3.361 -1.0357 -0.9986 -0.1076
 9895TIP3   OH251099   3.565   6.224  14.058 -0.0112 -0.0538  0.7266
 9895TIP3    H151100   3.510   6.161  14.104 -0.7254 -0.9927 -1.2801
 9895TIP3    H251101   3.558   6.199  13.966  2.3616  0.9210  0.2066
 9896TIP3   OH251102   5.601   0.297   2.460 -0.0612 -0.4240 -0.8644
 9896TIP3    H151103   5.509   0.271   2.455 -0.5207  1.2077 -1.7748
 9896TIP3    H251104   5.625   0.285   2.552 -1.2985 -0.4985 -0.5401
 9897TIP3   OH251105   6.373   1.369   0.939 -0.2943 -0.4788 -0.0925
 9897TIP3    H151106   6.313   1.388   0.867 -3.4819  1.0122  2.6837
 9897TIP3    H251107   6.324   1.308   0.995  3.2912 -4.2042 -0.5424
 9898TIP3   OH251108   6.180   6.550  11.622 -0.3885 -0.4189 -0.4442
 9898TIP3    H151109   6.210   6.460  11.609 -0.7133 -0.4645 -0.9180
 9898TIP3    H251110   6.226   6.580  11.700  0.8914 -0.4930 -1.1417
 9899TIP3   OH251111   5.709   0.952  12.962  0.6358  0.4177 -0.1199
 9899TIP3    H151112   5.751   0.904  12.890  0.1203  0.0070 -0.1496
 9899TIP3    H251113   5.781   0.971  13.023  0.6912 -1.3696  0.4360
 9900TIP3   OH251114   4.929   2.559  14.105 -0.2628  0.4023  0.7128
 9900TIP3    H151115   4.845   2.556  14.150 -0.7429 -1.1397 -0.2404
 9900TIP3    H251116   4.956   2.651  14.112 -3.2216  1.5495 -1.1542
 9901TIP3   OH251117   1.321   4.556   2.512 -0.5485 -0.4618  1.5472
 9901TIP3    H151118   1.229   4.554   2.539 -0.9925 -1.6739  0.1129
 9901TIP3    H251119   1.333   4.474   2.463  0.6893  0.6751 -0.1650
 9902TIP3   OH251120   1.381   3.029  14.667 -0.0314  0.3247 -0.2281
 9902TIP3    H151121   1.369   3.051  14.574 -0.4405  0.6105 -0.1090
 9902TIP3    H251122   1.475   3.012  14.675  0.5103  2.9494 -0.1356
 9903TIP3   OH251123   1.764   3.615  15.681  0.0688 -0.8752  0.2397
 9903TIP3    H151124   1.839   3.591  15.627 -0.4295 -1.5633 -0.1586
 9903TIP3    H251125   1.689   3.570  15.641 -1.0772  1.8475 -0.9809
 9904TIP3   OH251126   3.519   1.669  15.905 -0.1685 -0.0157  0.0408
 9904TIP3    H151127   3.604   1.629  15.923 -0.3996 -0.8703 -0.6933
 9904TIP3    H251128   3.463   1.641  15.978  0.2872  0.9275  0.7671
 9905TIP3   OH251129   3.314   3.128  14.647  0.2736 -0.1715 -0.3469
 9905TIP3    H151130   3.236   3.171  14.685  1.4882  1.5183  0.3738
 9905TIP3    H251131   3.291   3.116  14.555 -1.7660 -2.0051  0.3171
 9906TIP3   OH251132   6.060   3.558  16.566  0.0908 -0.0253  0.1681
 9906TIP3    H151133   5.996   3.520  16.506 -0.5165  0.2140  0.6500
 9906TIP3    H251134   6.033   3.528  16.652  0.1188  0.7717  0.4651
 9907TIP3   OH251135   0.140   3.018   1.019 -0.4084  0.3010  0.0845
 9907TIP3    H151136   0.131   3.111   1.038 -1.4108  0.2421 -0.0633
 9907TIP3    H251137   0.105   2.974   1.097 -0.0812  0.0508  0.0902
 9908TIP3   OH251138   3.312   0.501   4.238 -0.0457 -0.4950  0.2676
 9908TIP3    H151139   3.286   0.408   4.239  0.1674 -0.5580  1.2540
 9908TIP3    H251140   3.254   0.542   4.302  0.2689 -0.0701  0.2829
 9909TIP3   OH251141   3.867   6.216   4.483  0.5409  0.2944  0.2672
 9909TIP3    H151142   3.805   6.145   4.501  0.8204 -0.4817 -1.5636
 9909TIP3    H251143   3.859   6.231   4.389  1.3362  1.9129  0.4376
 9910TIP3   OH251144   6.708   3.259   1.500 -0.0136 -0.3076 -0.4880
 9910TIP3    H151145   6.633   3.270   1.559  1.0752  1.0151  0.7260
 9910TIP3    H251146   6.780   3.302   1.545  1.1302 -0.1919 -2.3252
 9911TIP3   OH251147   4.211   1.092  17.092  0.1031 -0.6946  0.1093
 9911TIP3    H151148   4.207   1.080  16.997  0.1869  2.4627 -0.3983
 9911TIP3    H251149   4.288   1.147  17.106 -0.3429 -0.4772  1.9560
 9912TIP3   OH251150   0.579   1.626   3.046  0.2113 -0.0361 -0.0348
 9912TIP3    H151151   0.589   1.721   3.040 -0.6901  0.0377 -0.4175
 9912TIP3    H251152   0.668   1.593   3.033  0.3206  0.6926 -1.3371
 9913TIP3   OH251153   4.367   5.710   1.126 -0.2112 -0.0791 -0.2001
 9913TIP3    H151154   4.279   5.747   1.115 -0.4201 -0.1915  0.9127
 9913TIP3    H251155   4.426   5.781   1.103 -0.5511 -0.4815 -2.5298
 9914TIP3   OH251156   0.332   4.891  16.502  0.4060  0.2456 -0.2179
 9914TIP3    H151157   0.387   4.937  16.565 -0.9809  2.8082 -0.7294
 9914TIP3    H251158   0.378   4.901  16.419  0.4902  0.0098 -0.2008
 9915TIP3   OH251159   1.891   2.396  14.203 -0.1124  0.2057  0.2499
 9915TIP3    H151160   1.823   2.346  14.157  0.1155 -0.8164  0.9890
 9915TIP3    H251161   1.973   2.366  14.165  0.0722 -0.5689  1.2168
 9916TIP3   OH251162   4.440   3.220   2.221  0.0217 -0.3525 -0.4819
 9916TIP3    H151163   4.442   3.262   2.135  1.4649  0.6769  0.0244
 9916TIP3    H251164   4.461   3.289   2.283  0.2030 -1.3291  0.5869
 9917TIP3   OH251165   0.729   4.077  15.410 -0.1727  0.0739  0.6595
 9917TIP3    H151166   0.657   4.077  15.473 -0.6454  1.0133  0.1373
 9917TIP3    H251167   0.686   4.078  15.325  0.4642  0.0527  0.3368
 9918TIP3   OH251168   1.607   6.404  14.975  0.2707  0.1550 -0.5501
 9918TIP3    H151169   1.537   6.468  14.984 -0.8427 -1.0636 -0.2029
 9918TIP3    H251170   1.640   6.392  15.065  0.6890  0.4604 -0.6598
 9919TIP3   OH251171   2.885   0.651  17.187 -0.5856 -0.1707  0.1610
 9919TIP3    H151172   2.978   0.649  17.166 -0.8249 -1.2038 -0.9304
 9919TIP3    H251173   2.876   0.599  17.267 -0.1502  0.5092  0.6579
 9920TIP3   OH251174   4.705   0.540  16.585 -0.6781  0.2695  0.0500
 9920TIP3    H151175   4.644   0.469  16.565 -0.2290 -0.6981  1.8453
 9920TIP3    H251176   4.649   0.614  16.608 -1.1558  0.3015 -1.1655
 9921TIP3   OH251177   5.661   5.961  14.681 -0.4538 -0.4933 -0.4640
 9921TIP3    H151178   5.723   6.021  14.639 -0.5657 -0.8381 -1.1313
 9921TIP3    H251179   5.716   5.889  14.713 -0.4917 -0.7223 -0.9150
 9922TIP3   OH251180   4.551   1.313   5.579  0.3167 -0.5528  0.3443
 9922TIP3    H151181   4.534   1.396   5.624 -0.1290 -0.2526 -0.3523
 9922TIP3    H251182   4.470   1.262   5.591  1.0049 -1.3861  1.7741
 9923TIP3   OH251183   3.033   6.204   3.379 -0.6070 -0.1966  0.1162
 9923TIP3    H151184   3.050   6.169   3.291 -0.7744 -1.4487  0.5633
 9923TIP3    H251185   2.941   6.231   3.377 -0.6183 -0.2489 -0.0756
 9924TIP3   OH251186   0.326   5.732  17.014  0.5496 -0.4266  0.2495
 9924TIP3    H151187   0.358   5.713  16.926  2.8592  0.5668  0.7875
 9924TIP3    H251188   0.290   5.820  17.009 -0.1868 -0.7225  0.1286
 9925TIP3   OH251189   5.137   0.274  12.285  0.4067  0.0884  0.3648
 9925TIP3    H151190   5.153   0.366  12.305 -0.5367  0.1608  0.8578
 9925TIP3    H251191   5.142   0.269  12.190 -0.6606  0.9006  0.2385
 9926TIP3   OH251192   4.016   1.543  12.795  0.1232  0.1319 -0.4879
 9926TIP3    H151193   3.989   1.453  12.779 -0.5455  0.2772 -0.2102
 9926TIP3    H251194   3.994   1.589  12.714  0.4249  0.0537 -0.6136
 9927TIP3   OH251195   6.687   3.688   4.068  0.2605 -0.1618  0.0567
 9927TIP3    H151196   6.637   3.631   4.009  0.9552  0.6717 -1.3893
 9927TIP3    H251197   6.749   3.628   4.111 -0.5862 -0.8633  0.3294
 9928TIP3   OH251198   5.074   2.565   5.929  0.0630 -0.0694  0.4772
 9928TIP3    H151199   5.145   2.507   5.955 -2.3812 -2.9413  1.4299
 9928TIP3    H251200   5.085   2.577   5.835  1.6767 -0.6068  0.5788
 9929TIP3   OH251201   0.870   3.921  11.865 -0.2065  0.4354  1.0346
 9929TIP3    H151202   0.792   3.974  11.849 -1.0671 -0.4361  2.1971
 9929TIP3    H251203   0.901   3.897  11.778 -0.9188  1.2258  0.5474
 9930TIP3   OH251204   0.357   4.892  15.408 -0.2991  0.1475  0.0812
 9930TIP3    H151205   0.407   4.969  15.433  0.6501 -0.6648  0.7236
 9930TIP3    H251206   0.396   4.864  15.325 -0.4856  0.1982 -0.0267
 9931TIP3   OH251207   5.522   1.331   2.852  0.0331 -0.2972  0.1029
 9931TIP3    H151208   5.473   1.362   2.776 -0.1488 -0.0962  0.2975
 9931TIP3    H251209   5.596   1.391   2.858  0.8700 -1.2177 -0.7905
 9932TIP3   OH251210   4.362   0.639  11.729  0.2760 -0.7270  0.5996
 9932TIP3    H151211   4.430   0.693  11.690  0.7612 -0.8845  1.2181
 9932TIP3    H251212   4.288   0.645  11.668  0.5855  0.0267  0.2956
 9933TIP3   OH251213   1.943   4.522   3.658 -0.1122  0.0577  0.0726
 9933TIP3    H151214   2.012   4.578   3.691  0.3105 -0.2849 -0.2162
 9933TIP3    H251215   1.888   4.504   3.734 -0.2063  0.7865  0.1873
 9934TIP3   OH251216   6.394   2.830  17.271 -0.6176 -0.3312 -0.7079
 9934TIP3    H151217   6.430   2.771  17.337 -0.1925  0.9263  0.2166
 9934TIP3    H251218   6.305   2.797  17.256 -1.0077 -0.1702  1.0938
 9935TIP3   OH251219   0.461   5.572   3.685  0.3486  0.1679 -0.2664
 9935TIP3    H151220   0.452   5.488   3.730  0.2495 -0.4841 -1.4640
 9935TIP3    H251221   0.555   5.587   3.681  0.3712  0.0569 -0.1623
 9936TIP3   OH251222   3.404   0.333   3.985 -0.4613 -0.1482  0.3004
 9936TIP3    H151223   3.333   0.391   4.010 -0.3420 -0.3896  1.2265
 9936TIP3    H251224   3.377   0.246   4.016 -0.2236 -0.4259 -0.2528
 9937TIP3   OH251225   0.442   6.582  15.433  0.0811 -0.1508  0.1124
 9937TIP3    H151226   0.480   6.605  15.348  0.2642 -0.0614  0.2177
 9937TIP3    H251227   0.517   6.566  15.490  0.0454  1.9493  0.8601
 9938TIP3   OH251228   4.255   4.106  15.584 -0.1515 -0.1879  0.4253
 9938TIP3    H151229   4.244   4.145  15.671 -1.4538  0.2734  0.0899
 9938TIP3    H251230   4.221   4.173  15.524  1.5651 -0.1225 -0.5333
 9939TIP3   OH251231   5.801   0.704   2.840 -0.2193  0.2770 -0.6102
 9939TIP3    H151232   5.723   0.673   2.794 -0.2344 -1.4236  0.4370
 9939TIP3    H251233   5.858   0.739   2.772 -1.7453  1.2533 -1.4271
 9940TIP3   OH251234   4.616   2.325  11.824 -0.0660 -0.0270 -0.0635
 9940TIP3    H151235   4.561   2.329  11.903  0.4453 -0.9733  0.3493
 9940TIP3    H251236   4.561   2.280  11.760 -1.0544  2.0550 -0.7535
 9941TIP3   OH251237   3.089   4.521   1.105 -0.3549 -0.1767  0.3110
 9941TIP3    H151238   3.180   4.512   1.134  0.0779 -1.4815 -1.2398
 9941TIP3    H251239   3.045   4.443   1.139 -0.8954  0.4281  1.0196
 9942TIP3   OH251240   1.610   1.996   6.421 -0.0086  0.1425 -0.0849
 9942TIP3    H151241   1.542   1.961   6.363  1.8045 -3.2795 -0.4826
 9942TIP3    H251242   1.608   1.938   6.497  2.1973  0.0560 -0.0214
 9943TIP3   OH251243   3.164   3.393   2.121 -0.2409 -0.2605 -0.0506
 9943TIP3    H151244   3.148   3.300   2.106 -0.5338  0.1851 -3.3788
 9943TIP3    H251245   3.252   3.397   2.158 -0.8835 -1.8754  1.8119
 9944TIP3   OH251246   3.788   4.994  15.281  0.6813  0.4465 -0.6202
 9944TIP3    H151247   3.817   4.908  15.312  0.6364  1.1541  1.5247
 9944TIP3    H251248   3.867   5.036  15.247  0.6038 -0.6060 -2.2206
 9945TIP3   OH251249   2.257   4.334   3.728  0.2768 -0.0514  0.6816
 9945TIP3    H151250   2.305   4.411   3.760  0.2234  0.1367  0.3157
 9945TIP3    H251251   2.308   4.259   3.759  0.0203  0.1177  1.5280
 9946TIP3   OH251252   2.398   5.884   1.510 -0.5372  0.4403  0.5913
 9946TIP3    H151253   2.411   5.863   1.418 -0.8328  1.4935  0.3018
 9946TIP3    H251254   2.486   5.905   1.543 -0.0732 -1.9771  1.1147
 9947TIP3   OH251255   2.764   4.052  14.770 -0.1453  0.3893 -0.2143
 9947TIP3    H151256   2.677   4.027  14.737 -0.6609 -0.5605  1.7545
 9947TIP3    H251257   2.768   4.147  14.754 -0.7707  0.1716 -1.9648
 9948TIP3   OH251258   1.541   5.930  14.954  0.0383 -0.2816 -0.0832
 9948TIP3    H151259   1.501   6.011  14.923 -2.2438 -1.2538  0.0941
 9948TIP3    H251260   1.537   5.936  15.049  2.9860  0.7864  0.0729
 9949TIP3   OH251261   5.428   4.828  17.486  0.3354 -0.1371 -0.2675
 9949TIP3    H151262   5.510   4.870  17.514  0.7242 -0.5831 -0.7221
 9949TIP3    H251263   5.378   4.899  17.444 -0.9759  0.9780  2.8744
 9950TIP3   OH251264   5.077   2.386  15.634  0.2153  0.0462  0.3668
 9950TIP3    H151265   5.030   2.304  15.619 -0.2739  0.4587 -0.4021
 9950TIP3    H251266   5.170   2.361  15.634  0.1281 -0.3439 -1.0216
 9951TIP3   OH251267   4.694   4.894  14.256 -0.0011  0.1235  0.1593
 9951TIP3    H151268   4.657   4.875  14.342  2.4499 -3.4600  0.6449
 9951TIP3    H251269   4.652   4.832  14.197  0.8088  0.1826 -0.5025
 9952TIP3   OH251270   0.146   0.989   3.663  0.5611 -0.0361 -0.4673
 9952TIP3    H151271   0.119   1.079   3.646  1.6310  0.3456 -0.2382
 9952TIP3    H251272   0.072   0.936   3.634 -0.6176  0.9670  0.5496
 9953TIP3   OH251273   6.034   3.044   3.678  0.1037 -0.0626  0.2562
 9953TIP3    H151274   5.959   3.016   3.731 -0.0611 -0.2768 -0.0802
 9953TIP3    H251275   6.002   3.039   3.587  1.2044 -2.3477 -0.0699
 9954TIP3   OH251276   2.398   1.946  14.724 -0.2692 -0.1176  0.4351
 9954TIP3    H151277   2.330   1.944  14.657 -0.5756 -0.6573  0.7554
 9954TIP3    H251278   2.375   2.021  14.779 -0.0774  0.2610  0.0138
 9955TIP3   OH251279   3.906   3.731  12.247 -0.6523 -0.1561 -0.4960
 9955TIP3    H151280   3.824   3.764  12.211 -0.9832 -0.5109 -0.0763
 9955TIP3    H251281   3.965   3.725  12.171 -0.5982  1.2992 -0.6034
 9956TIP3   OH251282   0.707   6.278  13.524  0.5685  0.3055  0.0176
 9956TIP3    H151283   0.787   6.323  13.551  0.3244 -0.0159  1.3411
 9956TIP3    H251284   0.644   6.348  13.506  0.5731  0.5315  0.8466
 9957TIP3   OH251285   6.101   2.602   2.427 -0.4374 -0.6551  0.3759
 9957TIP3    H151286   6.122   2.599   2.521 -0.4420  1.0889  0.4738
 9957TIP3    H251287   6.011   2.636   2.424 -0.0095  0.4950 -0.2567
 9958TIP3   OH251288   5.928   3.546   3.752 -0.0726 -0.2606  0.0268
 9958TIP3    H151289   5.898   3.634   3.731 -0.9613 -1.2588 -3.5485
 9958TIP3    H251290   6.016   3.541   3.713 -0.0180 -0.9459  0.2186
 9959TIP3   OH251291   3.223   5.705  11.544 -0.1762 -0.0805  0.0593
 9959TIP3    H151292   3.168   5.683  11.469 -0.9436  3.6216 -0.6301
 9959TIP3    H251293   3.271   5.624  11.563 -0.4852 -1.3917 -3.9279
 9960TIP3   OH251294   5.093   4.197  13.420  0.2278 -0.8334 -0.3359
 9960TIP3    H151295   5.023   4.137  13.444  0.0575 -0.2780  0.6178
 9960TIP3    H251296   5.090   4.200  13.324 -0.0754 -1.9529 -0.3735
 9961TIP3   OH251297   5.041   2.211   2.264  0.3017  0.4041 -0.0911
 9961TIP3    H151298   4.975   2.167   2.318  0.0201  0.3521 -0.4755
 9961TIP3    H251299   4.992   2.277   2.215  0.1367 -1.0724 -2.0099
 9962TIP3   OH251300   1.169   1.399  11.344 -0.4361 -0.4660 -0.0067
 9962TIP3    H151301   1.091   1.356  11.311  0.9975 -2.5045 -0.9763
 9962TIP3    H251302   1.200   1.452  11.271  0.9774 -2.4674 -0.9425
 9963TIP3   OH251303   3.123   6.422   0.676  0.0548 -0.3931 -0.0249
 9963TIP3    H151304   3.177   6.458   0.605 -0.6566 -1.4803 -1.1677
 9963TIP3    H251305   3.184   6.373   0.731  0.5609  0.1522 -0.0999
 9964TIP3   OH251306   6.709   0.450   2.907  0.2681 -0.3468  0.0405
 9964TIP3    H151307   6.707   0.544   2.921 -0.6910 -0.2800 -0.4924
 9964TIP3    H251308   6.767   0.417   2.976  1.0655  0.6777 -0.1093
 9965TIP3   OH251309   5.900   2.605   4.667 -0.3773  0.0303 -0.0414
 9965TIP3    H151310   5.823   2.661   4.652 -0.9607 -0.5102  0.8776
 9965TIP3    H251311   5.948   2.648   4.737 -0.9690 -0.7302  0.8566
 9966TIP3   OH251312   0.941   4.197  15.583 -0.0500 -0.1924  0.4501
 9966TIP3    H151313   0.869   4.164  15.528 -0.4536  0.1754  0.7439
 9966TIP3    H251314   1.020   4.178  15.533 -0.0373 -3.5658  1.5372
 9967TIP3   OH251315   3.834   2.513   5.751 -0.0216  0.3296  0.4151
 9967TIP3    H151316   3.904   2.448   5.745 -0.7306 -0.5226  1.1629
 9967TIP3    H251317   3.810   2.515   5.843 -0.0071  1.6844  0.4133
 9968TIP3   OH251318   0.239   0.520  16.154  0.1745  0.2231 -0.3533
 9968TIP3    H151319   0.329   0.548  16.136 -0.3150  0.9534 -1.7867
 9968TIP3    H251320   0.248   0.451  16.219  1.7087  0.9559  0.2558
 9969TIP3   OH251321   3.184   3.844  17.122 -0.2780 -0.1739 -0.0440
 9969TIP3    H151322   3.269   3.859  17.163 -0.8365  0.7954  0.7928
 9969TIP3    H251323   3.142   3.778  17.177 -0.4437  0.0404  0.0853
 9970TIP3   OH251324   0.634   0.170  11.829  0.5071 -0.3011  0.0120
 9970TIP3    H151325   0.556   0.171  11.885  0.9769 -0.2126  0.6715
 9970TIP3    H251326   0.600   0.186  11.741 -0.1203  0.7051  0.4185
 9971TIP3   OH251327   4.949   6.402   3.506  0.0914 -0.5669  0.0104
 9971TIP3    H151328   4.951   6.322   3.557 -0.4425 -0.7503 -0.2499
 9971TIP3    H251329   4.975   6.376   3.418 -0.4322 -0.5241 -0.1606
 9972TIP3   OH251330   1.323   1.219   4.239  0.4904  0.0909 -0.3130
 9972TIP3    H151331   1.234   1.184   4.237  1.1308 -1.5962 -2.4324
 9972TIP3    H251332   1.375   1.158   4.187  2.7406  1.4850  0.1399
 9973TIP3   OH251333   1.311   2.352  12.311  1.2290  0.1892  0.2761
 9973TIP3    H151334   1.242   2.400  12.265  1.6699  1.7531  1.1513
 9973TIP3    H251335   1.264   2.290  12.367  0.6180 -0.1135 -0.5493
 9974TIP3   OH251336   0.659   4.994  17.459 -0.2791  0.1958 -0.2416
 9974TIP3    H151337   0.737   4.975  17.407 -0.0608  1.1081 -0.2593
 9974TIP3    H251338   0.621   5.071  17.417 -0.7991  0.1781  0.1946
 9975TIP3   OH251339   2.751   3.233  16.457  1.1048  0.0652 -0.4886
 9975TIP3    H151340   2.667   3.191  16.437  0.1699  2.0566 -1.0156
 9975TIP3    H251341   2.814   3.161  16.459 -0.5141 -1.4214 -0.6272
 9976TIP3   OH251342   4.960   4.536   0.612 -0.5222  0.4190 -0.1639
 9976TIP3    H151343   4.926   4.480   0.681 -1.7557 -0.7958 -1.6833
 9976TIP3    H251344   4.908   4.514   0.535  2.6384 -0.3855 -2.2423
 9977TIP3   OH251345   0.587   2.632   1.278 -0.2246 -0.0791 -0.0354
 9977TIP3    H151346   0.593   2.540   1.302  1.0786  0.4066  1.6226
 9977TIP3    H251347   0.582   2.631   1.182  1.8733 -1.8095 -0.1987
 9978TIP3   OH251348   0.594   5.396   2.192 -0.2097  0.1021 -0.6877
 9978TIP3    H151349   0.543   5.366   2.268  0.7693  1.2361  0.4571
 9978TIP3    H251350   0.544   5.365   2.117 -2.2131  0.5583  0.3825
 9979TIP3   OH251351   5.378   6.246  12.050 -0.0645 -0.2886  0.7703
 9979TIP3    H151352   5.325   6.206  12.119 -1.1281 -0.0281  0.1373
 9979TIP3    H251353   5.315   6.268  11.981  0.4399  2.4413  1.0542
 9980TIP3   OH251354   3.084   6.617  16.478 -0.0090  0.1505  0.1489
 9980TIP3    H151355   3.150   6.551  16.500 -0.7250 -0.8893 -0.6977
 9980TIP3    H251356   3.105   6.642  16.388  2.1763  3.4764  1.3665
 9981TIP3   OH251357   4.217   1.515  12.084  0.2139 -0.0518  0.7530
 9981TIP3    H151358   4.222   1.501  11.990 -0.3177 -0.7850  0.8241
 9981TIP3    H251359   4.309   1.523  12.112  0.3746  0.0456  0.1968
 9982TIP3   OH251360   1.294   2.373   2.804  0.1903  0.3414  0.4903
 9982TIP3    H151361   1.355   2.301   2.790  2.2230  2.2028 -0.8054
 9982TIP3    H251362   1.292   2.385   2.899 -0.3889 -1.5329  0.7435
 9983TIP3   OH251363   1.009   0.325  15.349 -0.3317 -0.0149  0.5192
 9983TIP3    H151364   1.074   0.266  15.308 -1.1016 -1.1293  0.8536
 9983TIP3    H251365   1.005   0.400  15.290  1.6947  0.3788  0.7853
 9984TIP3   OH251366   6.479   3.804   3.163  0.6467  0.9611 -0.5351
 9984TIP3    H151367   6.422   3.747   3.216  0.5756  0.9157 -0.6605
 9984TIP3    H251368   6.423   3.836   3.093  0.3100  2.2852  0.3039
 9985TIP3   OH251369   3.147   4.518  12.086  0.3282 -0.3953 -0.1500
 9985TIP3    H151370   3.109   4.544  12.170  0.6883 -2.0478  0.5626
 9985TIP3    H251371   3.073   4.521  12.024  0.1242  1.1136  0.1288
 9986TIP3   OH251372   3.345   1.388   1.586  0.5164 -0.2699  0.8774
 9986TIP3    H151373   3.416   1.418   1.642 -0.0373 -0.6246  1.7919
 9986TIP3    H251374   3.266   1.404   1.637 -0.0279 -0.2946  0.0538
 9987TIP3   OH251375   6.016   0.737  12.490 -0.3628  0.3802 -0.1497
 9987TIP3    H151376   6.083   0.785  12.440 -0.8496  1.6285  0.3450
 9987TIP3    H251377   6.057   0.722  12.576 -0.4258  0.4428 -0.1091
 9988TIP3   OH251378   3.100   1.842   5.082 -0.4429 -0.5158  0.0698
 9988TIP3    H151379   3.141   1.928   5.093 -0.3943 -0.3790 -1.0490
 9988TIP3    H251380   3.151   1.800   5.013 -0.5818 -1.3773  0.4804
 9989TIP3   OH251381   4.849   0.369   3.673 -0.0148 -0.0631  0.6104
 9989TIP3    H151382   4.935   0.354   3.712  0.0750  0.7884  0.7640
 9989TIP3    H251383   4.800   0.417   3.740 -0.5188 -0.2951  0.4170
 9990TIP3   OH251384   0.503   0.940  12.084 -0.2960 -0.2436 -0.4920
 9990TIP3    H151385   0.448   0.959  12.008 -1.1159 -0.3969  0.0353
 9990TIP3    H251386   0.501   0.844  12.091 -0.8943 -0.1947  0.1751
 9991TIP3   OH251387   1.124   3.825   4.587 -0.8013 -0.2753  0.3442
 9991TIP3    H151388   1.133   3.858   4.676 -0.0660  1.9325 -0.4739
 9991TIP3    H251389   1.079   3.741   4.596 -0.6880 -0.1264  2.7732
 9992TIP3   OH251390   3.028   5.017   5.514 -0.4903  0.1892 -0.4061
 9992TIP3    H151391   2.958   4.991   5.454 -0.9360  0.0563  0.1607
 9992TIP3    H251392   2.989   5.007   5.601  0.4206 -0.4730 -0.0565
 9993TIP3   OH251393   0.858   1.545   6.699 -0.0677 -0.3698 -0.5118
 9993TIP3    H151394   0.859   1.485   6.773 -0.1516 -1.7445 -1.5939
 9993TIP3    H251395   0.944   1.588   6.703 -0.8816  1.2346  1.6367
 9994TIP3   OH251396   5.999   6.607  14.022 -0.7454 -0.2620  0.0535
 9994TIP3    H151397   6.085   6.612  14.064 -0.6515 -0.6532 -0.0877
 9994TIP3    H251398   6.007   6.536  13.958 -1.0525 -0.0318 -0.2457
 9995TIP3   OH251399   4.096   6.639   3.507  0.4814  0.3527 -0.6067
 9995TIP3    H151400   4.069   6.723   3.545 -0.1396 -0.7426  1.5677
 9995TIP3    H251401   4.143   6.662   3.427  2.4534  2.9448  1.1330
 9996TIP3   OH251402   0.905   3.580   3.296  0.0446 -0.4497  0.0419
 9996TIP3    H151403   0.987   3.531   3.306  0.7127  0.8186  1.1067
 9996TIP3    H251404   0.890   3.620   3.382 -0.9723  0.4270 -0.5206
 9997TIP3   OH251405   4.257   0.545  15.271  0.1319  0.0959 -0.0764
 9997TIP3    H151406   4.244   0.456  15.304 -0.9542 -0.2260 -1.2664
 9997TIP3    H251407   4.271   0.534  15.177 -0.3648  1.2003 -0.2995
 9998TIP3   OH251408   4.224   1.028  16.153  0.4103 -0.4634  0.6828
 9998TIP3    H151409   4.313   1.014  16.120  0.7255  3.4316 -0.6741
 9998TIP3    H251410   4.172   1.041  16.074 -0.6743  0.4361  1.5215
 9999TIP3   OH251411   1.305   5.442   4.065 -0.6780 -0.3898 -0.1174
 9999TIP3    H151412   1.217   5.462   4.096 -1.1156 -0.6156 -1.1730
 9999TIP3    H251413   1.307   5.347   4.057  0.0165 -0.4767  0.8844
10000TIP3   OH251414   5.389   3.127   2.685 -0.0258 -0.1234 -0.0720
10000TIP3    H151415   5.455   3.187   2.650  0.6181 -0.7528  0.0371
10000TIP3    H251416   5.382   3.151   2.778  0.7284 -0.6492  0.1296
10001TIP3   OH251417   3.063   5.210  17.167  0.1489  0.1560 -0.3293
10001TIP3    H151418   3.019   5.159  17.100  0.9969  1.1088 -1.6740
10001TIP3    H251419   3.156   5.192  17.155  0.4687  1.8387 -0.7583
10002TIP3   OH251420   1.522   5.964   4.862  0.1184 -0.1560  0.0578
10002TIP3    H151421   1.487   5.995   4.779  0.9040  0.8590  0.0924
10002TIP3    H251422   1.463   6.000   4.929 -0.1430 -0.4486 -0.0087
10003TIP3   OH251423   4.021   6.642  15.208 -0.1343  0.8097  0.2563
10003TIP3    H151424   4.024   6.636  15.304  0.7091 -1.0419  0.1618
10003TIP3    H251425   4.061   6.726  15.187  0.4556  0.8561  1.5070
10004TIP3   OH251426   1.004   5.552   2.060  0.0275 -0.1225  0.2946
10004TIP3    H151427   0.912   5.539   2.085  0.5073 -3.7467  0.7155
10004TIP3    H251428   1.054   5.517   2.133  1.6478 -1.5646 -1.3990
10005TIP3   OH251429   3.119   6.051  14.329  0.6530 -0.6505 -0.7020
10005TIP3    H151430   3.028   6.079  14.313  0.1913 -1.5839  0.1975
10005TIP3    H251431   3.112   5.958  14.347  1.6361 -0.4800  0.7025
10006TIP3   OH251432   1.859   2.290   4.252 -1.0179  0.3422  0.0075
10006TIP3    H151433   1.811   2.293   4.169 -0.0374  0.8563 -0.5518
10006TIP3    H251434   1.866   2.197   4.272  0.3491  0.0855 -1.4642
10007TIP3   OH251435   6.647   2.761  15.178 -0.5545 -0.3160 -0.4286
10007TIP3    H151436   6.633   2.796  15.090 -2.9670 -1.1447 -0.4644
10007TIP3    H251437   6.646   2.839  15.235  0.1533  0.1537 -1.0475
10008TIP3   OH251438   4.779   2.170   0.167  0.4995  0.1233 -0.6088
10008TIP3    H151439   4.781   2.077   0.192  1.2298  0.6060  1.2937
10008TIP3    H251440   4.711   2.208   0.222  1.8074  1.1368  0.3634
10009TIP3   OH251441   0.034   5.860  11.563 -0.2231 -0.2315 -0.2363
10009TIP3    H151442  -0.001   5.907  11.638 -2.0276 -0.1651 -1.0522
10009TIP3    H251443   0.021   5.767  11.586  0.5252 -0.2536  0.1093
10010TIP3   OH251444   2.578   1.986   1.798 -0.2421  0.0713  0.5888
10010TIP3    H151445   2.604   1.907   1.750  2.4267  0.6170  0.9698
10010TIP3    H251446   2.588   2.057   1.735  0.9966  0.5049  1.2322
10011TIP3   OH251447   2.974   0.842  14.460 -0.1795 -0.2875 -0.6954
10011TIP3    H151448   3.026   0.770  14.425  0.1730 -0.2658 -0.2342
10011TIP3    H251449   2.997   0.844  14.553 -1.3634 -0.5800 -0.3837
10012TIP3   OH251450   4.147   6.598   5.388 -0.4690  0.1891 -0.2159
10012TIP3    H151451   4.138   6.690   5.414 -1.7619 -0.1953  0.8385
10012TIP3    H251452   4.216   6.598   5.322  2.0664  1.4630  2.1905
10013TIP3   OH251453   3.794   5.746  13.340  0.2713 -0.6213 -0.3198
10013TIP3    H151454   3.752   5.672  13.296  0.3523 -0.2484 -1.0290
10013TIP3    H251455   3.861   5.776  13.279 -0.2393  0.4961 -0.3543
10014TIP3   OH251456   4.579   5.747   0.594 -0.0306 -0.1918 -0.4392
10014TIP3    H151457   4.520   5.820   0.612  1.3113  0.6972  0.5720
10014TIP3    H251458   4.538   5.701   0.521 -2.7781 -0.5398  1.1505
10015TIP3   OH251459   5.762   3.288  14.188  0.1723 -0.0298 -0.2430
10015TIP3    H151460   5.694   3.239  14.141 -1.4888 -0.3988  2.3000
10015TIP3    H251461   5.760   3.375  14.149  0.1536 -0.7834 -2.0008
10016TIP3   OH251462   3.469   1.165   0.675  0.3166 -0.2872 -0.0976
10016TIP3    H151463   3.490   1.230   0.607  0.5797 -1.3254 -1.0419
10016TIP3    H251464   3.436   1.217   0.748 -0.9579  0.8233 -1.3823
10017TIP3   OH251465   0.259   1.536  11.034 -0.5799  0.0947  0.5007
10017TIP3    H151466   0.275   1.627  11.059 -2.2535 -0.2128  3.2382
10017TIP3    H251467   0.164   1.527  11.039 -0.3849 -2.0690  1.6094
10018TIP3   OH251468   1.759   3.576   5.806 -0.0682  0.4435  0.3048
10018TIP3    H151469   1.670   3.545   5.788  0.4065 -0.7623 -0.0611
10018TIP3    H251470   1.780   3.632   5.732  0.0430 -0.5269 -0.4118
10019TIP3   OH251471   0.049   0.771   3.863 -0.4217  0.2006  0.2948
10019TIP3    H151472   0.065   0.752   3.771  1.6890  2.2089  0.1767
10019TIP3    H251473   0.014   0.861   3.864 -0.4162  0.2130  1.4495
10020TIP3   OH251474   5.550   3.390  16.340 -0.7707  0.0380  0.7923
10020TIP3    H151475   5.541   3.467  16.285 -1.0384 -0.7744 -0.3474
10020TIP3    H251476   5.640   3.395  16.374 -0.9748  1.1303  1.2134
10021TIP3   OH251477   0.990   5.926  11.754 -0.2591  0.1656  0.2646
10021TIP3    H151478   1.043   5.851  11.781 -0.2503  0.4340  1.0191
10021TIP3    H251479   0.918   5.887  11.703  0.7819 -0.1792 -0.9886
10022TIP3   OH251480   2.607   4.994  17.620  0.1407 -0.1565  0.3446
10022TIP3    H151481   2.673   5.054  17.585 -0.0944  0.3027  0.6715
10022TIP3    H251482   2.592   4.930  17.550 -0.3230  0.7472 -0.4094
10023TIP3   OH251483   0.476   0.141  11.564 -0.0139 -0.1174  0.2805
10023TIP3    H151484   0.511   0.095  11.487 -0.0621  1.1463 -0.5148
10023TIP3    H251485   0.475   0.233  11.538 -0.4771  0.2700  1.6371
10024TIP3   OH251486   3.170   0.739   1.811 -0.1375  0.4245 -0.3278
10024TIP3    H151487   3.164   0.715   1.903  1.2063  1.5920  0.1111
10024TIP3    H251488   3.079   0.739   1.780 -0.9933  2.9022  1.8073
10025TIP3   OH251489   3.550   5.683   5.707  0.6229  0.1878  0.0525
10025TIP3    H151490   3.502   5.625   5.766 -1.7777  0.3166 -1.6200
10025TIP3    H251491   3.642   5.669   5.729  0.0133 -2.3773  1.3846
10026TIP3   OH251492   4.026   2.310   4.404  0.0119  0.1172 -0.0036
10026TIP3    H151493   4.037   2.335   4.496  3.1253  0.3683 -0.3496
10026TIP3    H251494   3.997   2.391   4.361  0.5809  0.5646  0.4330
10027TIP3   OH251495   0.006   0.801  14.135 -0.2748  0.0068  0.1565
10027TIP3    H151496  -0.023   0.861  14.204  1.5900  1.9247 -0.6118
10027TIP3    H251497  -0.035   0.833  14.055 -0.1152 -0.3893 -0.0877
10028TIP3   OH251498   4.533   4.154  13.194  0.1511  0.0158 -0.5627
10028TIP3    H151499   4.484   4.221  13.242  0.0515 -0.8690  0.6270
10028TIP3    H251500   4.509   4.072  13.237  1.1579 -0.6588 -1.2502
10029TIP3   OH251501   6.016   2.789  14.662  0.5124  0.5187 -0.2583
10029TIP3    H151502   6.015   2.883  14.678 -0.3052  0.8000 -1.7510
10029TIP3    H251503   5.989   2.750  14.746 -0.2329  1.6773  0.0692
10030TIP3   OH251504   0.243   3.301   6.023  0.1246 -1.0201 -0.4589
10030TIP3    H151505   0.210   3.219   6.060  1.4486 -1.7654 -0.8286
10030TIP3    H251506   0.336   3.302   6.047 -0.0549  0.8420  0.3156
10031TIP3   OH251507   3.096   3.698  16.482  0.1514 -0.0844  0.3729
10031TIP3    H151508   3.146   3.618  16.496  0.7736  0.3131  0.4566
10031TIP3    H251509   3.074   3.697  16.389 -1.4495 -1.2637  0.7213
10032TIP3   OH251510   4.554   5.804   3.310  0.0152  0.0317  0.1022
10032TIP3    H151511   4.475   5.858   3.301 -0.2997 -0.4060  0.1825
10032TIP3    H251512   4.588   5.796   3.221 -0.2815 -0.1418  0.0025
10033TIP3   OH251513   3.398   0.995  14.800  0.3441  0.2484  0.3414
10033TIP3    H151514   3.454   0.997  14.722 -0.0681  0.7528  0.0623
10033TIP3    H251515   3.388   0.901  14.819  3.2050  0.1183  1.7812
10034TIP3   OH251516   5.166   2.103   2.648 -0.2000  0.4181 -0.2165
10034TIP3    H151517   5.193   2.025   2.696  0.1101  0.1143 -0.8780
10034TIP3    H251518   5.082   2.127   2.687 -0.2201 -0.1524  0.0971
10035TIP3   OH251519   3.393   6.055  16.272 -0.3026 -0.6387  0.1206
10035TIP3    H151520   3.299   6.051  16.260 -0.2840  0.8281 -0.7828
10035TIP3    H251521   3.428   5.989  16.212 -0.7864 -2.5893  1.8636
10036TIP3   OH251522   5.725   4.510  12.720 -0.0657 -0.1090  0.2458
10036TIP3    H151523   5.690   4.468  12.642 -0.5850  0.8153 -0.0269
10036TIP3    H251524   5.652   4.510  12.782  0.1787 -0.3451  0.5370
10037TIP3   OH251525   4.752   6.383   5.112  0.3724  0.4278 -0.7128
10037TIP3    H151526   4.753   6.455   5.175  0.7880 -1.7684  1.9897
10037TIP3    H251527   4.664   6.347   5.118 -0.7263  2.1263 -4.0065
10038TIP3   OH251528   2.097   6.383  11.368  0.3438  0.8239  0.0436
10038TIP3    H151529   2.098   6.329  11.289 -3.0041  0.2092  0.2880
10038TIP3    H251530   2.029   6.448  11.351 -0.9802  0.2364  2.6650
10039TIP3   OH251531   6.369   0.380   5.080  0.0599  0.4072  0.0611
10039TIP3    H151532   6.363   0.379   4.984  0.6426 -0.3755  0.0204
10039TIP3    H251533   6.299   0.438   5.108  0.1084  0.9268 -0.8611
10040TIP3   OH251534   5.779   0.632  16.788 -0.4095  0.0742 -0.3358
10040TIP3    H151535   5.849   0.586  16.834 -1.1707 -2.7911 -1.8299
10040TIP3    H251536   5.769   0.714  16.836  2.1422 -0.5811  1.5173
10041TIP3   OH251537   6.202   5.011  16.923  0.0592 -0.8777 -0.1766
10041TIP3    H151538   6.285   4.963  16.932  1.1081  0.9001 -0.0234
10041TIP3    H251539   6.228   5.101  16.906 -1.8210 -0.8073 -3.7073
10042TIP3   OH251540   0.994   2.896  12.250  0.0746  0.3893  0.3631
10042TIP3    H151541   0.958   2.838  12.317 -0.8023 -0.5393 -0.8514
10042TIP3    H251542   0.997   2.842  12.171  1.4316  1.3354 -0.2684
10043TIP3   OH251543   0.280   4.474   6.417  0.2563  0.4700  0.1071
10043TIP3    H151544   0.304   4.392   6.462 -0.9378 -0.1435 -0.3161
10043TIP3    H251545   0.237   4.526   6.485 -0.8769 -0.1471 -0.1119
10044TIP3   OH251546   2.929   5.171   5.950 -0.2778  0.2196  0.1367
10044TIP3    H151547   2.968   5.258   5.944 -0.0692  0.1331  0.2206
10044TIP3    H251548   2.925   5.154   6.044  0.1136 -0.0534  0.1058
10045TIP3   OH251549   4.628   5.907  13.574  0.6695  0.2292  0.0385
10045TIP3    H151550   4.627   5.861  13.658  0.3894  1.6037  0.8142
10045TIP3    H251551   4.706   5.963  13.578 -0.3018  1.6134  0.1327
10046TIP3   OH251552   0.777   3.071   0.694  0.2073  0.3330  0.0822
10046TIP3    H151553   0.832   3.018   0.752  0.0218  1.1796  1.0590
10046TIP3    H251554   0.714   3.009   0.657  2.3058 -0.8548 -1.7603
10047TIP3   OH251555   4.355   6.265  14.931 -0.0271 -0.9621 -0.1946
10047TIP3    H151556   4.384   6.181  14.966 -0.0742 -1.4636 -1.3051
10047TIP3    H251557   4.308   6.306  15.003 -0.7030 -2.2336  0.1237
10048TIP3   OH251558   6.267   4.810   2.719 -0.8169  0.6209 -0.2523
10048TIP3    H151559   6.304   4.825   2.806  0.9040  0.4023 -0.8982
10048TIP3    H251560   6.173   4.807   2.733 -0.5727  0.4602  1.6161
10049TIP3   OH251561   2.063   2.968   3.421  0.0932 -0.2152 -0.5368
10049TIP3    H151562   2.064   2.908   3.496  0.4808 -1.2268 -1.3298
10049TIP3    H251563   2.057   3.055   3.460 -2.1837 -0.8084  0.6242
10050TIP3   OH251564   2.387   6.210   5.139 -0.0734  0.2221 -0.4644
10050TIP3    H151565   2.302   6.195   5.180  0.6716 -2.4965  0.3057
10050TIP3    H251566   2.449   6.213   5.212  0.6700  0.5514 -1.0977
10051TIP3   OH251567   2.938   2.220   4.914  0.9482 -0.6573 -0.6843
10051TIP3    H151568   2.881   2.156   4.956  0.2276  0.0856 -0.4975
10051TIP3    H251569   2.888   2.302   4.918  1.8806 -0.0712 -0.8491
10052TIP3   OH251570   4.186   4.386   1.099  0.2854 -0.0333  0.9754
10052TIP3    H151571   4.235   4.314   1.058  0.1469 -0.1865  1.0810
10052TIP3    H251572   4.116   4.343   1.148 -0.0989  0.1996  0.6319
10053TIP3   OH251573   2.693   1.693  14.809  0.1205 -0.4878  0.4521
10053TIP3    H151574   2.729   1.774  14.845  0.0794 -0.4208  0.3438
10053TIP3    H251575   2.750   1.673  14.734  1.3774 -1.6414  1.6447
10054TIP3   OH251576   1.158   3.246  11.820 -0.0803 -0.7287  0.2446
10054TIP3    H151577   1.075   3.284  11.848  0.1393  1.2261 -1.4871
10054TIP3    H251578   1.220   3.268  11.889 -0.6787 -0.9226  0.8534
10055TIP3   OH251579   5.024   1.702  17.375  0.5885 -0.2897  0.3377
10055TIP3    H151580   5.028   1.725  17.282  0.1032  1.4706  0.7068
10055TIP3    H251581   4.992   1.782  17.418  0.2480 -1.2475  1.9527
10056TIP3   OH251582   0.713   5.556   6.369 -1.2555 -0.3618  0.2617
10056TIP3    H151583   0.724   5.608   6.289  0.5004  0.3507  0.8947
10056TIP3    H251584   0.792   5.502   6.373 -1.2800 -0.3322  1.5229
10057TIP3   OH251585   2.989   0.514  11.199 -0.0685 -0.3920 -0.5998
10057TIP3    H151586   3.041   0.512  11.119  1.7007  2.0235  0.3780
10057TIP3    H251587   3.042   0.467  11.264 -0.5759 -0.6106 -0.3297
10058TIP3   OH251588   0.004   2.884  14.138  0.5954 -0.3925  0.0126
10058TIP3    H151589   0.004   2.894  14.233  0.0633  0.4187 -0.0647
10058TIP3    H251590  -0.075   2.833  14.119  0.6072 -0.4001 -0.0157
10059TIP3   OH251591   2.157   3.417   0.907 -0.4326  0.0982  0.0454
10059TIP3    H151592   2.138   3.510   0.903  0.2907  0.2373 -0.3562
10059TIP3    H251593   2.129   3.390   0.994 -0.1889  0.7958  0.3476
10060TIP3   OH251594   0.006   2.877  16.083  0.0358  0.3383  0.1962
10060TIP3    H151595   0.042   2.791  16.102  0.5210  0.3621 -0.5685
10060TIP3    H251596  -0.061   2.862  16.016  0.4444  0.5982 -0.2828
10061TIP3   OH251597   2.457   0.509  17.531  0.3868  0.6036  0.2899
10061TIP3    H151598   2.500   0.462  17.460  0.1571  0.5876  0.1579
10061TIP3    H251599   2.468   0.601  17.509 -0.7371  0.5967 -0.4271
10062TIP3   OH251600   4.311   4.662  15.034 -0.1633  0.3268 -0.0210
10062TIP3    H151601   4.331   4.614  14.954 -0.1050  0.7250 -0.2459
10062TIP3    H251602   4.220   4.690  15.024 -0.0290  0.7284 -0.1288
10063TIP3   OH251603   2.861   2.282  16.675 -0.3067  0.1902  0.3185
10063TIP3    H151604   2.953   2.276  16.648 -0.4493 -0.1699 -0.1037
10063TIP3    H251605   2.861   2.347  16.745  0.1682  0.7271 -0.1659
10064TIP3   OH251606   3.076   1.317   6.179 -0.2176 -0.3268 -0.2358
10064TIP3    H151607   3.149   1.375   6.200 -0.2199  1.0460 -3.3716
10064TIP3    H251608   3.099   1.233   6.218  1.9473  0.6467  0.7262
10065TIP3   OH251609   6.693   3.577  14.143  0.0110 -0.0097 -0.2825
10065TIP3    H151610   6.635   3.642  14.183 -0.0476  0.0455 -0.4564
10065TIP3    H251611   6.747   3.628  14.082  3.2382  0.7293  2.8857
10066TIP3   OH251612   4.432   3.820  15.283  0.4187 -0.4171 -0.0554
10066TIP3    H151613   4.437   3.759  15.209 -2.1795  0.3013 -0.9403
10066TIP3    H251614   4.521   3.855  15.292  2.1474 -4.4391  0.7143
10067TIP3   OH251615   2.121   2.952  11.798 -0.1061  0.2898 -0.2677
10067TIP3    H151616   2.037   2.986  11.830 -0.9338 -1.7779 -0.0419
10067TIP3    H251617   2.175   2.945  11.877  0.0624  1.0131 -0.3120
10068TIP3   OH251618   4.953   6.039  14.047  0.2184  0.0218 -0.0621
10068TIP3    H151619   4.996   6.111  13.999 -0.9569  0.6170 -0.2617
10068TIP3    H251620   5.007   5.962  14.028  1.5975  0.8623  0.2792
10069TIP3   OH251621   4.442   2.236   2.413 -0.4823 -0.4012  0.1722
10069TIP3    H151622   4.425   2.222   2.320  0.6660 -0.4171 -0.0525
10069TIP3    H251623   4.432   2.330   2.426 -1.0734 -0.4555  0.1323
10070TIP3   OH251624   2.448   6.180  13.531 -0.0955  0.4765  0.4870
10070TIP3    H151625   2.381   6.138  13.476  1.7459 -0.9447 -0.8144
10070TIP3    H251626   2.448   6.128  13.611  0.5862 -0.6350 -0.2033
10071TIP3   OH251627   3.906   6.223  14.740 -0.2239  0.5988 -0.0201
10071TIP3    H151628   3.852   6.202  14.664  0.1664 -0.4435 -0.0356
10071TIP3    H251629   3.983   6.166  14.731 -1.4176 -1.6765  2.5449
10072TIP3   OH251630   5.078   3.257  12.856  0.3271  0.2429  0.0679
10072TIP3    H151631   5.085   3.272  12.950 -0.3179 -1.0171  0.3444
10072TIP3    H251632   5.167   3.239  12.827  0.2145 -2.1108  0.9755
10073TIP3   OH251633   0.598   3.383  17.391 -0.0257  0.4329  0.0173
10073TIP3    H151634   0.684   3.372  17.432 -0.1240  0.1720  0.1541
10073TIP3    H251635   0.553   3.300  17.407  0.4390 -0.2137 -1.8289
10074TIP3   OH251636   3.862   4.234   6.009 -0.3861  0.1080 -0.6956
10074TIP3    H151637   3.788   4.198   6.057  0.2470 -1.8967 -1.1657
10074TIP3    H251638   3.915   4.159   5.986 -0.2129  1.0795 -3.8489
10075TIP3   OH251639   2.874   0.816  17.513  0.4046  0.1025 -0.0304
10075TIP3    H151640   2.963   0.839  17.486  0.6210  0.2049  0.7629
10075TIP3    H251641   2.871   0.721  17.505  0.8375  0.0250  0.6890
10076TIP3   OH251642   3.806   2.130  14.620 -0.1186  0.1370 -0.3205
10076TIP3    H151643   3.865   2.187  14.573 -1.1613 -0.0367 -1.9270
10076TIP3    H251644   3.720   2.173  14.614 -0.3618 -0.0766  1.1259
10077TIP3   OH251645   4.667   2.808   2.247 -0.7836  0.6214 -0.3641
10077TIP3    H151646   4.596   2.749   2.274  0.3840 -0.2225  1.0218
10077TIP3    H251647   4.641   2.840   2.161 -2.6782  0.0825 -0.0206
10078TIP3   OH251648   3.377   3.291   4.554  0.5759 -0.0172 -0.5241
10078TIP3    H151649   3.402   3.283   4.645 -1.3733  0.2035  0.0908
10078TIP3    H251650   3.399   3.381   4.530 -0.0567  0.3252  0.1401
10079TIP3   OH251651   4.161   3.714   4.631  0.4268 -0.4463 -0.1955
10079TIP3    H151652   4.084   3.767   4.611  0.2852 -0.9975 -1.1827
10079TIP3    H251653   4.226   3.740   4.566  0.0735 -2.0482 -1.2603
10080TIP3   OH251654   2.313   1.955  15.597  0.1823  0.1494 -0.1172
10080TIP3    H151655   2.356   1.879  15.637  0.0481  1.2231  2.2342
10080TIP3    H251656   2.227   1.923  15.570 -0.6144 -0.2264  2.5201
10081TIP3   OH251657   4.154   1.979   2.756  0.2458  0.2529 -0.0488
10081TIP3    H151658   4.183   1.888   2.754 -0.8227 -0.1006 -0.2976
10081TIP3    H251659   4.148   2.000   2.850 -1.7421 -0.7067  0.0817
10082TIP3   OH251660   3.980   1.102   1.374  0.2579 -0.2189 -0.4227
10082TIP3    H151661   3.907   1.150   1.412  1.0056 -0.7661  1.9141
10082TIP3    H251662   3.945   1.014   1.358 -0.2637  0.2138 -1.7617
10083TIP3   OH251663   0.597   2.413  13.726 -0.2109 -0.5028  0.3037
10083TIP3    H151664   0.538   2.391  13.799 -1.9915  0.6889 -0.7078
10083TIP3    H251665   0.558   2.369  13.650  1.2103 -1.1272 -0.0809
10084TIP3   OH251666   0.722   4.910  12.242  0.6721 -0.1212 -0.9316
10084TIP3    H151667   0.727   4.885  12.149  2.1224  0.5758 -1.0802
10084TIP3    H251668   0.758   4.999  12.244  0.9906 -0.2586  0.3427
10085TIP3   OH251669   1.399   5.158   0.018 -0.1423  0.2442 -0.1152
10085TIP3    H151670   1.377   5.071   0.050  0.8606 -0.2873 -0.8044
10085TIP3    H251671   1.379   5.155  -0.076  1.3595  0.2046 -0.4715
10086TIP3   OH251672   3.070   4.729  13.397  0.2402  0.0810  0.1016
10086TIP3    H151673   3.147   4.747  13.450  0.1123 -1.0030  0.6895
10086TIP3    H251674   3.004   4.790  13.430  0.4082 -0.0183  0.6416
10087TIP3   OH251675   4.155   4.383  13.621 -0.3465  0.0625 -0.1803
10087TIP3    H151676   4.096   4.457  13.603  0.3999  0.4085 -1.3116
10087TIP3    H251677   4.219   4.385  13.549  0.6303 -0.7249  0.6354
10088TIP3   OH251678   4.854   2.551  11.740  0.1720 -0.5883  0.2049
10088TIP3    H151679   4.840   2.475  11.684  1.1590 -1.0426  0.5559
10088TIP3    H251680   4.921   2.523  11.803 -1.5814 -0.4471  2.2779
10089TIP3   OH251681   1.151   0.975  14.083  0.1680  0.1394 -0.3159
10089TIP3    H151682   1.174   0.884  14.060  0.8008  0.3042 -0.3669
10089TIP3    H251683   1.078   0.967  14.144  1.3602 -0.4969  1.0926
10090TIP3   OH251684   5.969   1.028  13.359 -0.2838  0.8383 -0.6121
10090TIP3    H151685   5.966   1.094  13.429  1.2058 -0.3034  0.5938
10090TIP3    H251686   5.896   0.969  13.379  0.7405 -0.0579  0.6197
10091TIP3   OH251687   2.451   6.214  11.193 -0.2540 -0.3415 -0.4495
10091TIP3    H151688   2.394   6.206  11.117 -1.7994 -0.4157  0.6646
10091TIP3    H251689   2.477   6.306  11.195 -1.9001  0.1500  0.0538
10092TIP3   OH251690   4.216   1.277  13.237  0.1611  0.1209 -0.6100
10092TIP3    H151691   4.164   1.323  13.303  1.3219 -0.0683  0.4948
10092TIP3    H251692   4.191   1.317  13.154 -2.4732 -0.6708 -0.2792
10093TIP3   OH251693   2.789   1.463  12.949 -0.0163 -0.2628 -0.4358
10093TIP3    H151694   2.848   1.488  13.020 -0.7976 -0.5731  0.3365
10093TIP3    H251695   2.839   1.480  12.870  0.9089 -0.0003  0.1872
10094TIP3   OH251696   6.397   3.540  14.273 -0.4518  0.8286 -0.2481
10094TIP3    H151697   6.399   3.477  14.200 -0.5062  0.4573  0.0679
10094TIP3    H251698   6.356   3.618  14.236 -0.3406  0.6963 -0.6582
10095TIP3   OH251699   0.633   4.748   1.750 -0.0757  0.0090 -0.0162
10095TIP3    H151700   0.623   4.702   1.666  0.7730  1.5576 -1.0067
10095TIP3    H251701   0.635   4.841   1.726 -0.0095  0.4906  1.7540
10096TIP3   OH251702   4.666   1.380  13.044  0.3237 -0.2546 -0.0979
10096TIP3    H151703   4.762   1.377  13.050  0.2683 -2.5198  0.7547
10096TIP3    H251704   4.637   1.309  13.101 -1.8401 -0.1768 -1.0261
10097TIP3   OH251705   0.443   5.084   4.388 -0.3531 -0.5364 -0.0530
10097TIP3    H151706   0.362   5.100   4.435  0.4853  0.4516  1.1047
10097TIP3    H251707   0.498   5.160   4.407  0.1891 -0.3055 -2.2896
10098TIP3   OH251708   0.520   0.946   5.071 -0.1623 -0.0016 -0.1812
10098TIP3    H151709   0.478   0.903   4.997  0.8188 -0.3683 -0.5390
10098TIP3    H251710   0.602   0.980   5.036 -0.8039  2.0350  0.1296
10099TIP3   OH251711   3.005   6.125  13.204 -0.7506  0.2814  0.0990
10099TIP3    H151712   2.914   6.118  13.174  0.6269 -1.3708 -4.3996
10099TIP3    H251713   3.031   6.035  13.223  0.3659  0.5766  0.0070
10100TIP3   OH251714   0.463   0.711   5.560 -0.1445 -0.1239 -0.0911
10100TIP3    H151715   0.406   0.714   5.483  1.0405 -0.0851 -1.0018
10100TIP3    H251716   0.492   0.802   5.571  0.9634 -0.3844 -0.6270
10101TIP3   OH251717   4.165   2.819   0.084 -0.0581  0.1289  0.0329
10101TIP3    H151718   4.128   2.889   0.030 -3.7938  0.9348  3.2042
10101TIP3    H251719   4.160   2.741   0.029 -0.0212  1.4981 -2.0302
10102TIP3   OH251720   4.109   4.150  16.326  0.0077  0.0051 -0.1374
10102TIP3    H151721   4.026   4.193  16.306 -1.9639 -3.0535  0.7103
10102TIP3    H251722   4.137   4.188  16.409 -0.2258  1.4151 -0.6722
10103TIP3   OH251723   5.967   1.306   1.045  0.1798 -0.0465 -0.0587
10103TIP3    H151724   5.990   1.339   0.958  2.3812  1.7063  1.0807
10103TIP3    H251725   5.911   1.374   1.082 -0.6443 -0.7276 -0.0320
10104TIP3   OH251726   6.181   0.821   4.918 -0.1727 -0.2916  0.1178
10104TIP3    H151727   6.128   0.873   4.858 -0.2479 -0.1066  0.3396
10104TIP3    H251728   6.272   0.842   4.897 -0.2144  0.5102  0.7049
10105TIP3   OH251729   4.072   4.216  17.201 -0.6055  0.3725  0.1320
10105TIP3    H151730   4.118   4.277  17.258  3.2153 -0.9177 -1.2842
10105TIP3    H251731   4.068   4.135  17.251 -0.2621  0.1587 -0.1824
10106TIP3   OH251732   2.794   0.380   3.074  0.3418 -0.2967  0.5162
10106TIP3    H151733   2.771   0.455   3.129  0.2392  0.3941 -0.4393
10106TIP3    H251734   2.858   0.331   3.126 -1.7177 -1.1737  2.4084
10107TIP3   OH251735   2.805   0.796   3.813 -0.3312 -0.1727 -0.0204
10107TIP3    H151736   2.724   0.756   3.842  0.3488  0.2661  2.7546
10107TIP3    H251737   2.870   0.768   3.877  1.3685  0.8253 -1.2233
10108TIP3   OH251738   6.035   4.405   5.090  0.4901  0.1298  0.1067
10108TIP3    H151739   6.019   4.311   5.078  1.9082 -0.2915  1.2692
10108TIP3    H251740   6.108   4.425   5.031  1.6478 -0.0166  1.4387
10109TIP3   OH251741   4.096   3.013   4.759 -0.1871 -0.2901  0.0059
10109TIP3    H151742   4.085   2.919   4.772  0.4756 -0.2140  1.3663
10109TIP3    H251743   4.189   3.028   4.775 -0.8230  1.0508  3.4686
10110TIP3   OH251744   0.907   3.924  14.927  0.1186  0.2430 -0.3354
10110TIP3    H151745   0.953   3.991  14.978  0.5201 -0.8398  0.7468
10110TIP3    H251746   0.816   3.929  14.958  0.0917  0.4480 -0.4412
10111TIP3   OH251747   4.080   4.963  12.318  0.2764 -0.1463  0.3177
10111TIP3    H151748   4.160   5.012  12.335  0.4690  0.5980 -2.2211
10111TIP3    H251749   4.011   5.029  12.322 -0.2419 -0.7399  2.2548
10112TIP3   OH251750   2.643   5.590   2.148 -0.0915  0.0970  0.8539
10112TIP3    H151751   2.555   5.621   2.125 -1.0644 -1.5703  2.1180
10112TIP3    H251752   2.677   5.555   2.065 -0.7531  0.4444  0.4180
10113TIP3   OH251753   6.656   4.061   4.532  0.0353  0.3701  0.4621
10113TIP3    H151754   6.615   4.012   4.460  1.9563 -0.5094 -0.0785
10113TIP3    H251755   6.587   4.121   4.562 -2.2812 -2.2292  0.7919
10114TIP3   OH251756   0.544   6.427  14.794 -0.1779  0.2869 -0.3244
10114TIP3    H151757   0.496   6.501  14.756 -0.2185  0.1139 -0.6074
10114TIP3    H251758   0.475   6.370  14.828 -0.1204  1.1338  1.3355
10115TIP3   OH251759   6.677   2.543  11.884 -0.1162  0.0480 -0.0318
10115TIP3    H151760   6.669   2.519  11.976 -0.3496  0.6004  0.0954
10115TIP3    H251761   6.664   2.461  11.837  2.3512 -0.7282  0.4934
10116TIP3   OH251762   1.165   4.889   6.389  1.0073 -0.6158  0.0296
10116TIP3    H151763   1.208   4.971   6.413  0.0678  0.2162 -1.0274
10116TIP3    H251764   1.073   4.903   6.412  0.4658 -0.5741 -1.9795
10117TIP3   OH251765   2.096   6.542  13.215  0.0716  0.4753  0.1024
10117TIP3    H151766   2.175   6.573  13.171  0.4611 -0.9501 -0.2524
10117TIP3    H251767   2.047   6.622  13.236  2.0044  1.4725  1.1213
10118TIP3   OH251768   0.155   1.725  16.421 -0.2626  0.3571  0.2395
10118TIP3    H151769   0.121   1.771  16.498 -0.8041  0.9620 -0.3519
10118TIP3    H251770   0.100   1.647  16.414 -0.7986  0.7552 -0.0476
10119TIP3   OH251771   3.484   4.709   4.957 -0.6428 -0.3210  0.3201
10119TIP3    H151772   3.454   4.648   5.024  0.5974 -2.3969 -0.9365
10119TIP3    H251773   3.572   4.681   4.935 -0.1237  1.7548 -0.5520
10120TIP3   OH251774   6.378   6.420  13.184  0.5985  0.2696 -0.6032
10120TIP3    H151775   6.370   6.343  13.128 -1.1937 -1.3166  1.6533
10120TIP3    H251776   6.451   6.400  13.243 -0.5445 -0.2188  0.6800
10121TIP3   OH251777   2.917   5.870   4.549 -0.4833 -0.0108 -0.1015
10121TIP3    H151778   3.009   5.856   4.526 -0.4387 -1.1580  0.7126
10121TIP3    H251779   2.869   5.835   4.474 -0.2820 -1.1228  0.2734
10122TIP3   OH251780   1.783   0.652  11.738 -0.1648  0.4994 -0.7862
10122TIP3    H151781   1.808   0.561  11.726 -0.0770  0.5217 -0.7772
10122TIP3    H251782   1.855   0.690  11.788 -1.2199  0.0324  1.1976
10123TIP3   OH251783   0.547   3.242   0.083  0.2244 -0.1007 -0.6010
10123TIP3    H151784   0.498   3.170   0.044  0.1719 -2.3271  3.1529
10123TIP3    H251785   0.518   3.320   0.035 -3.7749 -1.8425 -1.3562
10124TIP3   OH251786   4.458   0.089  13.441  0.1662 -0.0154  0.2402
10124TIP3    H151787   4.453  -0.007  13.442  3.3195 -0.2961  1.5852
10124TIP3    H251788   4.387   0.116  13.382  0.4112 -3.2506 -1.7956
10125TIP3   OH251789   4.575   5.314  16.351  0.7172  0.0726  0.5264
10125TIP3    H151790   4.538   5.312  16.263 -0.2964  0.7154  0.9227
10125TIP3    H251791   4.594   5.222  16.371 -0.1420 -0.2104  0.0859
10126TIP3   OH251792   3.998   0.139   0.786  0.0773  0.2676  0.0798
10126TIP3    H151793   3.950   0.098   0.858 -0.1876  2.8230  1.4847
10126TIP3    H251794   3.932   0.155   0.719  0.4760 -2.9269 -1.2936
10127TIP3   OH251795   4.032   0.804   6.021 -0.2407  0.4729 -1.1392
10127TIP3    H151796   4.042   0.896   6.046 -2.5543  0.9581 -1.7469
10127TIP3    H251797   3.991   0.808   5.934 -1.6856 -1.1185 -0.5732
10128TIP3   OH251798   5.156   4.836  17.331 -0.0799  0.3532  0.8431
10128TIP3    H151799   5.247   4.838  17.301 -0.1659 -0.5058  0.5036
10128TIP3    H251800   5.104   4.861  17.254 -0.3163 -2.0755  0.1430
10129TIP3   OH251801   1.924   5.286   4.215 -0.6366  0.4352 -0.1365
10129TIP3    H151802   1.959   5.212   4.265  0.9078  0.7477 -0.6955
10129TIP3    H251803   2.001   5.324   4.172 -1.6954  1.1117 -1.5046
10130TIP3   OH251804   1.953   2.911   5.295 -0.5039 -0.6436  0.4302
10130TIP3    H151805   1.911   2.889   5.379  1.8709  0.0536  1.9090
10130TIP3    H251806   1.963   3.006   5.297  0.4466 -0.7142 -0.1762
10131TIP3   OH251807   6.306   4.517  12.186  0.4660 -0.5201  0.1807
10131TIP3    H151808   6.370   4.576  12.227 -0.4421  0.9907 -0.5151
10131TIP3    H251809   6.310   4.537  12.093 -1.5332  0.1858  0.1886
10132TIP3   OH251810   4.616   3.385   3.391 -0.4539  0.1331  0.1164
10132TIP3    H151811   4.527   3.400   3.423  0.2237  0.3952  1.9924
10132TIP3    H251812   4.667   3.457   3.426  0.6059 -0.2874 -0.5099
10133TIP3   OH251813   2.344   2.177   3.302 -0.1797 -0.1591  0.4404
10133TIP3    H151814   2.401   2.249   3.273 -1.0473  0.2674 -0.2784
10133TIP3    H251815   2.284   2.219   3.363 -1.1461 -0.0891 -0.5228
10134TIP3   OH251816   2.795   3.814   0.348 -0.2252 -0.3444 -0.4138
10134TIP3    H151817   2.726   3.827   0.283 -0.9325 -1.3248  0.1174
10134TIP3    H251818   2.845   3.896   0.348 -1.6658  0.5512 -0.4788
10135TIP3   OH251819   2.877   6.388  16.031  0.5170  0.1137  0.1520
10135TIP3    H151820   2.896   6.418  15.942  2.1712 -3.1089 -0.7457
10135TIP3    H251821   2.820   6.313  16.020  0.8004 -0.3993  1.7977
10136TIP3   OH251822   0.234   2.886  12.809  0.5850 -0.4887  0.1560
10136TIP3    H151823   0.248   2.808  12.863 -1.8099 -0.7154  0.5767
10136TIP3    H251824   0.187   2.947  12.867  0.3187  0.3302 -0.8813
10137TIP3   OH251825   6.297   4.421  14.722 -0.0610 -0.0885 -0.3871
10137TIP3    H151826   6.312   4.479  14.648 -1.0267  0.5009 -0.1450
10137TIP3    H251827   6.283   4.480  14.796 -1.2707 -0.5991 -0.1734
10138TIP3   OH251828   5.670   4.707   2.720 -0.3357  0.4339 -0.2859
10138TIP3    H151829   5.753   4.753   2.717 -0.3237  0.4472  0.1120
10138TIP3    H251830   5.607   4.774   2.749 -0.6716  0.6751 -1.5103
10139TIP3   OH251831   6.703   1.317   0.444 -0.3234  0.1562  0.5076
10139TIP3    H151832   6.767   1.339   0.512 -1.8668 -1.2462  2.5316
10139TIP3    H251833   6.635   1.383   0.453 -0.3995  0.1395  0.0880
10140TIP3   OH251834   1.585   5.297   0.339 -0.0061  0.5786 -0.6425
10140TIP3    H151835   1.506   5.351   0.333 -0.1600  0.5843  1.0569
10140TIP3    H251836   1.631   5.329   0.417  0.8535 -0.5098 -0.6704
10141TIP3   OH251837   2.792   0.665   2.819 -0.0757 -0.0058  0.5134
10141TIP3    H151838   2.880   0.650   2.853 -0.1784 -1.3079  0.2439
10141TIP3    H251839   2.805   0.710   2.736  0.3321 -0.1645  0.4903
10142TIP3   OH251840   1.905   6.255   3.969  0.2513 -0.2571  0.0499
10142TIP3    H151841   1.872   6.325   4.024  0.2826 -1.2703  1.4277
10142TIP3    H251842   1.971   6.212   4.023  2.5252  0.5514 -1.9147
10143TIP3   OH251843   5.304   4.224   6.121 -0.1367 -0.3310  1.2618
10143TIP3    H151844   5.337   4.280   6.191  0.6634  0.4664  0.2724
10143TIP3    H251845   5.220   4.262   6.096  0.4350  0.4817  0.5485
10144TIP3   OH251846   1.140   0.244   1.748 -0.2677  0.8997 -0.3197
10144TIP3    H151847   1.110   0.259   1.837 -0.6912  0.5462 -0.3999
10144TIP3    H251848   1.077   0.291   1.693  0.4208  1.7464 -0.4025
10145TIP3   OH251849   3.708   3.689   2.658 -0.3692 -0.0158  0.7785
10145TIP3    H151850   3.737   3.669   2.748 -1.2460 -2.0803  0.6617
10145TIP3    H251851   3.637   3.627   2.642 -2.1095  2.1473 -0.4028
10146TIP3   OH251852   0.501   0.991   5.573 -0.1363 -0.4471 -0.7953
10146TIP3    H151853   0.496   1.037   5.489  0.5060 -1.0571 -1.1825
10146TIP3    H251854   0.425   1.022   5.622  0.5999  1.5140 -0.7762
10147TIP3   OH251855   0.004   0.143  12.926  0.6725 -0.1124  0.2718
10147TIP3    H151856  -0.022   0.110  13.012  1.4289 -2.8438 -0.4534
10147TIP3    H251857  -0.069   0.198  12.898  0.0137  0.1053  2.2529
10148TIP3   OH251858   1.547   5.994   1.770  0.6544  0.0855 -0.0613
10148TIP3    H151859   1.461   6.012   1.808 -1.6202 -1.1477 -4.0420
10148TIP3    H251860   1.596   6.076   1.780 -2.5870  2.3658 -1.3187
10149TIP3   OH251861   4.188   5.074  11.711 -0.7761 -0.1124  0.0596
10149TIP3    H151862   4.200   4.996  11.657  0.2953  0.2970 -0.3199
10149TIP3    H251863   4.103   5.061  11.755 -1.4272 -0.6834 -1.3206
10150TIP3   OH251864   2.621   2.556   2.720  0.2766  0.4829  0.2723
10150TIP3    H151865   2.657   2.609   2.791  2.5103 -0.4861 -0.0404
10150TIP3    H251866   2.561   2.495   2.763  0.8794  0.5299  1.2115
10151TIP3   OH251867   5.555   1.401   2.556 -0.1159 -0.3413 -0.5852
10151TIP3    H151868   5.633   1.425   2.506  1.1010 -1.1156  0.8783
10151TIP3    H251869   5.538   1.310   2.533 -0.0718 -0.4351 -0.2575
10152TIP3   OH251870   0.467   5.230  15.121 -0.4295  0.4348  0.1762
10152TIP3    H151871   0.414   5.174  15.065  0.8842 -1.2782  0.5359
10152TIP3    H251872   0.517   5.285  15.061  0.7005 -1.1281 -0.4004
10153TIP3   OH251873   2.607   3.755   2.338 -0.4201 -0.3199 -0.4456
10153TIP3    H151874   2.620   3.681   2.279  2.3180 -0.2996 -0.0046
10153TIP3    H251875   2.696   3.782   2.362 -1.3769  0.6088  2.5050
10154TIP3   OH251876   2.335   6.680  14.353  0.5334  0.3996  0.3167
10154TIP3    H151877   2.272   6.751  14.342 -0.6406 -0.6660 -0.1190
10154TIP3    H251878   2.292   6.619  14.412  1.7131  0.2538  1.0428
10155TIP3   OH251879   5.465   0.252   5.568  0.0368 -0.0430  0.4205
10155TIP3    H151880   5.508   0.222   5.488  1.2202 -0.7237  1.2870
10155TIP3    H251881   5.465   0.347   5.562  0.2651 -0.0865 -0.3072
10156TIP3   OH251882   5.415   2.200  14.147  0.1098  0.6607 -0.0449
10156TIP3    H151883   5.407   2.293  14.164  2.1633  0.9978 -0.6362
10156TIP3    H251884   5.508   2.186  14.131 -0.2947 -1.3137 -1.0404
10157TIP3   OH251885   2.843   5.695  16.989  0.2016  0.0319  0.2547
10157TIP3    H151886   2.798   5.661  16.912  2.0738 -0.2006 -0.7810
10157TIP3    H251887   2.889   5.773  16.957  0.1290  0.5687  1.4087
10158TIP3   OH251888   1.961   0.689   4.600  0.3020  0.4031 -0.1427
10158TIP3    H151889   2.005   0.608   4.624 -0.5155 -0.0107  0.0078
10158TIP3    H251890   2.024   0.736   4.546  1.1156  0.0759  0.5134
10159TIP3   OH251891   4.074   0.679  15.653 -0.1556 -0.0110 -0.4965
10159TIP3    H151892   4.114   0.756  15.693 -0.1555 -0.8104  1.1360
10159TIP3    H251893   4.036   0.711  15.572  1.7960  1.2346 -0.9828
10160TIP3   OH251894   6.078   1.154  14.084  0.4586  0.2508 -0.7212
10160TIP3    H151895   6.067   1.063  14.111 -0.6970  0.3437 -0.8185
10160TIP3    H251896   6.152   1.185  14.136 -1.0341  0.1232  1.6633
10161TIP3   OH251897   5.493   2.852   3.776 -0.1131  0.2469  0.3784
10161TIP3    H151898   5.457   2.766   3.756 -0.7546  1.0910 -2.6414
10161TIP3    H251899   5.581   2.835   3.810 -0.4933 -1.5765  0.5302
10162TIP3   OH251900   0.768   0.460   1.897 -0.0796 -0.2722 -0.1346
10162TIP3    H151901   0.677   0.431   1.892 -0.0617 -1.2473  2.8825
10162TIP3    H251902   0.819   0.379   1.898  0.6783  0.1956 -0.1014
10163TIP3   OH251903   5.149   3.069   5.023 -0.0282  0.0847 -0.0115
10163TIP3    H151904   5.174   2.997   5.082 -0.3337 -0.5801 -0.6732
10163TIP3    H251905   5.231   3.114   5.003  0.0346  0.5498  1.2030
10164TIP3   OH251906   4.683   1.507  15.573  0.0772 -0.0791 -0.4252
10164TIP3    H151907   4.671   1.473  15.662  1.6384  2.1622  0.7692
10164TIP3    H251908   4.769   1.475  15.546  0.3762  0.6463 -0.3748
10165TIP3   OH251909   5.312   6.119   3.035  0.3693 -0.1311 -0.0536
10165TIP3    H151910   5.394   6.166   3.053  0.1758  0.3385 -0.3787
10165TIP3    H251911   5.327   6.075   2.952  0.2494  0.0589 -0.1769
10166TIP3   OH251912   4.548   4.851  14.472  0.0569  0.3627  0.3237
10166TIP3    H151913   4.520   4.940  14.492 -2.1697  0.2101 -1.6952
10166TIP3    H251914   4.482   4.796  14.515  0.2573 -0.2298 -0.1221
10167TIP3   OH251915   5.262   6.492   0.348 -0.0047 -0.0227 -0.0049
10167TIP3    H151916   5.264   6.498   0.253 -0.4535  0.4322  0.0096
10167TIP3    H251917   5.202   6.420   0.367  0.6109 -0.5640 -0.0722
10168TIP3   OH251918   0.034   3.180  14.896  0.3384 -0.1496  0.2178
10168TIP3    H151919   0.069   3.180  14.985  0.3232  1.0997  0.2472
10168TIP3    H251920  -0.010   3.096  14.887  2.6242 -1.4605  0.4555
10169TIP3   OH251921   4.407   2.969   0.040 -0.1806 -0.5997  0.5358
10169TIP3    H151922   4.395   3.031  -0.032 -0.4501 -1.4981 -0.2147
10169TIP3    H251923   4.319   2.939   0.061  0.0742 -2.2325 -0.5023
10170TIP3   OH251924   5.837   5.080   3.565  0.3057 -0.2408  0.4892
10170TIP3    H151925   5.887   5.031   3.500  0.9148  0.1715  0.6390
10170TIP3    H251926   5.900   5.097   3.635  1.2045  3.8209 -1.0306
10171TIP3   OH251927   4.957   5.349   4.215  0.0429 -0.2668  0.0781
10171TIP3    H151928   5.032   5.337   4.158  0.9907 -1.0389  1.4327
10171TIP3    H251929   4.923   5.260   4.229  0.3081 -0.1887  1.3193
10172TIP3   OH251930   4.332   1.188   3.443 -0.6595 -0.2721  0.6741
10172TIP3    H151931   4.261   1.205   3.381  0.6268 -0.7453 -0.9791
10172TIP3    H251932   4.360   1.099   3.423 -1.9609 -1.5223  3.7880
10173TIP3   OH251933   1.165   2.838   3.238 -0.1531 -0.3816  0.1519
10173TIP3    H151934   1.182   2.931   3.246  0.0641 -0.3379 -0.7616
10173TIP3    H251935   1.194   2.801   3.321  2.0386  0.0447 -0.3727
10174TIP3   OH251936   1.373   6.633   3.117  0.5059 -0.1331 -0.1797
10174TIP3    H151937   1.422   6.654   3.037  0.6566  1.7705  0.3503
10174TIP3    H251938   1.429   6.664   3.188 -0.0100 -1.0012  0.6325
10175TIP3   OH251939   0.228   4.649  16.293 -0.1133  0.7251  0.3165
10175TIP3    H151940   0.300   4.700  16.330  1.5186 -1.0002 -0.2622
10175TIP3    H251941   0.261   4.621  16.207 -0.8033 -1.4389  0.6921
10176TIP3   OH251942   3.117   6.129   1.191  0.3631 -0.2254  0.3748
10176TIP3    H151943   3.044   6.069   1.205  0.3578  0.1219  2.0074
10176TIP3    H251944   3.091   6.181   1.115 -0.2669 -1.3067 -0.1762
10177TIP3   OH251945   2.367   4.753  15.481  0.1095  0.2922  0.5993
10177TIP3    H151946   2.338   4.661  15.477  0.2484  0.2619  0.2588
10177TIP3    H251947   2.375   4.771  15.575 -0.0362 -0.0081  0.6729
10178TIP3   OH251948   2.816   4.697   6.708 -0.1884  0.4571 -0.0103
10178TIP3    H151949   2.818   4.793   6.700 -1.2126  0.3921 -1.8143
10178TIP3    H251950   2.856   4.666   6.626 -0.4989 -0.6417  0.2427
10179TIP3   OH251951   5.826   3.031   0.142  0.5250 -0.0846  0.2387
10179TIP3    H151952   5.815   3.110   0.195 -0.5878  1.0407 -1.5805
10179TIP3    H251953   5.770   2.966   0.185 -0.5977  0.8902  0.2942
10180TIP3   OH251954   5.738   0.069  11.438 -0.2454 -0.3923 -0.7010
10180TIP3    H151955   5.792   0.001  11.480 -0.5490 -1.2494 -1.6616
10180TIP3    H251956   5.764   0.066  11.346 -1.8857 -0.7897 -1.1816
10181TIP3   OH251957   1.315   5.033  13.655 -0.0041 -1.1113 -0.1267
10181TIP3    H151958   1.359   5.117  13.651 -1.7688 -0.1127  0.3231
10181TIP3    H251959   1.355   4.981  13.585  0.3154  0.4843 -1.1631
10182TIP3   OH251960   0.566   3.931   2.234 -0.0301  0.3489 -0.3610
10182TIP3    H151961   0.613   3.961   2.312  0.2307  0.4836 -0.5684
10182TIP3    H251962   0.604   3.845   2.215 -1.2039 -0.4257  0.5977
10183TIP3   OH251963   3.371   6.417   4.498 -0.5246  0.3546  0.2364
10183TIP3    H151964   3.464   6.425   4.475 -1.1455  0.7007 -2.5661
10183TIP3    H251965   3.365   6.335   4.545  0.8820 -1.0810 -1.8791
10184TIP3   OH251966   2.632   3.673  17.389  0.4399  0.6892  0.5876
10184TIP3    H151967   2.604   3.581  17.382 -0.0286  0.7742  1.2892
10184TIP3    H251968   2.568   3.721  17.336  1.9351  0.4096 -1.6262
10185TIP3   OH251969   1.167   5.050   0.480 -0.4681  0.9806 -0.3682
10185TIP3    H151970   1.228   5.119   0.454  0.8996 -0.8885 -2.5290
10185TIP3    H251971   1.108   5.040   0.406 -1.6090  0.7947  0.5330
10186TIP3   OH251972   5.536   3.038   5.225  0.2584  0.1508 -0.2021
10186TIP3    H151973   5.565   2.985   5.299  3.0380 -0.2775 -1.4607
10186TIP3    H251974   5.530   2.977   5.152  0.1166  0.9893 -0.9113
10187TIP3   OH251975   2.804   0.686  16.921 -0.4275  0.4904  0.2214
10187TIP3    H151976   2.817   0.698  17.015 -1.3892 -2.7435  0.8857
10187TIP3    H251977   2.860   0.612  16.898 -2.6679 -0.9241 -1.0106
10188TIP3   OH251978   4.787   0.109  15.559 -0.9775 -0.4235 -0.1160
10188TIP3    H151979   4.814   0.188  15.605 -1.5304 -1.1440  1.5337
10188TIP3    H251980   4.784   0.134  15.467  3.6400  0.1583 -0.3319
10189TIP3   OH251981   3.048   0.492  14.431  0.2358 -0.0216  0.1529
10189TIP3    H151982   3.032   0.400  14.450 -0.1072  0.3294  1.7203
10189TIP3    H251983   3.042   0.499  14.335 -0.0688 -1.5481  0.0473
10190TIP3   OH251984   0.353   4.809  14.918 -0.0204 -0.0986 -0.1792
10190TIP3    H151985   0.436   4.773  14.950 -0.9037 -1.8045  0.2781
10190TIP3    H251986   0.379   4.874  14.852  1.7660  1.4405  1.8660
10191TIP3   OH251987   0.577   4.122  13.828  0.2605  0.2354 -0.2008
10191TIP3    H151988   0.530   4.120  13.745 -0.1431 -3.0905 -0.0077
10191TIP3    H251989   0.531   4.189  13.879 -0.7987  0.8838 -1.9055
10192TIP3   OH251990   4.050   5.206  17.484  0.0149  0.1163  0.2455
10192TIP3    H151991   4.142   5.181  17.490 -0.2353 -0.8517  0.2959
10192TIP3    H251992   4.040   5.242  17.396  0.1415 -1.1292 -0.3059
10193TIP3   OH251993   3.135   5.680  14.733 -0.2234  0.4818  0.0429
10193TIP3    H151994   3.048   5.658  14.767 -0.0124 -0.3103  0.1039
10193TIP3    H251995   3.175   5.732  14.803  0.2499 -1.2373  1.1090
10194TIP3   OH251996   1.016   1.105  12.327  0.0605 -0.0458  0.0501
10194TIP3    H151997   1.071   1.051  12.271  0.8021 -0.2460  0.9510
10194TIP3    H251998   1.036   1.077  12.416 -0.1277  1.1538  0.4967
10195TIP3   OH251999   3.906   4.576  11.639  0.2909  0.6323  0.0776
10195TIP3    H152000   3.940   4.490  11.663  2.7582  1.5286  0.0950
10195TIP3    H252001   3.838   4.558  11.574  2.3020 -1.2468 -1.6419
10196TIP3   OH252002   3.658   1.626   1.938 -0.0855 -0.4227 -0.8805
10196TIP3    H152003   3.753   1.639   1.927 -0.2082  0.8711 -0.6353
10196TIP3    H252004   3.650   1.566   2.012  0.5430 -0.4678 -0.8426
10197TIP3   OH252005   4.297   3.570   6.204  1.3725  0.3243  0.7100
10197TIP3    H152006   4.276   3.479   6.184 -0.6737  0.8129  0.4123
10197TIP3    H252007   4.331   3.567   6.294  2.4670 -0.8527  0.2794
10198TIP3   OH252008   2.258   4.402   2.273  0.1222 -0.4147  0.1316
10198TIP3    H152009   2.204   4.333   2.234  0.3898 -0.3959 -0.2797
10198TIP3    H252010   2.340   4.399   2.223  0.0179  0.4043 -0.0871
10199TIP3   OH252011   2.242   5.855   4.813 -0.0873  0.6385 -0.6775
10199TIP3    H152012   2.299   5.816   4.879  0.6906  1.5533 -0.8011
10199TIP3    H252013   2.236   5.788   4.745 -0.2063  0.0306 -0.0814
10200TIP3   OH252014   2.906   2.775   3.754  0.2741 -0.2867 -0.0192
10200TIP3    H152015   2.828   2.825   3.728  0.0599 -0.8165 -0.4035
10200TIP3    H252016   2.902   2.773   3.849 -0.3983 -0.6463 -0.0492
10201TIP3   OH252017   2.623   5.632   0.592  0.3203 -0.1451  0.1376
10201TIP3    H152018   2.570   5.695   0.544  2.7041  1.8597 -0.0866
10201TIP3    H252019   2.696   5.612   0.532  0.2166 -2.2898  0.6492
10202TIP3   OH252020   1.121   4.910  12.693 -0.0614 -0.3461  0.2410
10202TIP3    H152021   1.132   4.988  12.747 -2.2192 -0.6562  1.2257
10202TIP3    H252022   1.206   4.899  12.649 -0.0975  3.3720 -1.0986
10203TIP3   OH252023   2.814   1.432   3.337  0.0910  0.1653  0.4388
10203TIP3    H152024   2.824   1.500   3.404 -0.6976  0.5610  0.1582
10203TIP3    H252025   2.721   1.414   3.334  0.0445  0.5128 -0.9046
10204TIP3   OH252026   5.225   1.282  12.595  0.4109  0.0363  0.0479
10204TIP3    H152027   5.259   1.194  12.612 -0.1217 -0.2300 -0.2214
10204TIP3    H252028   5.291   1.341  12.631  0.4360 -0.4797  0.8662
10205TIP3   OH252029   0.100   4.482   0.909  0.3645  0.4919 -0.6157
10205TIP3    H152030   0.051   4.473   0.990  2.8263  0.6650  0.9946
10205TIP3    H252031   0.145   4.399   0.899 -0.0507  0.4070 -1.9360
10206TIP3   OH252032   5.252   4.936   0.759  0.5729 -0.2092  0.2678
10206TIP3    H152033   5.162   4.907   0.777  0.4986  0.4287  0.9464
10206TIP3    H252034   5.298   4.925   0.841  0.0085  3.5306  1.2653
10207TIP3   OH252035   2.514   0.226   3.575  0.0082  0.1012 -0.2789
10207TIP3    H152036   2.430   0.201   3.536 -1.7493  4.6153  0.0433
10207TIP3    H252037   2.560   0.272   3.504  1.1818 -0.1994  0.2595
10208TIP3   OH252038   0.716   1.302   6.574  0.2227  0.3549  0.6866
10208TIP3    H152039   0.797   1.279   6.527  1.1100  2.3026  1.1660
10208TIP3    H252040   0.737   1.284   6.666 -0.6945 -1.2130  0.6224
10209TIP3   OH252041   6.302   0.821   2.305 -0.4530  0.1576  0.3004
10209TIP3    H152042   6.270   0.757   2.369  0.9184  0.9337  1.8661
10209TIP3    H252043   6.241   0.816   2.232 -0.1342 -3.2598  0.1195
10210TIP3   OH252044   3.608   5.916  14.985  0.5808 -0.5590 -0.6907
10210TIP3    H152045   3.591   5.939  15.077 -0.6303  0.4052 -1.1224
10210TIP3    H252046   3.622   5.822  14.986 -1.0733 -0.8323  0.2835
10211TIP3   OH252047   1.754   0.905  15.303 -0.7267 -0.6750  0.0575
10211TIP3    H152048   1.708   0.822  15.288 -0.4683 -0.7572 -0.2988
10211TIP3    H252049   1.840   0.879  15.336 -1.0140 -0.5153  0.9645
10212TIP3   OH252050   6.215   1.354  15.437 -0.7062  0.3763  0.6681
10212TIP3    H152051   6.124   1.337  15.462 -0.3049 -2.2442  0.6035
10212TIP3    H252052   6.219   1.332  15.344  0.3080 -1.2539  1.0486
10213TIP3   OH252053   1.271   2.889   1.573  0.1408 -0.4176 -0.1987
10213TIP3    H152054   1.289   2.848   1.658  2.7049  0.4537 -0.2351
10213TIP3    H252055   1.284   2.818   1.510  1.4296 -0.3301 -0.0534
10214TIP3   OH252056   4.302   3.656  16.080  0.1487  0.2770  0.1343
10214TIP3    H152057   4.311   3.707  16.000  1.8873  0.2051  0.2296
10214TIP3    H252058   4.210   3.663  16.104 -0.9017 -1.3053 -2.8939
10215TIP3   OH252059   0.767   0.738  12.159 -0.1022  0.1995 -0.3828
10215TIP3    H152060   0.758   0.818  12.210  0.1232  0.0060 -0.0385
10215TIP3    H252061   0.850   0.747  12.113 -0.5207  0.5787 -1.0872
10216TIP3   OH252062   5.602   2.592   4.841 -0.2943  0.2489  0.3534
10216TIP3    H152063   5.528   2.571   4.897 -0.5330 -0.0167 -0.0598
10216TIP3    H252064   5.671   2.530   4.867 -1.1347 -1.4205 -1.1649
10217TIP3   OH252065   4.682   2.000  12.798 -0.1647 -0.5289 -0.6189
10217TIP3    H152066   4.675   1.912  12.762 -0.5237  0.4300 -3.0783
10217TIP3    H252067   4.766   2.001  12.843  0.1602 -1.9187 -1.1539
10218TIP3   OH252068   2.095   5.898   2.140 -0.2972 -0.1793  0.2452
10218TIP3    H152069   2.017   5.907   2.195  0.4340 -1.7077  1.6244
10218TIP3    H252070   2.144   5.826   2.179  1.9255  0.8455 -0.4397
10219TIP3   OH252071   2.325   4.159  11.828 -0.4372  0.0745  0.0744
10219TIP3    H152072   2.385   4.175  11.901 -0.7194  1.2713  0.0531
10219TIP3    H252073   2.379   4.170  11.750 -0.4075 -0.0650  0.0737
10220TIP3   OH252074   3.290   2.080  16.979  0.1876  0.6217 -0.0199
10220TIP3    H152075   3.350   2.155  16.987  2.1915 -1.0306  1.3804
10220TIP3    H252076   3.274   2.072  16.885  0.7375  2.1801 -0.2782
10221TIP3   OH252077   2.563   5.044  16.592 -0.3424  0.1964 -0.2281
10221TIP3    H152078   2.612   4.962  16.581 -0.5659  0.3270 -2.6510
10221TIP3    H252079   2.576   5.067  16.684 -1.9993 -3.6318  1.1609
10222TIP3   OH252080   4.505   1.652   4.106  0.4888  0.0706  0.3388
10222TIP3    H152081   4.414   1.625   4.103  0.6660 -0.5949  0.7966
10222TIP3    H252082   4.505   1.732   4.159  0.0390  0.6895 -0.5659
10223TIP3   OH252083   0.157   5.814  15.705 -0.4734  0.1197 -0.6061
10223TIP3    H152084   0.113   5.753  15.646  1.6293 -1.7676 -0.3633
10223TIP3    H252085   0.190   5.883  15.646  1.2689 -1.5398 -1.7150
10224TIP3   OH252086   2.455   5.664   2.640  0.2930  0.3078 -0.0034
10224TIP3    H152087   2.388   5.733   2.635  1.5902  1.5661 -0.6758
10224TIP3    H252088   2.410   5.585   2.612 -1.1908  0.9028  0.5770
10225TIP3   OH252089   2.965   5.876   2.016 -0.2201  0.4877  0.4980
10225TIP3    H152090   2.886   5.919   2.050 -1.5823 -1.3753 -0.1344
10225TIP3    H252091   2.971   5.905   1.925  1.0506  2.2133  1.0738
10226TIP3   OH252092   3.887   2.202  12.929  0.2576  0.1649  0.3204
10226TIP3    H152093   3.934   2.144  12.870  0.1133 -0.3856  0.7393
10226TIP3    H252094   3.845   2.266  12.872 -0.1262 -0.5404 -0.1995
10227TIP3   OH252095   3.592   4.753  14.930 -0.1876  0.1135  0.0514
10227TIP3    H152096   3.582   4.830  14.986 -2.6196  0.0322 -0.1499
10227TIP3    H252097   3.662   4.703  14.971 -0.3292  1.1654  1.6873
10228TIP3   OH252098   5.564   5.254   5.811 -0.4095  0.6109 -0.2030
10228TIP3    H152099   5.651   5.215   5.823  0.4164  2.4303  0.0375
10228TIP3    H252100   5.518   5.232   5.892 -0.3305 -0.6890 -0.4842
10229TIP3   OH252101   0.998   5.422   6.381 -0.9940  0.4252  0.1802
10229TIP3    H152102   0.980   5.379   6.298  0.7222  0.0877 -0.0474
10229TIP3    H252103   1.038   5.354   6.435 -0.6880  1.0340  0.7408
10230TIP3   OH252104   3.719   0.400   0.023 -0.2978 -0.3624  0.3255
10230TIP3    H152105   3.787   0.436   0.080  0.9141 -1.4787 -0.3612
10230TIP3    H252106   3.709   0.309   0.052 -1.8849 -0.0898  0.7364
10231TIP3   OH252107   2.400   2.865  14.818  0.2957  0.5873  0.2740
10231TIP3    H152108   2.456   2.869  14.895  1.2983 -0.1047 -0.3880
10231TIP3    H252109   2.458   2.838  14.747 -0.9087 -0.3315 -0.4110
10232TIP3   OH252110   1.883   3.941  14.187 -0.7027  0.0192 -0.0257
10232TIP3    H152111   1.907   3.866  14.133  1.9497 -0.5531  1.7611
10232TIP3    H252112   1.945   4.010  14.161  0.2567 -0.0936  1.7468
10233TIP3   OH252113   5.181   2.506  14.715  0.2757  0.0333 -0.1964
10233TIP3    H152114   5.104   2.503  14.773  0.3093  0.6344 -0.1113
10233TIP3    H252115   5.241   2.441  14.752  1.0666  1.6645  1.5885
10234TIP3   OH252116   5.528   5.004  14.440  0.5279  0.2903 -0.6531
10234TIP3    H152117   5.475   5.047  14.373  0.6049 -0.4069 -1.1673
10234TIP3    H252118   5.498   4.913  14.440  1.7277 -0.1196 -0.9638
10235TIP3   OH252119   0.408   2.245   2.074  0.8961 -0.1836  0.5670
10235TIP3    H152120   0.364   2.294   2.004  0.4703  3.2902  2.9514
10235TIP3    H252121   0.338   2.226   2.136  1.8338  0.6462  1.9412
10236TIP3   OH252122   0.400   5.537  12.612  0.1387  0.2417  0.5773
10236TIP3    H152123   0.487   5.575  12.628  0.2424 -0.7085  2.4945
10236TIP3    H252124   0.340   5.612  12.619  0.7449  0.8753 -0.5822
10237TIP3   OH252125   5.373   0.655  11.860  0.7129  0.0928  0.4558
10237TIP3    H152126   5.287   0.676  11.823  0.4605 -2.1921 -0.4258
10237TIP3    H252127   5.435   0.704  11.805  0.0658  0.6675  0.2226
10238TIP3   OH252128   1.901   0.408   4.828  0.0159 -0.3729 -0.3750
10238TIP3    H152129   1.819   0.454   4.816 -0.1024 -0.4627  0.0636
10238TIP3    H252130   1.952   0.463   4.888 -0.3110 -1.0187  0.5288
10239TIP3   OH252131   6.466   4.455  16.427 -0.3298 -0.1607  0.3888
10239TIP3    H152132   6.557   4.484  16.430  0.3405 -2.1263  0.7354
10239TIP3    H252133   6.431   4.493  16.346  0.8206  0.5429  0.2080
10240TIP3   OH252134   5.586   4.950   5.999 -0.2791 -0.3011 -0.5427
10240TIP3    H152135   5.513   5.004   5.969  0.6479  0.4884 -1.4926
10240TIP3    H252136   5.589   4.963   6.094  0.2658  1.8188 -0.8050
10241TIP3   OH252137   6.240   1.627  15.660 -0.7216 -0.0493  0.4072
10241TIP3    H152138   6.292   1.581  15.594  1.0700  0.4480  1.4025
10241TIP3    H252139   6.265   1.718  15.651 -1.7821  0.2798  0.6285
10242TIP3   OH252140   1.712   2.817  17.181 -0.3700 -0.4724  0.2495
10242TIP3    H152141   1.691   2.854  17.267 -0.7184 -0.3305  0.1037
10242TIP3    H252142   1.696   2.723  17.190 -0.0533 -0.5082  0.4474
10243TIP3   OH252143   3.468   3.064   5.003 -0.2018  0.1586  0.1396
10243TIP3    H152144   3.470   2.977   5.042  0.3287  0.4262  0.7246
10243TIP3    H252145   3.403   3.112   5.055  1.0285  0.7368  1.2228
10244TIP3   OH252146   1.748   6.619   6.351 -0.2772  0.2702 -0.4421
10244TIP3    H152147   1.710   6.706   6.353  1.0156  1.0358 -3.4909
10244TIP3    H252148   1.712   6.578   6.273 -0.3364 -1.7139  0.5492
10245TIP3   OH252149   4.248   2.078  16.725 -0.1996 -0.2755 -0.1677
10245TIP3    H152150   4.208   2.121  16.650 -2.5268 -0.1064  1.0769
10245TIP3    H252151   4.325   2.033  16.689 -1.4498 -0.5462 -2.7105
10246TIP3   OH252152   0.997   3.722  14.517 -0.4588 -0.2864  0.2297
10246TIP3    H152153   0.913   3.699  14.477 -0.0530  0.7681 -1.3402
10246TIP3    H252154   1.037   3.638  14.541 -0.4386 -1.0577 -2.2572
10247TIP3   OH252155   1.405   6.500   6.296  0.0828  0.6177  0.1003
10247TIP3    H152156   1.347   6.574   6.311 -0.0019  1.0016 -1.7974
10247TIP3    H252157   1.417   6.460   6.382 -0.6502  2.2465  0.9993
10248TIP3   OH252158   0.947   5.498   3.156 -0.4282  0.4200 -0.5798
10248TIP3    H152159   0.966   5.505   3.250 -2.2873  1.6171 -0.2458
10248TIP3    H252160   0.880   5.429   3.151  0.5905 -0.5635 -1.2125
10249TIP3   OH252161   0.446   0.726  17.607 -0.2026  0.1896  0.0002
10249TIP3    H152162   0.383   0.790  17.573  1.4295  2.3956  0.8366
10249TIP3    H252163   0.531   0.757  17.573  0.5135 -2.7106 -1.1588
10250TIP3   OH252164   6.101   4.583   3.820  0.3786  0.3479  0.5101
10250TIP3    H152165   6.112   4.662   3.873  1.3756 -0.7128  1.9599
10250TIP3    H252166   6.011   4.556   3.835 -0.1196  1.4367 -0.3712
10251TIP3   OH252167   2.277   0.010   5.564  0.4453 -0.1582 -0.0269
10251TIP3    H152168   2.218  -0.066   5.562 -1.1244  1.0132 -1.6325
10251TIP3    H252169   2.343  -0.013   5.630 -1.1344 -2.0421  1.0293
10252TIP3   OH252170   1.261   1.383   2.913 -0.2870  0.1050 -0.0729
10252TIP3    H152171   1.216   1.465   2.934 -0.6976  0.5896 -2.6002
10252TIP3    H252172   1.191   1.320   2.896 -0.0896  0.4218 -2.3704
10253TIP3   OH252173   4.566   1.743   1.897 -0.0570 -0.7567 -0.4612
10253TIP3    H152174   4.481   1.731   1.940  0.3843 -0.5520  0.4788
10253TIP3    H252175   4.588   1.835   1.913  1.1954 -1.2689  0.8834
10254TIP3   OH252176   6.294   1.462  16.327 -0.9224  0.2175 -0.4204
10254TIP3    H152177   6.382   1.443  16.293 -0.6360  1.4970 -0.4703
10254TIP3    H252178   6.235   1.432  16.258 -0.5754 -1.1732 -0.1486
10255TIP3   OH252179   3.830   4.346  13.183  0.4139  0.2084 -0.8655
10255TIP3    H152180   3.898   4.330  13.117 -0.0344 -3.3010 -0.6861
10255TIP3    H252181   3.867   4.311  13.264 -0.9353 -0.1229 -0.3712
10256TIP3   OH252182   3.213   6.685  13.599  0.3093  0.6252  0.4596
10256TIP3    H152183   3.147   6.630  13.558 -0.8768  0.2811  2.6710
10256TIP3    H252184   3.275   6.705  13.529 -1.6037  0.1612 -1.4727
10257TIP3   OH252185   3.077   1.955   4.770 -0.3676  0.5279 -0.1577
10257TIP3    H152186   3.028   2.034   4.745 -1.4407  0.0199  0.2968
10257TIP3    H252187   3.014   1.884   4.761  0.6553 -0.3356 -0.7961
10258TIP3   OH252188   3.819   0.822  17.024  0.3365 -0.3562  0.0348
10258TIP3    H152189   3.903   0.799  16.985  0.5254  0.3806 -0.0239
10258TIP3    H252190   3.757   0.762  16.985  1.0072 -1.7074  0.9617
10259TIP3   OH252191   0.582   1.282   3.407 -0.0509 -0.0401  0.0061
10259TIP3    H152192   0.622   1.364   3.379 -0.8385  0.3243 -0.0941
10259TIP3    H252193   0.565   1.294   3.500 -0.2964 -0.0275 -0.0384
10260TIP3   OH252194   0.373   5.017  17.100 -0.9150  0.4853  0.1134
10260TIP3    H152195   0.468   5.027  17.089 -0.4029 -2.0692  1.3735
10260TIP3    H252196   0.340   5.004  17.011  0.2865 -0.7821 -0.1888
10261TIP3   OH252197   2.325   0.260   4.706  0.0903  0.1818  0.1163
10261TIP3    H152198   2.410   0.303   4.696  0.2888 -0.0951  0.5616
10261TIP3    H252199   2.283   0.270   4.621  0.7333 -0.0293 -0.2346
10262TIP3   OH252200   4.168   5.098  16.373  0.3474  0.0674  0.4277
10262TIP3    H152201   4.208   5.161  16.314  0.3687 -0.1291  0.2332
10262TIP3    H252202   4.221   5.019  16.364  0.1962 -0.0448  0.5154
10263TIP3   OH252203   5.236   3.600  15.385 -0.4430 -0.2544  0.3776
10263TIP3    H152204   5.256   3.554  15.304  2.0492  0.7789  0.3195
10263TIP3    H252205   5.210   3.532  15.446  0.1465 -1.3495 -0.5650
10264TIP3   OH252206   4.959   5.372  14.027  0.0906  0.8143  0.3601
10264TIP3    H152207   4.953   5.308  14.097  0.1473  1.6450  1.1455
10264TIP3    H252208   4.986   5.321  13.950 -1.1486 -0.3014  0.6327
10265TIP3   OH252209   4.698   6.396   0.953  0.1859 -0.7912 -0.1932
10265TIP3    H152210   4.608   6.365   0.951 -0.0420 -0.3379  1.4301
10265TIP3    H252211   4.751   6.319   0.934 -0.5244 -0.8210 -2.4229
10266TIP3   OH252212   6.440   6.107   3.525 -0.3815 -0.0840  0.3775
10266TIP3    H152213   6.535   6.110   3.534 -0.3182  0.3819 -0.3868
10266TIP3    H252214   6.426   6.083   3.433 -0.9872 -2.9735  1.1289
10267TIP3   OH252215   0.767   2.568  15.748  0.0886 -0.4158 -0.4015
10267TIP3    H152216   0.731   2.495  15.798  0.7906 -0.4175  0.1156
10267TIP3    H252217   0.834   2.529  15.692  0.3188 -0.2068 -0.2774
10268TIP3   OH252218   5.142   3.460  13.969  0.2708 -0.0825 -0.1794
10268TIP3    H152219   5.085   3.527  14.007 -0.0804 -0.9647  0.8871
10268TIP3    H252220   5.227   3.504  13.961 -0.0783  0.6528  0.0012
10269TIP3   OH252221   1.418   0.716   3.387 -0.6316  0.3894 -0.0991
10269TIP3    H152222   1.414   0.711   3.483 -2.5258 -0.3992 -0.1919
10269TIP3    H252223   1.508   0.690   3.366 -0.7284 -1.3183  1.3711
10270TIP3   OH252224   5.473   3.356  10.887 -0.2515  0.4817  0.2886
10270TIP3    H152225   5.543   3.298  10.857 -0.3820  0.9303 -0.9366
10270TIP3    H252226   5.512   3.443  10.890 -0.0541  0.3661  2.1391
10271TIP3   OH252227   3.186   5.810  12.307  0.8354  0.3818 -0.8078
10271TIP3    H152228   3.278   5.790  12.288  0.7901  0.3126 -0.9528
10271TIP3    H252229   3.188   5.901  12.336  1.4291 -0.6160  2.6403
10272TIP3   OH252230   3.612   2.317  14.427  0.4365 -0.9502 -0.4346
10272TIP3    H152231   3.573   2.383  14.369  2.0381  0.0808 -0.4154
10272TIP3    H252232   3.618   2.239  14.373 -4.0894 -2.1204  0.3445
10273TIP3   OH252233   3.552   3.417  12.065 -0.0300  0.1801 -0.3287
10273TIP3    H152234   3.516   3.439  12.151 -1.1752 -0.9793 -0.4822
10273TIP3    H252235   3.561   3.501  12.020 -0.4040  0.7021  0.5470
10274TIP3   OH252236   1.166   1.199   4.850  0.3446  0.6214  0.4165
10274TIP3    H152237   1.129   1.264   4.790 -1.8489 -2.4866 -1.9636
10274TIP3    H252238   1.243   1.165   4.804 -0.7790 -1.0850 -0.3196
10275TIP3   OH252239   6.401   0.175   2.342 -0.0446  0.0998  0.6493
10275TIP3    H152240   6.411   0.141   2.431  0.2349 -0.8843  0.2588
10275TIP3    H252241   6.438   0.106   2.287 -2.0371 -0.2077 -0.3592
10276TIP3   OH252242   4.840   6.506  14.550  0.8924 -0.6877 -0.2469
10276TIP3    H152243   4.906   6.439  14.535 -0.5290 -2.4345  0.9020
10276TIP3    H252244   4.799   6.519  14.464  0.7042 -1.8361 -0.3479
10277TIP3   OH252245   4.254   3.052   2.327  1.0124 -0.5570 -0.2309
10277TIP3    H152246   4.341   3.090   2.332  0.4514  0.7007  0.3196
10277TIP3    H252247   4.217   3.087   2.246 -0.2338  1.7792  1.2362
10278TIP3   OH252248   6.442   4.194   1.858  0.0487  0.0372  0.4268
10278TIP3    H152249   6.390   4.134   1.803  0.0173  0.9234 -0.5347
10278TIP3    H252250   6.378   4.253   1.896  0.1922  0.1175  0.5440
10279TIP3   OH252251   2.322   2.455   1.825  0.4037 -0.0787 -0.6360
10279TIP3    H152252   2.358   2.544   1.824  1.7076 -0.5655 -2.7699
10279TIP3    H252253   2.249   2.458   1.763  0.2915 -0.4592 -0.5262
10280TIP3   OH252254   2.187   4.417   1.156  0.1329  0.1115  0.3217
10280TIP3    H152255   2.114   4.365   1.123  0.4444 -0.2014  0.1110
10280TIP3    H252256   2.241   4.354   1.203 -0.7879  0.7097  2.2854
10281TIP3   OH252257   1.181   3.277   3.889 -0.2534  0.2141 -0.6347
10281TIP3    H152258   1.240   3.224   3.943 -0.7927  0.5216  0.2854
10281TIP3    H252259   1.103   3.288   3.943 -1.3474 -0.5528 -2.0103
10282TIP3   OH252260   2.117   6.633  11.230  0.0037  0.0844  0.1849
10282TIP3    H152261   2.103   6.617  11.323  2.4190  0.9839  0.7950
10282TIP3    H252262   2.076   6.718  11.214 -0.4004 -0.0622  0.4334
10283TIP3   OH252263   5.614   2.591   3.551 -0.6551 -0.3004 -0.4068
10283TIP3    H152264   5.525   2.627   3.544 -1.0138 -0.8672  1.0322
10283TIP3    H252265   5.659   2.647   3.613 -0.4756 -0.9058  0.0229
10284TIP3   OH252266   1.073   0.535   1.854  0.1806  0.0586 -0.4527
10284TIP3    H152267   1.067   0.479   1.931 -0.0832 -1.1858 -1.3439
10284TIP3    H252268   1.151   0.588   1.869 -0.0436  0.0684  0.8001
10285TIP3   OH252269   3.166   1.972  12.512  0.0593  0.1038 -0.3640
10285TIP3    H152270   3.161   2.067  12.504  0.6148  0.0595 -1.3325
10285TIP3    H252271   3.137   1.939  12.427 -0.5966 -0.6177  0.1218
10286TIP3   OH252272   0.898   2.413  15.180 -0.1079 -0.3142 -0.1698
10286TIP3    H152273   0.889   2.376  15.092 -1.2255  1.2355 -0.7437
10286TIP3    H252274   0.811   2.445  15.201  0.0710 -0.9570  1.6579
10287TIP3   OH252275   1.324   2.548  11.185  0.7081 -0.1445 -0.1986
10287TIP3    H152276   1.315   2.455  11.166 -1.3454  0.1039 -0.7215
10287TIP3    H252277   1.383   2.552  11.260  0.6716 -1.8745 -0.0387
10288TIP3   OH252278   2.767   3.208   1.652  0.4711 -0.1849  0.2366
10288TIP3    H152279   2.842   3.267   1.651 -0.2536  0.7444  0.4012
10288TIP3    H252280   2.692   3.264   1.668 -0.2914 -1.0842 -0.1061
10289TIP3   OH252281   5.430   1.371   5.040  0.1288  0.4846 -0.6561
10289TIP3    H152282   5.482   1.421   5.103 -1.6942  2.0512 -0.3097
10289TIP3    H252283   5.453   1.280   5.057 -0.1134  0.8586  2.1246
10290TIP3   OH252284   1.679   2.672  11.331  0.4346 -0.4579  0.2208
10290TIP3    H152285   1.765   2.668  11.373  0.9623  0.3734 -0.7218
10290TIP3    H252286   1.670   2.763  11.303 -1.2388 -0.2700  1.2577
10291TIP3   OH252287   0.513   6.468   2.142 -0.5219  0.0339 -0.0786
10291TIP3    H152288   0.551   6.481   2.055  1.5343 -0.6137  0.6723
10291TIP3    H252289   0.545   6.541   2.194 -0.0803 -0.6618  0.6407
10292TIP3   OH252290   6.522   3.855  11.871  0.2027  0.1166 -0.3803
10292TIP3    H152291   6.520   3.922  11.803  0.3306  0.5959  0.0843
10292TIP3    H252292   6.490   3.899  11.950 -0.8846 -0.7012 -0.3519
10293TIP3   OH252293   0.511   2.285  17.181 -0.2793 -0.6923  0.1885
10293TIP3    H152294   0.446   2.310  17.115 -0.9323 -0.7062  0.8123
10293TIP3    H252295   0.465   2.221  17.236  0.1241 -0.3859  0.8884
10294TIP3   OH252296   4.605   3.167  16.989 -0.0240  0.2775  0.1410
10294TIP3    H152297   4.590   3.261  16.994  1.0121  0.6838 -2.4935
10294TIP3    H252298   4.697   3.158  16.967 -0.3108 -1.2955 -0.5882
10295TIP3   OH252299   6.516   3.894  15.570  0.3730  0.6276  0.0277
10295TIP3    H152300   6.561   3.819  15.609  0.2748  0.2755 -0.5277
10295TIP3    H252301   6.468   3.934  15.643 -1.2266 -1.0424 -0.0344
10296TIP3   OH252302   4.476   5.355  14.725  0.3185  0.4055  0.4191
10296TIP3    H152303   4.454   5.448  14.714  0.7955  0.5844  0.9572
10296TIP3    H252304   4.418   5.325  14.795 -0.5664  0.0261 -0.4473
10297TIP3   OH252305   1.529   6.261   4.778  0.1324 -0.0338 -0.3398
10297TIP3    H152306   1.612   6.249   4.732 -0.5430  0.6348 -1.7668
10297TIP3    H252307   1.543   6.219   4.863  1.6494 -0.6573 -0.8648
10298TIP3   OH252308   4.828   6.533   1.964  0.0130 -0.4343 -0.0173
10298TIP3    H152309   4.834   6.444   1.999  1.2680  0.2550  1.7182
10298TIP3    H252310   4.854   6.524   1.872 -2.0825 -2.1474 -0.5141
10299TIP3   OH252311   1.118   4.887   5.607 -0.3623 -0.4823 -0.0163
10299TIP3    H152312   1.161   4.887   5.692 -0.3982 -0.8326  0.0008
10299TIP3    H252313   1.175   4.834   5.551 -0.0254  0.2317 -0.3677
10300TIP3   OH252314   2.509   2.402   1.139  0.7281 -0.0720 -0.0599
10300TIP3    H152315   2.475   2.320   1.104  0.5136  0.0177 -0.0594
10300TIP3    H252316   2.548   2.446   1.064  1.4753 -0.4903  0.0666
10301TIP3   OH252317   1.078   1.363  14.024  0.1931 -0.5362 -0.1785
10301TIP3    H152318   1.146   1.323  14.080  1.7311  0.9200 -0.9025
10301TIP3    H252319   1.041   1.433  14.079  1.1899  0.4087 -0.6536
10302TIP3   OH252320   5.190   5.130  13.409  0.2081 -0.3535 -0.4068
10302TIP3    H152321   5.249   5.094  13.475 -0.1876 -1.5709 -0.7044
10302TIP3    H252322   5.244   5.138  13.330  0.2859 -0.3096 -0.3491
10303TIP3   OH252323   3.076   2.466  12.554  0.2245 -0.0377 -0.1725
10303TIP3    H152324   3.021   2.455  12.476  0.1456 -1.8660  0.1048
10303TIP3    H252325   3.102   2.558  12.552 -0.9112  0.2905 -1.5947
10304TIP3   OH252326   2.925   5.188  16.778  0.2198  0.4958 -0.2964
10304TIP3    H152327   3.004   5.199  16.726  1.1245  1.2016  1.1464
10304TIP3    H252328   2.943   5.111  16.833 -1.1278 -0.8747 -1.6774
10305TIP3   OH252329   6.006   5.838   3.066  0.2857  0.1998 -0.1549
10305TIP3    H152330   5.996   5.932   3.053 -0.0245  0.1700 -0.1251
10305TIP3    H252331   6.011   5.802   2.978 -1.2202  0.0663 -0.2085
10306TIP3   OH252332   3.480   4.406  15.151  0.0198  0.2910 -0.1723
10306TIP3    H152333   3.535   4.335  15.118  0.0864  1.2454 -2.2789
10306TIP3    H252334   3.533   4.447  15.219  0.5163 -0.8470  0.1557
10307TIP3   OH252335   2.596   2.104   4.231 -0.0393  0.5370 -0.2130
10307TIP3    H152336   2.511   2.093   4.188  0.2019 -0.0745 -0.5506
10307TIP3    H252337   2.645   2.025   4.207  0.9067  1.2506 -0.6570
10308TIP3   OH252338   6.549   0.761  14.511  0.1257 -0.0194 -0.7608
10308TIP3    H152339   6.501   0.741  14.591  0.9688  0.1541 -0.2053
10308TIP3    H252340   6.551   0.679  14.462  0.9325 -0.5379  0.1085
10309TIP3   OH252341   4.153   4.885   1.251  0.2973 -0.0020 -0.0922
10309TIP3    H152342   4.217   4.932   1.305 -0.0620  0.7040 -0.2670
10309TIP3    H252343   4.107   4.828   1.312 -0.2332  0.9219  0.3963
10310TIP3   OH252344   6.065   3.568  12.717  0.1125  0.5694 -0.0409
10310TIP3    H152345   6.058   3.618  12.636 -1.4830 -0.9489 -0.8846
10310TIP3    H252346   5.986   3.591  12.767 -0.3530 -0.6262 -0.1920
10311TIP3   OH252347   0.630   5.992   5.318  0.0672  0.1172 -0.1281
10311TIP3    H152348   0.548   6.032   5.347 -0.3121 -0.1040 -0.8641
10311TIP3    H252349   0.694   6.018   5.384 -0.8005 -0.5246  1.0017
10312TIP3   OH252350   4.991   1.055  12.779  0.0559  1.1861 -0.4783
10312TIP3    H152351   4.928   1.027  12.846 -0.8677 -1.2013 -2.2019
10312TIP3    H252352   5.076   1.028  12.814 -0.4436 -0.3071 -0.3581
10313TIP3   OH252353   2.847   2.718   1.084 -0.0965 -0.4758  0.3206
10313TIP3    H152354   2.928   2.698   1.132  0.4309 -0.8143 -0.6780
10313TIP3    H252355   2.832   2.641   1.029  0.3710  0.6453 -1.4633
10314TIP3   OH252356   1.020   2.922   2.243 -0.4397  0.0326 -0.3228
10314TIP3    H152357   1.075   2.856   2.200 -2.1231 -2.5178  1.1296
10314TIP3    H252358   0.953   2.943   2.178  0.4062  0.7383 -0.9819
10315TIP3   OH252359   2.561   4.948   3.344 -0.3670 -0.7525  0.7846
10315TIP3    H152360   2.650   4.925   3.319  0.1422  0.9411  0.8656
10315TIP3    H252361   2.562   4.947   3.440 -0.1811  0.0717  0.7998
10316TIP3   OH252362   4.443   0.931  16.051 -0.2991 -0.0332  0.1555
10316TIP3    H152363   4.449   0.900  15.960  1.4920 -2.6615  1.0610
10316TIP3    H252364   4.528   0.969  16.070  0.3302 -1.9877  1.4983
10317TIP3   OH252365   1.183   3.279  15.187  0.2469  0.1300  0.6887
10317TIP3    H152366   1.211   3.193  15.156 -0.4625 -0.1371  0.7492
10317TIP3    H252367   1.099   3.262  15.231 -0.9718  1.1286 -1.1115
10318TIP3   OH252368   0.273   2.745   6.693 -0.5120  0.1891 -0.2835
10318TIP3    H152369   0.315   2.660   6.677  0.1694  0.6932 -1.2517
10318TIP3    H252370   0.345   2.808   6.686 -1.3471  1.0326 -1.5402
10319TIP3   OH252371   4.609   5.502  14.370 -0.2669 -0.0146  0.2749
10319TIP3    H152372   4.574   5.551  14.295 -0.6324  0.0464  0.4865
10319TIP3    H252373   4.533   5.459  14.408 -0.2376  0.7194  1.1869
10320TIP3   OH252374   5.101   3.036  17.179  0.6954 -0.0541 -0.1699
10320TIP3    H152375   5.064   3.117  17.144  0.8191  0.4146  0.7613
10320TIP3    H252376   5.183   3.025  17.131  0.8229  0.5413 -0.1003
10321TIP3   OH252377   6.137   0.856  15.054  0.2911  0.0282  0.0712
10321TIP3    H152378   6.195   0.929  15.031 -0.2611 -0.0308 -1.6830
10321TIP3    H252379   6.156   0.790  14.988 -1.9479  0.1282 -0.7413
10322TIP3   OH252380   5.642   3.632   2.201  0.2551  0.5833 -0.3080
10322TIP3    H152381   5.603   3.715   2.227  1.9754  1.2005  0.3822
10322TIP3    H252382   5.716   3.620   2.260  0.0547 -1.4411 -0.3968
10323TIP3   OH252383   1.719   5.064   4.110 -0.9243 -0.5152 -0.2452
10323TIP3    H152384   1.671   4.996   4.156 -0.1814 -1.8531 -1.3915
10323TIP3    H252385   1.682   5.063   4.021 -1.3301  1.0136 -0.1223
10324TIP3   OH252386   2.254   3.541  17.147  0.0354  0.0994 -0.3017
10324TIP3    H152387   2.268   3.448  17.131  0.4268  0.4734 -2.5097
10324TIP3    H252388   2.159   3.552  17.148 -0.0202 -0.1420 -1.5023
10325TIP3   OH252389   2.636   2.705   3.188  0.1263  0.4122  0.0321
10325TIP3    H152390   2.547   2.674   3.204  0.5475 -0.7831  0.1775
10325TIP3    H252391   2.631   2.800   3.201 -1.0422  0.3210  0.3870
10326TIP3   OH252392   6.022   3.489  11.194  0.4031  0.0247 -0.0979
10326TIP3    H152393   5.962   3.499  11.121 -0.7409 -1.4174  0.5962
10326TIP3    H252394   6.083   3.421  11.166  0.2092 -0.2416  0.1162
10327TIP3   OH252395   6.610   1.893  17.055 -0.5408 -0.2587 -0.2520
10327TIP3    H152396   6.643   1.932  16.973 -1.5114 -2.2660 -1.6679
10327TIP3    H252397   6.526   1.855  17.031 -0.5018 -1.5568  1.5145
10328TIP3   OH252398   3.494   5.651  17.575  0.2447 -0.9145  0.2480
10328TIP3    H152399   3.508   5.683  17.486 -0.0786 -0.7036  0.2713
10328TIP3    H252400   3.469   5.559  17.564 -0.2705 -0.7571  0.0921
10329TIP3   OH252401   5.489   5.268   1.202  0.2197  0.1769  0.5893
10329TIP3    H152402   5.511   5.275   1.109  1.0839  1.4181  0.8524
10329TIP3    H252403   5.507   5.177   1.224  3.9445  0.7036  0.4190
10330TIP3   OH252404   5.664   3.644   2.793 -0.0304 -0.2515  0.3504
10330TIP3    H152405   5.707   3.644   2.708  0.2005  2.2715  0.4003
10330TIP3    H252406   5.658   3.736   2.818 -1.9937 -0.7592  2.1265
10331TIP3   OH252407   3.428   0.228   3.536  0.2242  0.4092 -0.1337
10331TIP3    H152408   3.488   0.221   3.610 -0.8386 -0.6288  0.6628
10331TIP3    H252409   3.407   0.137   3.514 -0.1513  0.7291 -1.1620
10332TIP3   OH252410   2.753   1.817  13.437  0.3638  0.2613  0.0987
10332TIP3    H152411   2.669   1.777  13.415  1.0341 -0.4442 -1.3278
10332TIP3    H252412   2.732   1.907  13.461 -0.7592  0.2135 -0.6218
10333TIP3   OH252413   5.403   6.119   4.495 -0.1622 -0.9975 -0.4779
10333TIP3    H152414   5.403   6.194   4.435  2.4038 -1.8086 -1.6279
10333TIP3    H252415   5.432   6.156   4.578 -1.8058 -0.2234 -0.2076
10334TIP3   OH252416   5.796   3.087  15.899  0.3648  0.2403 -0.0210
10334TIP3    H152417   5.842   3.061  15.819 -2.4868 -0.4583 -1.5437
10334TIP3    H252418   5.747   3.009  15.925 -0.2453  1.0520  1.3549
10335TIP3   OH252419   3.428   0.064  13.398  0.0219  0.3917 -0.3882
10335TIP3    H152420   3.483   0.080  13.322 -2.0488  0.7531 -1.9099
10335TIP3    H252421   3.431   0.146  13.448  0.8090  0.4157 -0.4763
10336TIP3   OH252422   3.864   3.466   1.735  0.2455  0.0174  0.2108
10336TIP3    H152423   3.773   3.457   1.764  0.5758  2.9853  2.6041
10336TIP3    H252424   3.916   3.453   1.814  1.7801  0.6023 -0.6497
10337TIP3   OH252425   2.276   3.343  12.016 -0.2496  0.1193 -0.2582
10337TIP3    H152426   2.234   3.311  11.937 -0.2338 -0.7382  0.0681
10337TIP3    H252427   2.259   3.276  12.082  1.7888 -0.3780 -0.1591
10338TIP3   OH252428   4.694   2.484   4.178 -0.7581 -0.3934  0.1631
10338TIP3    H152429   4.616   2.474   4.122 -0.6734 -1.1251  0.1694
10338TIP3    H252430   4.759   2.427   4.138 -0.3151 -0.0079  0.3331
10339TIP3   OH252431   1.704   0.964  11.251 -0.0887 -0.1471 -0.1293
10339TIP3    H152432   1.694   0.986  11.343  0.0495 -0.5679 -0.0118
10339TIP3    H252433   1.756   1.036  11.215 -3.2977  2.0605 -0.7467
10340TIP3   OH252434   3.121   5.002  10.507  0.3269  0.7983 -0.0320
10340TIP3    H152435   3.057   4.997  10.578 -1.4748 -1.0063 -1.6765
10340TIP3    H252436   3.148   5.094  10.506 -2.1900  1.6207  0.8015
10341TIP3   OH252437   6.654   6.218  16.456  0.3577 -0.4355 -0.2793
10341TIP3    H152438   6.607   6.292  16.416  1.4700  0.1958 -0.4919
10341TIP3    H252439   6.659   6.240  16.549  0.4039 -0.3979 -0.2911
10342TIP3   OH252440   0.636   6.318  12.456 -0.0667 -0.0712  0.0730
10342TIP3    H152441   0.667   6.234  12.489 -0.7583  0.2672  1.6928
10342TIP3    H252442   0.595   6.296  12.372 -0.5266 -1.4210  0.6070
10343TIP3   OH252443   2.985   5.294  12.411 -0.2140 -0.3120 -0.1405
10343TIP3    H152444   3.021   5.367  12.462  2.1682  0.2202 -2.3185
10343TIP3    H252445   3.039   5.219  12.435 -1.2385 -0.8576  0.5011
10344TIP3   OH252446   6.123   0.306   2.826  0.7587  0.2205  0.3924
10344TIP3    H152447   6.217   0.322   2.819  0.9249 -0.8968 -0.0282
10344TIP3    H252448   6.101   0.252   2.751 -0.6324  2.1396 -0.6701
10345TIP3   OH252449   6.078   2.147  16.200  0.0478 -0.0166 -0.0466
10345TIP3    H152450   5.983   2.164  16.201 -0.0914 -0.6718 -0.7105
10345TIP3    H252451   6.087   2.071  16.142  1.1597  1.1448 -1.4730
10346TIP3   OH252452   1.276   1.390  14.877  0.5794  0.3493 -0.1018
10346TIP3    H152453   1.316   1.384  14.790  1.3070 -0.9595  0.2838
10346TIP3    H252454   1.190   1.351  14.866  1.7243 -2.5895  0.2984
10347TIP3   OH252455   2.287   5.135  14.118  0.4479 -0.3846 -0.4671
10347TIP3    H152456   2.247   5.153  14.033  0.4935  0.6146 -0.2956
10347TIP3    H252457   2.214   5.140  14.180  0.7947  1.6355 -0.1292
10348TIP3   OH252458   3.975   4.161   3.170 -0.5278  0.4039 -0.2087
10348TIP3    H152459   3.901   4.218   3.148 -0.6761 -0.3979 -1.8874
10348TIP3    H252460   3.936   4.089   3.220 -0.7966  0.2799 -0.5959
10349TIP3   OH252461   0.459   0.194   0.211  0.5509 -0.1326  0.1331
10349TIP3    H152462   0.418   0.194   0.125 -1.6982  1.7754  1.1029
10349TIP3    H252463   0.511   0.274   0.213  1.0684 -0.4644  0.3751
10350TIP3   OH252464   4.427   0.030  12.486  0.3977  0.5467  0.1020
10350TIP3    H152465   4.422  -0.002  12.576 -2.8823  0.1407 -0.1064
10350TIP3    H252466   4.452   0.122  12.495  1.5528  0.1468  1.2829
10351TIP3   OH252467   1.961   0.084  13.281  0.4623 -0.6263  0.8824
10351TIP3    H152468   1.881   0.031  13.277  1.2741 -1.8459  0.2394
10351TIP3    H252469   1.934   0.165  13.325 -1.7210  0.0732 -1.5036
10352TIP3   OH252470   4.454   4.563  13.803  0.5704  0.2451  0.1742
10352TIP3    H152471   4.512   4.629  13.841  0.3573 -0.5106  1.8952
10352TIP3    H252472   4.418   4.516  13.878  0.2910 -1.4777 -0.9639
10353TIP3   OH252473   6.538   1.005  11.630  0.6953 -0.1866 -0.2867
10353TIP3    H152474   6.504   0.932  11.683  0.6016 -0.7501 -1.1031
10353TIP3    H252475   6.630   0.982  11.615  1.0850  0.6276  0.7185
10354TIP3   OH252476   3.226   4.326  14.850  0.3831  0.1715  0.2727
10354TIP3    H152477   3.236   4.403  14.905  0.7511  0.7290 -0.5560
10354TIP3    H252478   3.199   4.360  14.765 -0.1945 -0.6745  0.1036
10355TIP3   OH252479   0.585   3.249  14.104  0.7793 -0.4570 -0.2957
10355TIP3    H152480   0.506   3.247  14.158  0.8139  0.8272 -0.1733
10355TIP3    H252481   0.552   3.265  14.015  0.9814  3.0239  0.1191
10356TIP3   OH252482   2.331   4.487   0.913  0.0105  0.5070  0.1221
10356TIP3    H152483   2.408   4.433   0.894 -0.3639  0.1993 -0.5266
10356TIP3    H252484   2.322   4.483   1.008  1.4620  1.4581  0.3439
10357TIP3   OH252485   6.070   3.061  16.112 -0.2280  0.0507 -0.2059
10357TIP3    H152486   6.054   2.998  16.182  1.0727 -1.4262 -1.1803
10357TIP3    H252487   5.986   3.068  16.066 -0.4353 -0.8633  0.0192
10358TIP3   OH252488   3.897   5.055  13.168  0.2937  0.6477 -0.3130
10358TIP3    H152489   3.885   5.141  13.209  0.7031  0.9274 -0.7662
10358TIP3    H252490   3.968   5.015  13.218  1.2688  1.2685 -1.1607
10359TIP3   OH252491   6.233   4.753   2.311 -0.5962 -0.0022 -0.1749
10359TIP3    H152492   6.308   4.719   2.360 -0.5107 -0.2470 -0.4713
10359TIP3    H252493   6.267   4.828   2.263 -0.8210  0.6130  0.5993
10360TIP3   OH252494   5.235   2.898  12.795  0.3353 -0.9658  0.0809
10360TIP3    H152495   5.223   2.871  12.886 -1.0826  0.3285  0.3226
10360TIP3    H252496   5.188   2.981  12.788  1.8212 -0.1870 -1.4288
10361TIP3   OH252497   1.879   2.577   2.863 -0.7634  0.2351 -0.0919
10361TIP3    H152498   1.967   2.578   2.826  0.3117 -1.1297  2.2319
10361TIP3    H252499   1.839   2.659   2.833  0.8539  0.3463 -2.1202
10362TIP3   OH252500   3.651   0.028   4.667  0.0232 -0.1560 -0.2532
10362TIP3    H152501   3.700   0.110   4.664 -0.6664  0.2369 -1.2164
10362TIP3    H252502   3.624   0.012   4.576 -1.3053 -0.5543  0.1911
10363TIP3   OH252503   4.887   0.267  14.001  0.4951  0.2213  0.4697
10363TIP3    H152504   4.865   0.286  13.910 -0.9152  1.1672  0.9773
10363TIP3    H252505   4.897   0.353  14.042  0.6804 -0.1916  1.3168
10364TIP3   OH252506   1.932   2.760  15.977  0.2778 -0.8307 -0.0382
10364TIP3    H152507   1.955   2.850  15.957 -0.0651 -1.2540 -2.7485
10364TIP3    H252508   1.948   2.751  16.071  0.7774  1.8799  0.2102
10365TIP3   OH252509   5.028   3.864   3.326 -0.3400 -0.3706  0.2369
10365TIP3    H152510   4.970   3.856   3.402  0.1120 -1.7420  0.4654
10365TIP3    H252511   5.008   3.787   3.273  0.4920 -0.2686 -0.2303
10366TIP3   OH252512   4.972   2.662   5.366 -0.6145 -0.1052 -0.0401
10366TIP3    H152513   5.027   2.616   5.303  0.5975  0.0537  0.8640
10366TIP3    H252514   4.963   2.601   5.440 -2.2994 -0.4290 -0.4633
10367TIP3   OH252515   5.101   4.467  11.744 -0.4701 -0.5762  0.6623
10367TIP3    H152516   5.086   4.423  11.828 -1.7022 -0.5041  0.5076
10367TIP3    H252517   5.014   4.471  11.704 -0.0407  0.1859 -0.2255
10368TIP3   OH252518   3.237   4.567   2.245  0.1729 -0.4535  0.1770
10368TIP3    H152519   3.165   4.517   2.207 -0.7277  1.6189 -1.0565
10368TIP3    H252520   3.261   4.630   2.177  2.2827 -0.2140  1.0633
10369TIP3   OH252521   5.312   3.358  16.190 -0.4601 -0.6938  0.5312
10369TIP3    H152522   5.386   3.367  16.250  3.7284 -2.2444 -3.7469
10369TIP3    H252523   5.284   3.448  16.173  1.0206  0.0333  1.6876
10370TIP3   OH252524   6.203   2.312  15.576 -0.0182  0.4893  0.1213
10370TIP3    H152525   6.292   2.291  15.546  0.3004 -0.3483  1.5603
10370TIP3    H252526   6.154   2.231  15.562  0.1188  0.1034  1.6909
10371TIP3   OH252527   2.553   2.531   0.458  0.6809  0.9654  0.2838
10371TIP3    H152528   2.609   2.467   0.414  2.6663  1.4831  1.9162
10371TIP3    H252529   2.613   2.585   0.509 -1.2797  1.7881  1.8678
10372TIP3   OH252530   4.463   4.672   5.388 -0.3483  0.0762  0.0192
10372TIP3    H152531   4.432   4.603   5.446  0.9533  1.3548  2.3530
10372TIP3    H252532   4.444   4.753   5.434  1.9984  1.0927 -0.6451
10373TIP3   OH252533   4.020   2.419  15.012 -0.1996  0.4748 -0.1000
10373TIP3    H152534   4.088   2.487  15.009 -0.3156  0.5901 -0.1432
10373TIP3    H252535   3.984   2.417  14.923  1.1044 -0.9769 -0.6363
10374TIP3   OH252536   1.484   5.712  15.573 -0.2528  0.2818 -0.4331
10374TIP3    H152537   1.500   5.805  15.555  0.4487  0.0090 -1.2964
10374TIP3    H252538   1.408   5.691  15.518 -0.2890  0.2958 -0.3885
10375TIP3   OH252539   0.094   6.190   0.553 -0.3371 -0.1314 -0.7305
10375TIP3    H152540   0.169   6.131   0.558  1.5508  1.7218 -3.9428
10375TIP3    H252541   0.030   6.143   0.501 -1.2010 -1.3867  1.3292
10376TIP3   OH252542   3.146   6.255  11.715  0.5643 -0.0345 -0.8517
10376TIP3    H152543   3.094   6.302  11.650 -0.6626 -1.5752 -1.0283
10376TIP3    H252544   3.105   6.277  11.799  1.6119  1.2548 -0.6440
10377TIP3   OH252545   5.689   1.514   2.974  0.0751  0.2482  0.3744
10377TIP3    H152546   5.726   1.501   3.061 -0.5977 -1.7811  0.4136
10377TIP3    H252547   5.765   1.520   2.916  0.5882 -2.6438  0.6042
10378TIP3   OH252548   6.311   4.663   1.377 -0.5974  0.0467 -0.1505
10378TIP3    H152549   6.223   4.684   1.343 -0.4500 -1.0032 -1.2340
10378TIP3    H252550   6.361   4.744   1.363 -0.5535 -0.2933 -2.5066
10379TIP3   OH252551   2.485   5.292  16.856  0.1959 -0.5409  0.2101
10379TIP3    H152552   2.530   5.211  16.880 -0.2830 -0.5432  1.1551
10379TIP3    H252553   2.518   5.357  16.918 -1.9724 -0.8260  1.8040
10380TIP3   OH252554   3.798   1.714  17.440  0.2674  0.0022  0.1227
10380TIP3    H152555   3.725   1.652  17.446 -1.2630  1.7991  1.5239
10380TIP3    H252556   3.786   1.758  17.356  0.0850 -0.1542  0.0673
10381TIP3   OH252557   3.491   5.736  14.328  0.1238 -0.1622 -0.2379
10381TIP3    H152558   3.454   5.772  14.408  0.0150  0.4526 -0.5565
10381TIP3    H252559   3.519   5.647  14.351  0.8525  0.3000  0.6850
10382TIP3   OH252560   3.890   3.184   5.550 -0.4625  0.2076  0.4665
10382TIP3    H152561   3.856   3.188   5.460 -0.8432  0.9329  0.6347
10382TIP3    H252562   3.884   3.092   5.574  0.7124 -0.1853 -0.6591
10383TIP3   OH252563   0.657   1.526   3.501  0.0699 -0.4642  0.0474
10383TIP3    H152564   0.721   1.589   3.535  0.5454 -0.4769 -0.8078
10383TIP3    H252565   0.574   1.555   3.539  0.5002 -0.1708  0.8017
10384TIP3   OH252566   1.523   3.526  11.862  0.4917  0.2902 -0.4209
10384TIP3    H152567   1.438   3.499  11.897  0.1966  1.6211 -0.0469
10384TIP3    H252568   1.514   3.515  11.768 -0.4617  1.3188 -0.4791
10385TIP3   OH252569   3.053   5.219  15.564 -0.2049  0.3910 -0.3152
10385TIP3    H152570   3.096   5.303  15.581  1.3639 -0.1426 -1.4362
10385TIP3    H252571   2.996   5.236  15.489 -0.2203  0.5425 -0.2708
10386TIP3   OH252572   0.685   4.415  15.249  0.4134 -0.8792  0.5203
10386TIP3    H152573   0.693   4.463  15.331  1.2168  1.1054 -0.6360
10386TIP3    H252574   0.775   4.396  15.224  0.5641  2.1826 -1.8338
10387TIP3   OH252575   5.871   0.869   5.485  0.1053  0.0854 -0.0821
10387TIP3    H152576   5.843   0.960   5.494 -1.7451 -0.4533  0.0815
10387TIP3    H252577   5.900   0.861   5.394 -1.9216  0.3105 -0.7910
10388TIP3   OH252578   6.101   5.401   4.035 -0.4281  0.0583 -0.5675
10388TIP3    H152579   6.157   5.324   4.027 -1.0106 -0.3423 -0.9269
10388TIP3    H252580   6.012   5.365   4.038 -0.7316  0.7380 -1.1318
10389TIP3   OH252581   0.152   4.882   6.429 -0.3346 -0.3967  0.8046
10389TIP3    H152582   0.070   4.840   6.455 -0.3518  0.7565  2.7653
10389TIP3    H252583   0.215   4.853   6.495  0.4194  0.1298  0.3249
10390TIP3   OH252584   4.402   1.942   1.536  0.6101 -0.7543  0.1340
10390TIP3    H152585   4.474   1.989   1.578  0.9845 -1.0839 -0.1257
10390TIP3    H252586   4.373   1.879   1.602 -0.0614  0.0010  0.5749
10391TIP3   OH252587   2.626   2.126  14.707 -0.0861 -0.3866  0.0639
10391TIP3    H152588   2.648   2.166  14.623 -1.0642 -1.9792 -1.0071
10391TIP3    H252589   2.541   2.084  14.693 -0.0924 -1.0208  1.7361
10392TIP3   OH252590   1.121   5.009   6.070  0.0487 -0.0691  0.0033
10392TIP3    H152591   1.051   5.046   6.125 -0.6106 -0.4902 -0.5263
10392TIP3    H252592   1.176   5.083   6.048  0.1779  0.1580  1.0076
10393TIP3   OH252593   1.479   2.641   6.010  0.2755 -0.2678  0.7331
10393TIP3    H152594   1.535   2.638   6.088  0.4028  1.6187  0.7616
10393TIP3    H252595   1.390   2.644   6.044  0.3702  1.8187  0.8978
10394TIP3   OH252596   1.275   4.129   5.096 -0.4097 -0.9081 -0.2636
10394TIP3    H152597   1.272   4.157   5.004 -1.7142  1.0921  0.3185
10394TIP3    H252598   1.350   4.175   5.133 -0.1942 -1.3082 -0.1958
10395TIP3   OH252599   2.439   1.844   3.384  0.1970 -0.4603  0.3051
10395TIP3    H152600   2.441   1.772   3.447  0.6390 -1.2255 -0.5559
10395TIP3    H252601   2.348   1.872   3.382 -0.0785 -1.3234  0.3033
10396TIP3   OH252602   3.435   3.591  12.734 -0.1529  0.4574 -0.0016
10396TIP3    H152603   3.417   3.640  12.814  1.6370  0.6828  0.3134
10396TIP3    H252604   3.530   3.574  12.737 -0.3317 -1.0210 -1.2332
10397TIP3   OH252605   0.228   2.653   4.398 -0.5274  0.2682 -0.1882
10397TIP3    H152606   0.284   2.577   4.382  1.1827  1.2454  0.8185
10397TIP3    H252607   0.184   2.668   4.315  0.9783 -0.3519 -1.1480
10398TIP3   OH252608   2.844   0.969  12.906 -0.0608  0.0164 -0.2724
10398TIP3    H152609   2.774   1.003  12.850 -0.5608 -2.7298 -1.4578
10398TIP3    H252610   2.799   0.919  12.974  0.6422 -2.5145 -1.5436
10399TIP3   OH252611   1.319   0.959  15.852 -0.2508  0.2601  0.4421
10399TIP3    H152612   1.398   0.988  15.807 -0.2129  0.0792  0.3892
10399TIP3    H252613   1.351   0.919  15.933 -0.2250 -0.5547  0.0401
10400TIP3   OH252614   0.209   1.161  17.201 -0.4646  0.1756  0.0765
10400TIP3    H152615   0.152   1.090  17.171 -0.3369  0.6570 -1.3811
10400TIP3    H252616   0.150   1.236  17.210 -0.7029 -0.2105  2.1514
10401TIP3   OH252617   5.971   6.562  16.109  0.1454  0.0090  0.2752
10401TIP3    H152618   6.020   6.484  16.083  0.7456 -0.2109  1.9407
10401TIP3    H252619   5.879   6.539  16.093  0.3832 -0.5935 -0.3201
10402TIP3   OH252620   1.022   3.270  14.111 -0.1646 -0.4063  0.4016
10402TIP3    H152621   0.936   3.311  14.111 -0.5371 -1.1065 -1.3324
10402TIP3    H252622   1.070   3.316  14.180 -1.2696  1.3972  0.0497
10403TIP3   OH252623   2.470   1.827   6.557  0.1169  0.3217  0.0001
10403TIP3    H152624   2.430   1.766   6.620  1.1533 -0.0494  0.3199
10403TIP3    H252625   2.564   1.811   6.564  0.2283 -0.8331 -2.7502
10404TIP3   OH252626   0.783   0.916   5.275 -0.1850 -0.3012 -0.1835
10404TIP3    H152627   0.767   0.867   5.194  0.0972  0.3625 -0.6527
10404TIP3    H252628   0.779   1.008   5.248  0.7833 -0.0788  0.3904
10405TIP3   OH252629   6.567   0.842   2.541 -0.2171 -0.0532  0.1743
10405TIP3    H152630   6.551   0.759   2.586  0.1940 -0.0077  0.4001
10405TIP3    H252631   6.586   0.816   2.450 -1.2204 -0.1315 -0.0240
10406TIP3   OH252632   6.515   1.839   4.853 -0.1439  0.1151  0.6604
10406TIP3    H152633   6.477   1.809   4.770  0.7702 -1.0963  0.6615
10406TIP3    H252634   6.501   1.934   4.853  3.3850  0.8778 -2.7951
10407TIP3   OH252635   0.599   5.148  16.332 -0.6016 -0.2655  0.5841
10407TIP3    H152636   0.577   5.195  16.413  3.2255  0.2494  1.5216
10407TIP3    H252637   0.634   5.064  16.362  2.1123  0.4486 -0.3499
10408TIP3   OH252638   3.097   0.695  11.411 -0.2688 -0.6907 -0.0398
10408TIP3    H152639   3.078   0.737  11.328 -0.4479  0.1454  0.4160
10408TIP3    H252640   3.144   0.615  11.387 -1.4827 -1.1406 -1.0088
10409TIP3   OH252641   2.081   3.016   2.653 -0.5163 -0.2840 -0.4913
10409TIP3    H152642   2.176   3.026   2.645 -0.5955  0.2149 -0.8788
10409TIP3    H252643   2.046   3.058   2.575 -1.0284 -1.1776 -0.7434
10410TIP3   OH252644   4.680   2.479   3.121 -0.1584 -0.0070 -0.2188
10410TIP3    H152645   4.618   2.551   3.131 -0.3282  0.2067 -2.2369
10410TIP3    H252646   4.634   2.402   3.153 -0.6869  0.4742  0.2082
10411TIP3   OH252647   0.003   0.271  13.663 -0.0510 -0.8114 -0.3276
10411TIP3    H152648  -0.012   0.286  13.569  1.3761 -0.5794 -0.5458
10411TIP3    H252649  -0.069   0.316  13.707 -0.6330 -0.7574 -1.3023
10412TIP3   OH252650   3.868   1.541  11.981  0.4288 -0.2856 -0.0127
10412TIP3    H152651   3.915   1.600  11.922 -0.1734  0.2328  0.0263
10412TIP3    H252652   3.827   1.598  12.045  2.4267 -0.8977  1.9703
10413TIP3   OH252653   4.201   3.665   0.379 -0.3368  0.4704 -0.1591
10413TIP3    H152654   4.142   3.693   0.449  1.0695  2.3740  0.3535
10413TIP3    H252655   4.144   3.629   0.312 -1.8308 -0.2354  1.4072
10414TIP3   OH252656   1.756   0.210   2.046  0.6807 -0.3157 -0.2121
10414TIP3    H152657   1.718   0.276   1.988 -0.5998 -1.2435 -0.4888
10414TIP3    H252658   1.851   0.220   2.036  0.5342  1.6964  0.0462
10415TIP3   OH252659   2.643   4.431   6.694  0.0036  0.2862 -0.3660
10415TIP3    H152660   2.634   4.506   6.753  1.1872 -0.0867  0.3380
10415TIP3    H252661   2.702   4.371   6.741  0.8215 -0.1169 -1.8406
10416TIP3   OH252662   4.569   3.072  16.286 -0.7897  0.2430  0.0283
10416TIP3    H152663   4.480   3.105  16.275 -0.7008  0.1430 -1.1804
10416TIP3    H252664   4.595   3.046  16.197 -0.1550 -1.2585  0.6285
10417TIP3   OH252665   5.992   3.791  14.808 -0.1385  0.4937  0.4533
10417TIP3    H152666   5.949   3.783  14.723  1.0989  0.6460 -0.2127
10417TIP3    H252667   5.921   3.812  14.869 -1.0581  0.3042 -0.5194
10418TIP3   OH252668   4.945   3.437  12.694 -0.3490 -0.1437 -0.9087
10418TIP3    H152669   5.016   3.381  12.723  0.1749  0.2520 -1.4094
10418TIP3    H252670   4.911   3.476  12.775  0.2749 -0.0126 -0.7083
10419TIP3   OH252671   3.909   5.559  15.154  0.1327  0.4729 -0.2022
10419TIP3    H152672   3.893   5.464  15.152 -0.9984  0.6249  0.7054
10419TIP3    H252673   3.980   5.570  15.218  0.3549  0.2384 -0.4032
10420TIP3   OH252674   4.607   6.383  12.610  0.2239 -0.3614 -0.2045
10420TIP3    H152675   4.565   6.301  12.585 -1.6763  0.3048  0.5927
10420TIP3    H252676   4.655   6.410  12.533  1.6626 -2.6598 -0.2010
10421TIP3   OH252677   1.904   1.935  11.393  0.4173 -0.3580 -0.3725
10421TIP3    H152678   1.830   1.967  11.342  1.0101  0.0481 -0.9959
10421TIP3    H252679   1.875   1.940  11.484 -0.1404  0.2794 -0.5790
10422TIP3   OH252680   0.884   4.529  14.686 -0.4915  0.1867 -0.0301
10422TIP3    H152681   0.919   4.564  14.768  0.3111  0.8844 -0.6524
10422TIP3    H252682   0.889   4.434  14.697 -1.1683  0.2529  1.0413
10423TIP3   OH252683   1.065   2.673  13.288  0.6498  0.0791  0.2753
10423TIP3    H152684   1.134   2.607  13.285  1.6461  1.0619  0.5387
10423TIP3    H252685   1.099   2.745  13.234 -0.7002  0.1152 -0.5605
10424TIP3   OH252686   3.875   4.577  12.703 -0.3175  1.0808  0.0896
10424TIP3    H152687   3.921   4.604  12.623 -1.4434  1.2603 -0.5191
10424TIP3    H252688   3.782   4.583  12.680 -0.6433  0.3949  1.1826
10425TIP3   OH252689   1.703   5.347   5.384 -0.2876 -0.1764 -0.4877
10425TIP3    H152690   1.731   5.263   5.420  1.8219  0.1682 -1.1729
10425TIP3    H252691   1.708   5.408   5.458 -1.5210 -0.5473 -0.0671
10426TIP3   OH252692   4.441   0.453  17.139 -0.1801  0.0585  0.0801
10426TIP3    H152693   4.446   0.464  17.045  0.1946  0.7644  0.1813
10426TIP3    H252694   4.532   0.450  17.169 -0.2768 -1.1964  0.3083
10427TIP3   OH252695   3.917   0.057  14.989 -0.2197  0.2178  0.2256
10427TIP3    H152696   3.981  -0.003  15.027 -0.6209 -1.2907 -1.3601
10427TIP3    H252697   3.871   0.094  15.065  1.2407 -0.0810  1.3093
10428TIP3   OH252698   1.818   1.505   1.356  0.0818 -0.8715  0.1591
10428TIP3    H152699   1.851   1.583   1.400 -0.2326  0.7317 -2.2745
10428TIP3    H252700   1.895   1.449   1.344  0.4113 -0.7218  1.3954
10429TIP3   OH252701   1.702   1.898   0.480  0.0035 -0.1736 -0.5458
10429TIP3    H152702   1.783   1.888   0.429  0.1683  0.4273 -0.4147
10429TIP3    H252703   1.639   1.933   0.417  0.1883  0.5049 -0.3655
10430TIP3   OH252704   4.709   5.746  15.745  0.0002  0.2051  0.2674
10430TIP3    H152705   4.664   5.684  15.802  1.7963 -1.0733  0.3846
10430TIP3    H252706   4.740   5.693  15.672 -1.5686  1.6682 -1.5827
10431TIP3   OH252707   3.528   5.872  16.855  0.2300  0.2472 -0.0429
10431TIP3    H152708   3.513   5.805  16.921  1.0916  0.1733  0.0859
10431TIP3    H252709   3.540   5.823  16.773 -0.6170  0.3279 -0.2285
10432TIP3   OH252710   5.638   6.216   6.054 -0.1536 -0.0618 -0.4476
10432TIP3    H152711   5.645   6.310   6.037 -3.1082  0.3103 -0.2458
10432TIP3    H252712   5.571   6.208   6.122 -1.5490 -2.3678 -1.9322
10433TIP3   OH252713   5.675   4.467   5.294 -0.2476 -0.4812  0.2127
10433TIP3    H152714   5.593   4.447   5.340 -0.0122  0.0040  0.8583
10433TIP3    H252715   5.718   4.382   5.283 -1.2007 -0.8510 -0.8596
10434TIP3   OH252716   0.832   4.036   0.892  0.7052  1.0533 -0.6582
10434TIP3    H152717   0.892   4.098   0.850 -0.3536  1.4460 -1.6402
10434TIP3    H252718   0.828   3.962   0.831  1.6396  0.1733  0.3085
10435TIP3   OH252719   0.393   0.099   3.975  0.0609 -0.1645 -0.0619
10435TIP3    H152720   0.316   0.063   3.930  0.4490  0.2395 -1.0773
10435TIP3    H252721   0.373   0.192   3.985  1.2781  0.3852 -2.2520
10436TIP3   OH252722   1.689   1.835   1.049 -0.2555 -0.4264  0.0330
10436TIP3    H152723   1.704   1.879   0.966  1.8290 -0.7394  0.1846
10436TIP3    H252724   1.721   1.746   1.035 -0.3699 -0.6371  1.0178
10437TIP3   OH252725   2.895   3.376   4.722  0.1835  0.1228 -0.1173
10437TIP3    H152726   2.849   3.347   4.643 -1.8263  1.2391  0.5703
10437TIP3    H252727   2.927   3.463   4.701 -0.4106  0.4482  0.2942
10438TIP3   OH252728   4.512   4.295  14.702  0.0021  0.2138 -0.0675
10438TIP3    H152729   4.501   4.250  14.618 -1.4082  1.2643 -0.5000
10438TIP3    H252730   4.580   4.361  14.686 -1.9401  2.0752 -1.1954
10439TIP3   OH252731   2.614   1.027   1.887 -0.0261 -0.3807  0.0901
10439TIP3    H152732   2.687   1.032   1.949  0.8381 -3.0779 -0.5569
10439TIP3    H252733   2.583   0.937   1.894 -1.2389 -0.1810 -1.9186
10440TIP3   OH252734   4.962   1.686   4.814 -0.6658  0.2785 -0.0114
10440TIP3    H152735   5.049   1.648   4.831 -0.8763  0.5126  1.7986
10440TIP3    H252736   4.901   1.617   4.839 -1.0314  0.1417 -1.2107
10441TIP3   OH252737   2.914   0.105  17.234  0.3568  0.1562 -0.0557
10441TIP3    H152738   2.889   0.013  17.235 -0.9639  0.3655 -2.7908
10441TIP3    H252739   2.907   0.131  17.142 -0.2366  3.2109  0.7138
10442TIP3   OH252740   6.618   5.374  12.625  0.0266  0.0144 -0.1877
10442TIP3    H152741   6.614   5.330  12.710 -0.7834 -2.5547 -1.4469
10442TIP3    H252742   6.603   5.304  12.562 -1.9571  2.2500 -2.3697
10443TIP3   OH252743   3.291   2.666  13.408  0.2773  0.1835  0.2699
10443TIP3    H152744   3.334   2.691  13.326 -0.8225  0.2374 -0.3067
10443TIP3    H252745   3.204   2.637  13.382 -0.0970  0.2139  1.4286
10444TIP3   OH252746   1.779   1.678   6.447  0.2032 -0.1574 -0.3013
10444TIP3    H152747   1.748   1.592   6.419  0.2434 -0.7107  1.2657
10444TIP3    H252748   1.700   1.725   6.471 -0.1048  1.2077 -3.4376
10445TIP3   OH252749   6.073   3.629  11.427  0.6844  0.7784  0.3340
10445TIP3    H152750   6.056   3.722  11.410  0.8075  1.2371  2.4020
10445TIP3    H252751   6.071   3.588  11.341 -0.7280  2.4735 -0.4983
10446TIP3   OH252752   1.320   3.307   6.423  0.2443 -0.3033 -0.1340
10446TIP3    H152753   1.279   3.384   6.384  0.8148 -0.1113 -0.3755
10446TIP3    H252754   1.414   3.318   6.404  0.1817 -1.8339 -1.5719
10447TIP3   OH252755   0.014   3.494  12.395 -0.2164 -0.1962  0.1267
10447TIP3    H152756  -0.028   3.580  12.402  0.5111  0.2596 -0.7837
10447TIP3    H252757  -0.020   3.457  12.313  0.6179 -0.1020 -0.2789
10448TIP3   OH252758   2.850   4.621  17.328 -0.3700 -0.2613  0.4871
10448TIP3    H152759   2.943   4.615  17.352 -0.5591  0.5088  1.4656
10448TIP3    H252760   2.849   4.609  17.233  0.6079 -1.4733  0.5967
10449TIP3   OH252761   6.539   0.988   5.990 -0.9920  0.0682 -0.4175
10449TIP3    H152762   6.537   0.896   5.965 -0.4138 -0.4634  1.3248
10449TIP3    H252763   6.626   1.001   6.028  0.4313  2.3436 -3.9089
10450TIP3   OH252764   4.212   1.774  14.782  0.5365 -0.1126 -1.0132
10450TIP3    H152765   4.215   1.852  14.838 -1.9063  1.2195 -2.6066
10450TIP3    H252766   4.280   1.789  14.716  0.5075  0.3662 -0.9373
10451TIP3   OH252767   5.270   5.432   1.211 -0.3590 -0.2674 -0.3060
10451TIP3    H152768   5.338   5.365   1.212  0.0137  0.0926 -0.8241
10451TIP3    H252769   5.217   5.410   1.134  0.1047  0.3453 -0.8199
10452TIP3   OH252770   1.410   5.839  13.486 -0.2085 -0.2188 -0.4880
10452TIP3    H152771   1.421   5.889  13.405 -0.7059 -0.1731 -0.5292
10452TIP3    H252772   1.392   5.905  13.553 -3.2596 -0.4252 -0.9488
10453TIP3   OH252773   4.886   5.957  15.804  0.6585  0.3930 -0.7652
10453TIP3    H152774   4.841   5.873  15.801  0.9864  0.1649  0.4168
10453TIP3    H252775   4.849   6.007  15.731 -2.0720  0.5155  0.5968
10454TIP3   OH252776   2.118   4.562   6.594 -0.0805 -0.5507 -0.6290
10454TIP3    H152777   2.211   4.540   6.602  0.6428  2.2354 -0.2223
10454TIP3    H252778   2.118   4.651   6.558 -2.5280  0.2534  1.1211
10455TIP3   OH252779   5.138   1.775  15.889  0.0770  0.1646 -0.1555
10455TIP3    H152780   5.179   1.785  15.804  0.5154  0.8468  0.1217
10455TIP3    H252781   5.066   1.838  15.888 -2.2100 -2.2991 -1.3345
10456TIP3   OH252782   6.491   5.231  12.395  0.2374 -0.4127  0.4957
10456TIP3    H152783   6.529   5.194  12.316  1.3950  2.4202 -0.3885
10456TIP3    H252784   6.401   5.198  12.396  0.6119 -1.5911 -1.2210
10457TIP3   OH252785   1.783   3.587  11.137 -0.0185 -0.4456 -0.5180
10457TIP3    H152786   1.783   3.637  11.055  1.7712  0.3602 -0.0756
10457TIP3    H252787   1.766   3.653  11.205  1.4627 -0.5491 -0.0110
10458TIP3   OH252788   3.923   4.044  16.593  0.1696  0.4763  0.1282
10458TIP3    H152789   3.998   3.996  16.558  0.4394  0.4821  0.6807
10458TIP3    H252790   3.871   3.978  16.639  1.0401  0.8486  1.7199
10459TIP3   OH252791   3.021   3.391  12.251 -0.3054  0.7569 -0.2829
10459TIP3    H152792   3.027   3.296  12.240  0.9635  1.0730 -3.4254
10459TIP3    H252793   2.935   3.405  12.289  0.0224 -1.6881  1.6526
10460TIP3   OH252794   4.341   4.363   5.658  0.3063  0.6014 -0.2253
10460TIP3    H152795   4.270   4.420   5.689  1.7395  2.7809 -0.7521
10460TIP3    H252796   4.329   4.282   5.708 -1.6651  1.4139  0.7661
10461TIP3   OH252797   4.401   4.070   1.651  0.6867  0.0627 -0.7439
10461TIP3    H152798   4.412   4.097   1.560  0.4023  0.8691 -0.5449
10461TIP3    H252799   4.491   4.063   1.684  0.8021 -0.4922 -1.1494
10462TIP3   OH252800   2.896   2.548   4.412  0.6963  0.7582  0.2358
10462TIP3    H152801   2.884   2.632   4.369 -2.2042 -0.7924 -2.4057
10462TIP3    H252802   2.890   2.484   4.342 -3.1733 -1.9104  2.5989
10463TIP3   OH252803   4.458   4.387   5.411 -0.2020 -0.7449  0.6389
10463TIP3    H152804   4.412   4.375   5.494 -1.6363  2.1956  0.3904
10463TIP3    H252805   4.542   4.344   5.424 -0.7697 -1.2345  3.2449
10464TIP3   OH252806   4.664   3.168   3.771 -0.2064 -0.1961 -0.1140
10464TIP3    H152807   4.597   3.115   3.816 -0.3310  1.1513  1.3725
10464TIP3    H252808   4.711   3.105   3.716 -1.0262 -1.6505  0.7749
10465TIP3   OH252809   4.770   6.264   1.642  0.1241 -0.5038 -0.3373
10465TIP3    H152810   4.803   6.260   1.552 -0.7989 -2.0952 -0.6473
10465TIP3    H252811   4.677   6.244   1.634 -0.4418  1.4686  0.7711
10466TIP3   OH252812   1.267   4.486   1.657  0.1706 -0.0056 -0.0909
10466TIP3    H152813   1.179   4.453   1.674 -0.1822  0.5586 -0.7554
10466TIP3    H252814   1.255   4.579   1.640  0.9118  0.0963 -0.1052
10467TIP3   OH252815   1.921   2.657  11.476  0.5531  0.9195 -0.0866
10467TIP3    H152816   1.893   2.652  11.567 -0.9421 -0.2623 -0.5758
10467TIP3    H252817   2.013   2.631  11.477  0.4533  0.5727  1.0425
10468TIP3   OH252818   0.845   1.168  14.788  0.6021 -0.1867  0.0345
10468TIP3    H152819   0.840   1.231  14.716  0.3778  0.7515  0.8481
10468TIP3    H252820   0.839   1.222  14.867 -1.2665 -1.3744  0.7662
10469TIP3   OH252821   2.623   4.772   4.531  0.5097 -0.2334 -0.0849
10469TIP3    H152822   2.709   4.807   4.510  0.2154  0.8983  0.5181
10469TIP3    H252823   2.637   4.678   4.544  1.7800  0.0572  0.7751
10470TIP3   OH252824   3.672   5.098  10.973 -0.1668 -0.4997  0.3531
10470TIP3    H152825   3.739   5.164  10.956 -0.8004 -0.4914 -2.5251
10470TIP3    H252826   3.687   5.072  11.064  1.9291  1.4932  0.6748
10471TIP3   OH252827   5.897   1.568  12.913 -0.0378  0.4218 -0.3103
10471TIP3    H152828   5.987   1.601  12.901  0.2195 -0.6996 -1.8171
10471TIP3    H252829   5.893   1.543  13.005  1.8989 -1.3625 -0.6264
10472TIP3   OH252830   0.502   1.569   1.237  0.9444 -0.4530 -0.0316
10472TIP3    H152831   0.465   1.643   1.287  1.1329 -0.9922  0.9245
10472TIP3    H252832   0.426   1.529   1.195  0.7678 -0.0635 -0.0926
10473TIP3   OH252833   0.397   0.406   3.487  0.0290 -0.1785  0.3780
10473TIP3    H152834   0.418   0.498   3.508 -0.8046  0.6366 -2.0322
10473TIP3    H252835   0.471   0.377   3.433 -2.1489  1.0276 -3.6888
10474TIP3   OH252836   5.114   2.240   0.654 -0.1198 -0.8165 -0.0085
10474TIP3    H152837   5.041   2.186   0.624 -0.2420 -0.1791 -0.9098
10474TIP3    H252838   5.170   2.180   0.703  0.3373 -2.0508 -1.9212
10475TIP3   OH252839   4.404   2.416  15.489 -0.7323  0.0266 -0.1619
10475TIP3    H152840   4.426   2.501  15.450 -1.9549  0.2851 -0.3520
10475TIP3    H252841   4.339   2.378  15.429 -0.7620 -0.7020  0.3142
10476TIP3   OH252842   5.042   2.093  15.586  0.6466  0.1419  0.2918
10476TIP3    H152843   5.120   2.072  15.536  1.2711 -0.8884  1.6570
10476TIP3    H252844   4.990   2.012  15.585  0.3292  0.3378  0.7077
10477TIP3   OH252845   3.563   4.472  12.975 -0.2742 -0.5712  0.2777
10477TIP3    H152846   3.508   4.516  13.040 -1.2250  0.4007 -1.1285
10477TIP3    H252847   3.601   4.544  12.924 -0.2529 -1.3370 -0.7997
10478TIP3   OH252848   3.519   5.511   0.541 -0.2147 -0.5435  0.4071
10478TIP3    H152849   3.453   5.491   0.475  0.8253  0.1507 -0.8883
10478TIP3    H252850   3.469   5.525   0.622 -1.7855  0.9402 -0.7470
10479TIP3   OH252851   3.061   5.822  13.950  0.1729  0.3429  0.3496
10479TIP3    H152852   3.013   5.761  13.895 -1.1860  0.1352  1.7134
10479TIP3    H252853   3.153   5.805  13.930 -0.2277 -1.2064 -0.2600
10480TIP3   OH252854   0.659   4.040  13.267 -0.6084  0.0586 -0.2436
10480TIP3    H152855   0.701   4.101  13.327 -2.7909 -0.8967  2.4925
10480TIP3    H252856   0.650   3.959  13.317 -2.4195 -0.8600 -1.8846
10481TIP3   OH252857   5.139   0.200  15.414  0.6133 -0.3534  1.1651
10481TIP3    H152858   5.093   0.161  15.339  0.9094  1.9056 -0.2930
10481TIP3    H252859   5.094   0.165  15.491  0.1925 -2.6339 -0.0390
10482TIP3   OH252860   6.365   5.915  12.809  0.0648 -0.1848  0.2206
10482TIP3    H152861   6.411   5.989  12.847 -1.6978  1.3011 -0.4088
10482TIP3    H252862   6.413   5.838  12.840  1.9818  1.1991  0.8342
10483TIP3   OH252863   6.076   5.829  13.460 -0.5386  0.6613 -0.0036
10483TIP3    H152864   6.124   5.803  13.538 -0.9728 -1.2813 -0.3283
10483TIP3    H252865   6.111   5.915  13.437 -0.4867  1.3283  2.3691
10484TIP3   OH252866   2.434   4.888   5.153  0.3120  0.4675  0.3415
10484TIP3    H152867   2.395   4.816   5.104  2.1606 -0.2649 -0.1474
10484TIP3    H252868   2.398   4.879   5.242 -1.7549  0.7776 -0.4030
10485TIP3   OH252869   4.444   1.697   5.219  0.4489  0.2281  0.2040
10485TIP3    H152870   4.499   1.621   5.237 -0.2931 -0.3709 -0.0096
10485TIP3    H252871   4.392   1.709   5.299 -0.4616 -0.3839 -0.2800
10486TIP3   OH252872   3.346   1.283  13.494 -0.3701 -0.5678  0.1664
10486TIP3    H152873   3.353   1.376  13.517 -1.2006  0.2541 -2.4995
10486TIP3    H252874   3.436   1.254  13.484 -0.0908 -0.1610  1.3174
10487TIP3   OH252875   2.090   4.056  11.757 -0.5423 -0.2474  0.6827
10487TIP3    H152876   2.118   4.041  11.667 -0.8339  0.6124  0.4404
10487TIP3    H252877   2.164   4.102  11.797 -0.9982  0.7089  0.4539
10488TIP3   OH252878   4.303   3.138   1.373 -0.0709  0.7601  0.2180
10488TIP3    H152879   4.345   3.098   1.296 -0.6989  1.0811 -0.3024
10488TIP3    H252880   4.226   3.085   1.390 -0.1745  0.9516  0.3547
10489TIP3   OH252881   2.596   0.908  13.842 -0.2772 -0.5279 -0.2561
10489TIP3    H152882   2.648   0.969  13.790 -0.1405 -0.5275 -0.1201
10489TIP3    H252883   2.597   0.945  13.931 -4.2122  1.9635 -1.0180
10490TIP3   OH252884   0.738   3.133   4.764  0.1874 -0.8334  0.1059
10490TIP3    H152885   0.720   3.131   4.670  1.3073  1.0610 -0.2062
10490TIP3    H252886   0.658   3.098   4.805 -1.2761  0.5026 -1.4647
10491TIP3   OH252887   1.111   4.873  13.315 -0.1489 -0.7970 -0.6146
10491TIP3    H152888   1.132   4.967  13.315  1.0336 -1.0390 -0.9808
10491TIP3    H252889   1.103   4.850  13.223  0.7597 -1.2818 -0.5907
10492TIP3   OH252890   5.576   3.955  16.361 -0.3581  0.1039  0.0686
10492TIP3    H152891   5.525   4.023  16.316 -2.0135 -1.1096 -0.0033
10492TIP3    H252892   5.520   3.877  16.357  1.0586 -1.0142  1.0038
10493TIP3   OH252893   1.649   3.323   3.249 -0.5912 -0.0835  0.4066
10493TIP3    H152894   1.596   3.245   3.232  0.7249 -1.2667  1.4928
10493TIP3    H252895   1.635   3.379   3.173 -1.7485 -1.2733 -0.2903
10494TIP3   OH252896   1.058   1.646   5.378 -0.0211  0.1444 -0.0118
10494TIP3    H152897   1.140   1.630   5.330 -0.0595  0.4796 -0.1906
10494TIP3    H252898   1.044   1.741   5.371  0.2958  0.2986  1.1818
10495TIP3   OH252899   5.674   3.548   0.933  0.9131 -0.1685  0.2954
10495TIP3    H152900   5.734   3.490   0.979 -0.0319 -0.0234  1.7771
10495TIP3    H252901   5.675   3.629   0.985 -0.6959 -0.2364  0.4722
10496TIP3   OH252902   5.619   5.231   2.207  0.3900  0.8776  0.4746
10496TIP3    H152903   5.671   5.151   2.210 -2.6669 -1.2494  0.3132
10496TIP3    H252904   5.653   5.284   2.279  1.4456 -1.2399  1.6336
10497TIP3   OH252905   4.359   5.998   5.621  0.1718  0.0719  0.0694
10497TIP3    H152906   4.399   6.010   5.535  0.7710 -1.1293  0.1594
10497TIP3    H252907   4.367   5.904   5.638 -0.2041  0.2490  1.3112
10498TIP3   OH252908   1.292   3.032  14.382 -0.0465 -0.0635  0.0765
10498TIP3    H152909   1.197   3.021  14.373 -0.1967  0.8023  0.4916
10498TIP3    H252910   1.312   3.107  14.326  0.3365 -0.0210  0.2702
10499TIP3   OH252911   3.816   4.811   2.429  0.2254  0.1287 -0.0921
10499TIP3    H152912   3.778   4.724   2.417 -0.1411  0.2397  0.2330
10499TIP3    H252913   3.824   4.820   2.524  0.7475  0.2466 -0.1416
10500TIP3   OH252914   6.705   2.423  14.827  0.3938  0.1543 -0.0965
10500TIP3    H152915   6.678   2.514  14.832  0.6400  0.3208 -1.2890
10500TIP3    H252916   6.748   2.416  14.741  1.4796 -0.7890  0.4898
10501TIP3   OH252917   1.335   4.648  14.460 -0.4164  0.3252 -0.0070
10501TIP3    H152918   1.300   4.720  14.512  1.6078  0.1565  1.7290
10501TIP3    H252919   1.287   4.571  14.489 -0.3983  0.4885  0.4563
10502TIP3   OH252920   2.922   4.331  17.609  0.1412 -0.4620  0.2541
10502TIP3    H152921   2.852   4.383  17.649  0.9721  1.2233 -0.3974
10502TIP3    H252922   2.897   4.241  17.626 -1.7180  0.1186  0.8446
10503TIP3   OH252923   6.361   6.434  15.170 -1.0519 -0.4220  0.1382
10503TIP3    H152924   6.416   6.471  15.239 -1.1348  0.0327 -0.0379
10503TIP3    H252925   6.417   6.369  15.127  0.0455  1.3762 -1.2949
10504TIP3   OH252926   4.389   1.522  16.417  0.4490  0.3020 -0.2794
10504TIP3    H152927   4.367   1.451  16.358  0.4285 -0.7214  0.9270
10504TIP3    H252928   4.408   1.596  16.360  1.0278 -0.8209 -1.5731
10505TIP3   OH252929   5.211   4.835   3.512 -0.1756 -0.4933 -0.3280
10505TIP3    H152930   5.299   4.864   3.538 -0.5050  0.1764  0.0461
10505TIP3    H252931   5.176   4.907   3.460 -0.7028 -0.5476 -0.0533
10506TIP3   OH252932   6.550   3.566   4.310  0.0006 -0.4937 -0.4184
10506TIP3    H152933   6.476   3.561   4.249  0.2728 -1.3561 -0.6966
10506TIP3    H252934   6.595   3.482   4.300  1.1097  0.0767 -0.3696
10507TIP3   OH252935   1.592   4.297   1.140  0.2876  0.2851 -0.0645
10507TIP3    H152936   1.532   4.224   1.118  0.4004 -0.3215  1.5489
10507TIP3    H252937   1.610   4.286   1.233  0.6387  2.1705  0.1216
10508TIP3   OH252938   1.098   4.542  14.933 -0.1351  0.5394 -0.3096
10508TIP3    H152939   1.131   4.531  15.022 -1.0552  0.9314  0.0939
10508TIP3    H252940   1.028   4.606  14.941 -1.1139 -0.3893 -1.1046
10509TIP3   OH252941   4.550   6.541  11.977 -0.1302  0.0264  0.0485
10509TIP3    H152942   4.538   6.448  11.996  3.1318 -0.5400 -0.0375
10509TIP3    H252943   4.517   6.586  12.054 -1.9035 -1.1674  0.0302
10510TIP3   OH252944   2.571   3.330  16.798 -0.4781  0.0616  0.7255
10510TIP3    H152945   2.662   3.328  16.768  0.7980  0.8149  4.1028
10510TIP3    H252946   2.524   3.376  16.729  1.9370  0.6777 -0.6172
10511TIP3   OH252947   2.697   6.443   0.018  0.0866 -0.2077 -0.2840
10511TIP3    H152948   2.718   6.486   0.101  1.7033  1.8181 -1.6225
10511TIP3    H252949   2.652   6.363   0.043  0.4652  0.3446  2.5326
10512TIP3   OH252950   5.971   6.188   3.409  0.1410 -0.3444  0.6437
10512TIP3    H152951   6.025   6.122   3.364  0.0949  0.2410 -0.2806
10512TIP3    H252952   6.001   6.184   3.500  0.8891 -0.8883  0.3891
10513TIP3   OH252953   4.593   2.583  11.663 -0.1376 -0.2048 -0.5439
10513TIP3    H152954   4.677   2.575  11.707 -0.0470 -0.9829 -0.8478
10513TIP3    H252955   4.573   2.495  11.632 -0.6087  0.1517 -1.3072
10514TIP3   OH252956   0.045   4.797   4.694  0.7303  0.5290  0.2593
10514TIP3    H152957  -0.048   4.777   4.680  0.5656  2.3677 -1.8217
10514TIP3    H252958   0.073   4.735   4.762 -1.1790 -2.2934 -1.3424
10515TIP3   OH252959   5.871   3.969  13.698 -0.4026  0.3442 -0.0332
10515TIP3    H152960   5.929   3.900  13.668  1.8413  2.1884 -0.1635
10515TIP3    H252961   5.813   3.986  13.624 -0.8815 -1.2312 -0.0544
10516TIP3   OH252962   3.073   0.987   0.740  0.0641 -0.4212 -0.3085
10516TIP3    H152963   3.117   1.066   0.709  3.9535 -2.0139  0.4789
10516TIP3    H252964   3.030   1.014   0.821 -1.0110  1.3985 -1.4157
10517TIP3   OH252965   1.933   0.074  11.723  0.3527  0.1959  0.1911
10517TIP3    H152966   2.014   0.069  11.775  0.4514  1.4512  0.1800
10517TIP3    H252967   1.890   0.154  11.753 -0.1682  0.3125 -0.8425
10518TIP3   OH252968   2.607   1.264  15.053  0.2388  0.0303 -0.1540
10518TIP3    H152969   2.572   1.353  15.057  1.7700  0.7148 -1.1573
10518TIP3    H252970   2.674   1.262  15.121  1.2272  0.1332 -1.1056
10519TIP3   OH252971   2.683   5.388   5.882 -0.2578 -0.4608 -0.1537
10519TIP3    H152972   2.608   5.415   5.935 -0.1324  1.1865 -0.7580
10519TIP3    H252973   2.720   5.313   5.929 -1.1843 -0.1411  1.1327
10520TIP3   OH252974   2.750   0.087   4.077  0.4891 -0.3819 -0.6288
10520TIP3    H152975   2.684   0.131   4.024  0.5319 -1.6369 -1.7830
10520TIP3    H252976   2.707   0.008   4.108  1.0977 -0.6643 -0.4869
10521TIP3   OH252977   5.187   6.687  11.629  0.1431 -0.9799  0.5323
10521TIP3    H152978   5.247   6.656  11.561  0.1223  0.0624  0.0231
10521TIP3    H252979   5.140   6.760  11.589 -2.0090 -2.2080  0.6792
10522TIP3   OH252980   1.762   2.216   4.002 -0.0333  0.3769  0.1161
10522TIP3    H152981   1.794   2.304   3.984  1.3700 -0.4019 -1.4331
10522TIP3    H252982   1.792   2.164   3.927 -1.2144 -1.3267  0.7763
10523TIP3   OH252983   4.185   5.392  11.751  0.2162 -0.2118  0.4203
10523TIP3    H152984   4.111   5.447  11.776  0.4963  0.0498  0.6707
10523TIP3    H252985   4.194   5.330  11.824 -1.4898 -2.0290 -0.8300
10524TIP3   OH252986   5.693   2.093   4.445  0.3242  0.2409 -0.0051
10524TIP3    H152987   5.696   2.146   4.524  1.3372 -0.6626  0.5991
10524TIP3    H252988   5.757   2.133   4.386 -0.0462  0.6042 -0.1602
10525TIP3   OH252989   4.486   1.565   2.223 -0.2315  0.4618 -0.0504
10525TIP3    H152990   4.446   1.494   2.273 -0.5418 -0.7285 -1.8858
10525TIP3    H252991   4.415   1.598   2.169  0.5613  0.2550 -1.2560
10526TIP3   OH252992   4.458   1.261   0.402  0.0650 -0.8837  0.0523
10526TIP3    H152993   4.459   1.269   0.307  1.0342 -0.9615  0.0388
10526TIP3    H252994   4.435   1.348   0.434  0.1361 -0.7551 -0.2487
10527TIP3   OH252995   2.188   4.340   2.926  0.0345  0.3546  0.1858
10527TIP3    H152996   2.221   4.424   2.894 -2.0188  1.8317  1.7443
10527TIP3    H252997   2.141   4.302   2.851  0.8775  0.6092 -0.4913
10528TIP3   OH252998   2.312   5.508  13.542  0.2312 -0.5553  0.2747
10528TIP3    H152999   2.365   5.587  13.555  0.9599 -1.2217  1.5148
10528TIP3    H253000   2.312   5.465  13.627  0.0027 -2.0055 -0.4381
10529TIP3   OH253001   0.718   2.056   3.392 -0.7849  0.0661  0.0097
10529TIP3    H153002   0.804   2.095   3.379 -1.9017  2.1328 -1.6354
10529TIP3    H253003   0.722   1.972   3.345  0.0702  0.5395 -0.7877
10530TIP3   OH253004   2.814   5.226  15.436  0.0523  0.3247 -0.0337
10530TIP3    H153005   2.789   5.134  15.434 -0.5589  0.4958 -0.2932
10530TIP3    H253006   2.760   5.267  15.369 -0.1189  0.9849  0.5020
10531TIP3   OH253007   6.508   2.012   5.147  0.1816 -0.3381 -0.6232
10531TIP3    H153008   6.509   2.060   5.064  1.0620 -0.1671 -0.5207
10531TIP3    H253009   6.462   1.931   5.127 -1.0813  0.4019 -0.8684
10532TIP3   OH253010   1.805   5.006   2.614 -0.0991  0.0574 -0.0677
10532TIP3    H153011   1.802   5.064   2.539 -0.7241  0.9795  0.6449
10532TIP3    H253012   1.895   4.973   2.616  0.9759  2.8003  0.8033
10533TIP3   OH253013   3.481   3.640   3.372 -0.3186  0.2749  1.0428
10533TIP3    H153014   3.391   3.654   3.402  0.0371  1.9073  1.4429
10533TIP3    H253015   3.535   3.690   3.433  0.6957  0.8709 -0.2836
10534TIP3   OH253016   4.243   2.608  17.036 -0.1314  0.0636  0.2999
10534TIP3    H153017   4.285   2.527  17.008  0.7997  1.4914 -2.8928
10534TIP3    H253018   4.315   2.669  17.051 -0.8550  0.6255  1.7370
10535TIP3   OH253019   4.029   0.628   2.646 -0.1238 -0.2833 -0.0999
10535TIP3    H153020   4.117   0.664   2.630 -0.2277 -0.3282 -0.7988
10535TIP3    H253021   3.973   0.672   2.582 -0.4032 -1.0876 -0.4151
10536TIP3   OH253022   5.897   2.001  17.334 -0.4300 -0.4086  0.2987
10536TIP3    H153023   5.811   1.960  17.332 -0.5717 -0.1745  1.1728
10536TIP3    H253024   5.936   1.980  17.249 -1.5987  0.0594 -0.3662
10537TIP3   OH253025   1.869   3.612   4.698  0.1505  0.3784  0.1205
10537TIP3    H153026   1.863   3.519   4.719 -1.0820  0.9186  2.4593
10537TIP3    H253027   1.945   3.619   4.640  1.6994 -1.7652  1.7393
10538TIP3   OH253028   2.376   3.881   4.766 -0.1190 -0.6520  0.7191
10538TIP3    H153029   2.304   3.839   4.719 -0.6255 -0.3288  1.1994
10538TIP3    H253030   2.359   3.862   4.859 -0.8309  1.3051  1.0376
10539TIP3   OH253031   2.435   5.475  15.081  0.1658  0.0781 -0.1698
10539TIP3    H153032   2.489   5.525  15.021 -0.3485 -0.1409 -0.8212
10539TIP3    H253033   2.399   5.404  15.029 -2.2845  1.2800 -0.2813
10540TIP3   OH253034   1.437   0.055   0.199  0.1311 -0.2416 -0.6112
10540TIP3    H153035   1.448   0.103   0.281  0.8476 -2.4106  0.6467
10540TIP3    H253036   1.517   0.003   0.191  0.0115 -0.1806 -2.6428
10541TIP3   OH253037   4.003   6.537   5.652 -0.3317  0.5466 -0.1899
10541TIP3    H153038   4.013   6.590   5.731  1.0312  0.8312 -0.5116
10541TIP3    H253039   4.026   6.597   5.580  0.2091 -0.1750 -0.6418
10542TIP3   OH253040   3.472   1.166  17.180  0.2719 -0.6603  0.9993
10542TIP3    H153041   3.404   1.102  17.158  1.0820 -0.9020 -0.9418
10542TIP3    H253042   3.548   1.140  17.130  1.5483  0.1758  2.3975
10543TIP3   OH253043   4.299   0.644   3.487 -0.2615  0.2286 -0.3542
10543TIP3    H153044   4.249   0.671   3.410 -0.4725 -1.2107 -0.7496
10543TIP3    H253045   4.357   0.575   3.455 -0.9445 -0.9969  0.9190
10544TIP3   OH253046   1.825   1.329   4.042  0.7861 -0.2928  0.7708
10544TIP3    H153047   1.908   1.284   4.060  1.8151  0.9029 -0.7264
10544TIP3    H253048   1.845   1.422   4.052 -0.2225  0.0459 -0.1601
10545TIP3   OH253049   0.300   3.431  13.536 -0.2435  0.5515  0.1568
10545TIP3    H153050   0.262   3.410  13.451 -0.5750 -0.5754  0.5727
10545TIP3    H253051   0.242   3.389  13.599 -1.0483  2.8819  1.0589
10546TIP3   OH253052   2.689   1.224   2.142  0.2381  0.8462  0.0387
10546TIP3    H153053   2.748   1.148   2.143  1.2762  1.5917  3.1127
10546TIP3    H253054   2.741   1.294   2.103 -0.3406  0.3647 -1.7257
10547TIP3   OH253055   2.854   3.926  15.843  0.0672  0.1692 -0.5180
10547TIP3    H153056   2.921   3.890  15.784 -0.4685 -0.1611 -0.9286
10547TIP3    H253057   2.830   4.010  15.804 -1.2178 -0.6262 -1.4984
10548TIP3   OH253058   0.261   6.427  13.108 -0.1143  0.3057  0.1649
10548TIP3    H153059   0.193   6.478  13.153 -1.1172  0.8129 -1.8250
10548TIP3    H253060   0.228   6.337  13.111 -0.3996  0.4048  0.0497
10549TIP3   OH253061   3.450   6.340   2.509 -0.0912  0.2363 -0.5503
10549TIP3    H153062   3.356   6.350   2.495 -0.1413 -0.2612 -0.5799
10549TIP3    H253063   3.486   6.427   2.492 -0.9263  1.3573  2.7444
10550TIP3   OH253064   4.181   1.020  15.368  0.0022  0.4546 -0.2362
10550TIP3    H153065   4.135   0.998  15.287 -0.6478  0.1228  0.2131
10550TIP3    H253066   4.167   0.943  15.424  2.8354 -0.5866 -0.8051
10551TIP3   OH253067   3.506   4.767  13.500 -0.1578  0.0464  0.2881
10551TIP3    H153068   3.537   4.743  13.412 -0.6507 -0.5220  0.2703
10551TIP3    H253069   3.566   4.837  13.528  0.3041 -0.1120 -0.2982
10552TIP3   OH253070   5.294   1.415  12.112  0.4628  0.0653 -0.9657
10552TIP3    H153071   5.203   1.386  12.108  0.0715  1.0059  0.4608
10552TIP3    H253072   5.339   1.347  12.162  0.2908  0.1612 -0.6778
10553TIP3   OH253073   5.091   1.733   2.198  0.6624  0.1082  0.6178
10553TIP3    H153074   5.049   1.799   2.252 -1.7750 -1.8887  1.3457
10553TIP3    H253075   5.156   1.693   2.255  1.2807  0.9978  0.5620
10554TIP3   OH253076   5.922   4.128  17.114 -0.2965 -0.3351  0.0250
10554TIP3    H153077   5.931   4.212  17.160  0.0202  0.2473 -1.0780
10554TIP3    H253078   5.925   4.151  17.021  1.1362 -1.7124 -0.2932
10555TIP3   OH253079   1.024   3.485  13.161 -0.4686  0.5695  0.1835
10555TIP3    H153080   0.957   3.512  13.098 -0.0954  1.2333  0.0619
10555TIP3    H253081   1.091   3.442  13.108 -1.1836 -0.8715  0.4095
10556TIP3   OH253082   3.411   0.322  11.802  0.1345 -0.3215 -0.2532
10556TIP3    H153083   3.404   0.409  11.763 -0.4376 -0.1006  0.3292
10556TIP3    H253084   3.392   0.335  11.894 -2.9499 -1.4862 -0.5978
10557TIP3   OH253085   2.933   1.488   2.765 -0.3015 -0.1533  0.4058
10557TIP3    H153086   2.883   1.408   2.749 -0.6410  0.4522 -1.9092
10557TIP3    H253087   3.012   1.477   2.712  0.2374  0.5037  1.0643
10558TIP3   OH253088   4.796   1.518  14.323 -0.2464 -0.5854  0.1379
10558TIP3    H153089   4.731   1.479  14.382 -0.4349 -1.7908 -0.8278
10558TIP3    H253090   4.753   1.521  14.238  0.4065  0.1106 -0.1808
10559TIP3   OH253091   1.231   2.710   1.060 -0.5576 -0.8007  0.0516
10559TIP3    H153092   1.258   2.700   0.969 -2.0270  3.2172 -1.0253
10559TIP3    H253093   1.144   2.670   1.063 -1.7710  1.5812 -1.1941
10560TIP3   OH253094   6.555   0.987  15.970 -0.0051 -0.7016 -0.7617
10560TIP3    H153095   6.635   0.947  16.004  0.1432  0.7972  0.7666
10560TIP3    H253096   6.486   0.958  16.029 -0.3238 -0.6778 -1.1151
10561TIP3   OH253097   6.371   3.386  14.945 -0.6298 -0.1112 -0.4469
10561TIP3    H153098   6.309   3.449  14.907  0.5006  0.0843 -2.0593
10561TIP3    H253099   6.455   3.431  14.945 -0.4338 -0.3921  1.6864
10562TIP3   OH253100   2.745   3.532   2.984  0.2383 -0.8206 -0.1482
10562TIP3    H153101   2.688   3.574   3.048  0.9375 -0.2484  0.1069
10562TIP3    H253102   2.769   3.602   2.923  0.9529 -0.9703 -0.0519
10563TIP3   OH253103   4.536   4.802   6.402 -0.5925  0.4210  0.7417
10563TIP3    H153104   4.526   4.754   6.485 -1.0259  0.4287  0.6962
10563TIP3    H253105   4.501   4.889   6.421  0.9200  0.9959  1.0612
10564TIP3   OH253106   5.822   5.498  12.353  0.3856 -0.2327 -0.4615
10564TIP3    H153107   5.804   5.570  12.413  0.4893  1.0494 -1.9204
10564TIP3    H253108   5.754   5.503  12.287  0.1052 -1.8040 -0.3375
10565TIP3   OH253109   0.993   6.572   4.062 -0.0119  0.2456 -0.0181
10565TIP3    H153110   0.951   6.572   4.148 -0.1387 -0.0397 -0.0792
10565TIP3    H253111   0.923   6.593   4.001  0.2148  1.1094  0.0105
10566TIP3   OH253112   5.186   6.695   5.269 -0.0296 -0.2320  0.1336
10566TIP3    H153113   5.261   6.720   5.215 -1.0581  0.5802 -0.9571
10566TIP3    H253114   5.166   6.773   5.320 -0.5524 -0.2215 -0.0804
10567TIP3   OH253115   0.476   4.353  11.364 -0.3265  0.0004 -0.4459
10567TIP3    H153116   0.387   4.352  11.329 -0.6624 -1.7203  0.3205
10567TIP3    H253117   0.470   4.405  11.444 -0.1424  1.6894 -1.4988
10568TIP3   OH253118   0.195   4.300  15.569  0.5144 -0.3530  0.1405
10568TIP3    H153119   0.267   4.359  15.547 -0.4242  0.9443  0.4090
10568TIP3    H253120   0.215   4.219  15.523  0.9169  0.7772 -1.8098
10569TIP3   OH253121   3.198   3.522   3.614 -0.5451  0.2617 -0.6159
10569TIP3    H153122   3.171   3.579   3.542 -0.3786  0.4232 -0.5486
10569TIP3    H253123   3.220   3.439   3.571  0.6005  0.6841 -0.8859
10570TIP3   OH253124   1.237   2.276  13.122 -0.0471 -0.4426  0.0542
10570TIP3    H153125   1.255   2.191  13.084 -0.1448 -0.6787  0.5347
10570TIP3    H253126   1.142   2.278  13.134 -0.0519 -0.2478 -0.0067
10571TIP3   OH253127   5.307   2.677   0.380 -0.0886  0.0046  0.3481
10571TIP3    H153128   5.330   2.728   0.302 -2.8654  0.1311 -0.5196
10571TIP3    H253129   5.307   2.586   0.350  0.7701 -0.1413  0.7646
10572TIP3   OH253130   0.302   1.032  12.799 -0.4487 -0.0137 -0.0185
10572TIP3    H153131   0.345   1.087  12.733 -1.0135  0.3838 -0.0599
10572TIP3    H253132   0.255   1.093  12.855  2.0106 -0.0814  2.3292
10573TIP3   OH253133   4.447   2.122  14.846 -0.1709 -0.2102 -0.1363
10573TIP3    H153134   4.463   2.201  14.898 -1.6231 -0.3467  0.5776
10573TIP3    H253135   4.502   2.054  14.888 -0.4842 -0.0566  0.5422
10574TIP3   OH253136   0.160   0.730   5.791 -0.2779 -0.4434  0.0350
10574TIP3    H153137   0.122   0.810   5.755 -1.8394 -0.8698  0.6685
10574TIP3    H253138   0.245   0.758   5.826 -0.2915  0.6843 -0.7636
10575TIP3   OH253139   0.918   4.862  16.778 -0.1213  0.5771 -0.2358
10575TIP3    H153140   0.934   4.926  16.709 -0.9783 -0.7630 -1.7747
10575TIP3    H253141   0.887   4.784  16.731 -1.7512 -0.0645  1.7398
10576TIP3   OH253142   1.887   4.848   0.626 -0.3845 -0.3135 -0.2811
10576TIP3    H153143   1.838   4.880   0.550  0.0798  0.2738 -0.3442
10576TIP3    H253144   1.860   4.905   0.698 -0.4230 -0.5309 -0.1216
10577TIP3   OH253145   4.373   3.854  16.518  0.3324  0.5682  0.4451
10577TIP3    H153146   4.281   3.829  16.513 -0.1145  2.1817 -0.1588
10577TIP3    H253147   4.381   3.928  16.457  2.6992 -1.3366 -1.7760
10578TIP3   OH253148   0.265   0.757  13.392 -0.3455 -0.3084  0.1073
10578TIP3    H153149   0.259   0.662  13.389  1.3662 -0.4165 -1.3776
10578TIP3    H253150   0.355   0.775  13.418 -0.8133  0.9453  1.0095
10579TIP3   OH253151   4.562   0.563  17.456  0.3444 -0.5129  0.2662
10579TIP3    H153152   4.485   0.543  17.404 -1.9328 -0.1549  3.2499
10579TIP3    H253153   4.577   0.485  17.509  1.2418 -0.0947  0.6621
10580TIP3   OH253154   2.189   1.936   3.455 -0.2402  0.3316  0.1819
10580TIP3    H153155   2.123   1.867   3.459 -0.9290  1.0249  0.9319
10580TIP3    H253156   2.145   2.011   3.415  1.1595 -0.3421 -2.9329
10581TIP3   OH253157   0.728   0.758  17.527  0.3280  0.0282 -0.1151
10581TIP3    H153158   0.732   0.763  17.623  1.0551 -0.1450 -0.1316
10581TIP3    H253159   0.804   0.807  17.497  0.7421 -0.8627 -0.5697
10582TIP3   OH253160   0.643   0.829  16.696  0.0066  0.2318 -0.5676
10582TIP3    H153161   0.616   0.777  16.771  0.3130 -0.1338 -0.7089
10582TIP3    H253162   0.643   0.919  16.728  1.2401 -0.0197  0.2127
10583TIP3   OH253163   6.304   3.236  13.575  0.1374 -0.3935 -0.2302
10583TIP3    H153164   6.248   3.255  13.500 -0.7217  0.4975  0.5967
10583TIP3    H253165   6.382   3.291  13.561  0.1623 -0.5358 -0.6627
10584TIP3   OH253166   0.374   6.709   4.853  0.5904 -0.4025 -0.3019
10584TIP3    H153167   0.313   6.753   4.794 -0.2901 -0.6860  0.3770
10584TIP3    H253168   0.439   6.776   4.875 -0.1571  0.2626 -0.0775
10585TIP3   OH253169   0.713   2.856  17.288 -0.0694  0.3362 -0.4815
10585TIP3    H153170   0.752   2.935  17.250  0.1777 -0.2167 -1.3855
10585TIP3    H253171   0.772   2.785  17.263 -0.0586 -0.0884  0.6999
10586TIP3   OH253172   1.431   1.100  14.761 -0.0630  0.2253  0.3721
10586TIP3    H153173   1.507   1.042  14.762  0.5938  1.0556 -0.4974
10586TIP3    H253174   1.460   1.179  14.715 -0.9677  1.2165  1.4215
10587TIP3   OH253175   2.714   0.252  13.485 -0.0487 -0.1785 -0.6047
10587TIP3    H153176   2.788   0.202  13.521  0.5858  0.7842 -0.5349
10587TIP3    H253177   2.755   0.328  13.445 -1.1159  1.3047  1.0062
10588TIP3   OH253178   1.675   4.100   3.947  0.6091 -0.1183 -0.4921
10588TIP3    H153179   1.696   4.119   3.856 -0.5490 -2.2953 -1.2730
10588TIP3    H253180   1.606   4.162   3.969  0.2583 -0.1837 -1.3782
10589TIP3   OH253181   1.247   0.102  17.629  0.1593 -0.4928  0.3886
10589TIP3    H153182   1.314   0.074  17.691  1.8174 -1.3742 -1.7052
10589TIP3    H253183   1.286   0.176  17.582 -0.9748  0.0149  0.1918
10590TIP3   OH253184   3.297   6.587   0.163  0.3721  0.0508 -0.0411
10590TIP3    H153185   3.220   6.627   0.204 -0.2785  2.2768 -3.1416
10590TIP3    H253186   3.358   6.573   0.236 -1.3876  1.9870  1.9538
10591TIP3   OH253187   3.597   3.722  11.694  0.0041  0.1356 -0.0605
10591TIP3    H153188   3.510   3.692  11.671  0.3069 -0.1604 -0.8477
10591TIP3    H253189   3.612   3.799  11.640  1.5845 -1.8374 -2.6756
10592TIP3   OH253190   2.657   5.643  15.933  0.4138 -0.0317  0.5600
10592TIP3    H153191   2.713   5.631  15.857 -1.6177  2.4633 -1.5143
10592TIP3    H253192   2.604   5.564  15.937  1.4961 -0.7912  0.2656
10593TIP3   OH253193   6.496   4.091  15.378  0.4100  0.5556  0.0761
10593TIP3    H153194   6.450   4.062  15.300  2.0926  1.7760 -1.4317
10593TIP3    H253195   6.502   4.012  15.433 -0.6639 -0.3517 -1.0723
10594TIP3   OH253196   5.640   3.498   3.043 -0.2323 -0.7235  0.0766
10594TIP3    H153197   5.570   3.437   3.022  0.2055 -0.6087 -1.8647
10594TIP3    H253198   5.641   3.561   2.970 -0.5919  1.5714  1.9206
10595TIP3   OH253199   1.180   3.273  11.022  0.4344  0.0383 -0.0379
10595TIP3    H153200   1.127   3.213  11.075  0.5023 -0.5307 -0.6120
10595TIP3    H253201   1.219   3.218  10.954 -1.2306  1.0591 -1.9279
10596TIP3   OH253202   0.572   1.229   2.660  0.4854  0.0210 -0.2267
10596TIP3    H153203   0.585   1.213   2.567 -1.5329  0.7545 -0.6640
10596TIP3    H253204   0.551   1.322   2.667  1.2265  0.1237  1.0500
10597TIP3   OH253205   5.856   4.613   3.601 -0.4161 -0.7448 -0.1888
10597TIP3    H153206   5.772   4.600   3.558 -1.1229 -3.0209  1.6998
10597TIP3    H253207   5.843   4.580   3.690  2.0252  0.3415  0.6594
10598TIP3   OH253208   1.546   0.947  15.490 -0.1983  0.1420  0.2218
10598TIP3    H153209   1.584   0.937  15.403 -2.8333 -1.1781 -0.8588
10598TIP3    H253210   1.554   0.861  15.530 -0.2369  0.3864  0.7655
10599TIP3   OH253211   4.141   4.767   4.549 -0.0812 -0.2213  0.1892
10599TIP3    H153212   4.127   4.782   4.643 -0.0813 -0.2571  0.1945
10599TIP3    H253213   4.198   4.691   4.545  0.5697  0.2621  0.1814
10600TIP3   OH253214   4.446   0.686  15.432  0.1930 -0.3201  0.1105
10600TIP3    H153215   4.415   0.683  15.342 -1.3015 -0.5608  0.6148
10600TIP3    H253216   4.460   0.779  15.449  0.7717 -0.2962 -0.4479
10601TIP3   OH253217   2.102   5.545  15.489 -0.3121  0.5232 -0.5082
10601TIP3    H153218   2.158   5.593  15.429 -1.0282  0.7177 -1.0429
10601TIP3    H253219   2.136   5.456  15.488  0.4541  0.8088 -0.2266
10602TIP3   OH253220   5.572   2.631  14.391  0.0934 -0.4842 -0.5971
10602TIP3    H153221   5.655   2.671  14.420  0.7390 -2.2864  0.1471
10602TIP3    H253222   5.541   2.583  14.468 -1.1973 -0.5859 -1.1633
10603TIP3   OH253223   1.861   0.898  14.060  0.0890  0.2657  0.1624
10603TIP3    H153224   1.862   0.864  13.971  2.3594 -0.2588  0.3162
10603TIP3    H253225   1.803   0.974  14.056 -1.4597 -0.9103 -1.2556
10604TIP3   OH253226   4.401   4.191  13.991 -0.2467  0.3654  0.7985
10604TIP3    H153227   4.306   4.178  13.996  0.0099 -1.4939  2.7219
10604TIP3    H253228   4.418   4.269  14.043 -0.7742  1.2392 -0.3134
10605TIP3   OH253229   2.338   5.203   5.992 -0.5668  0.0767 -0.7142
10605TIP3    H153230   2.404   5.183   5.926  0.9486  0.0457  0.7444
10605TIP3    H253231   2.356   5.142   6.064 -2.5571 -0.3126 -0.4714
10606TIP3   OH253232   3.373   0.482   3.408 -0.3976 -0.1893  0.5498
10606TIP3    H153233   3.391   0.406   3.463 -2.5580 -2.5193 -1.7174
10606TIP3    H253234   3.452   0.494   3.356 -0.3264 -1.4147  0.3700
10607TIP3   OH253235   3.272   1.012   3.118  0.0244  0.2712  0.0680
10607TIP3    H153236   3.309   0.973   3.039 -0.1130 -0.0488  0.1632
10607TIP3    H253237   3.269   0.941   3.182 -0.1576  0.4520  0.2641
10608TIP3   OH253238   2.817   4.188   3.068  0.4728 -0.0195 -0.0692
10608TIP3    H153239   2.740   4.215   3.117 -0.4222  0.6775 -1.7637
10608TIP3    H253240   2.784   4.123   3.006  1.2955  0.0971 -0.6454
10609TIP3   OH253241   0.745   2.387   1.036 -0.1573 -0.2800  0.5179
10609TIP3    H153242   0.709   2.320   0.979  2.2434 -0.2802 -1.1488
10609TIP3    H253243   0.771   2.340   1.115  0.5886 -1.1646 -0.2306
10610TIP3   OH253244   5.045   5.402  13.392 -0.3305  0.2806  0.3083
10610TIP3    H153245   5.076   5.311  13.382 -1.0903  0.0895 -0.3977
10610TIP3    H253246   4.951   5.393  13.407  0.0287  0.7966  3.4746
10611TIP3   OH253247   5.680   0.946  11.976  0.2221 -0.3717 -0.1663
10611TIP3    H153248   5.587   0.961  11.957 -0.2228 -2.5824 -0.0010
10611TIP3    H253249   5.721   0.942  11.890  0.0999  0.1435 -0.2545
10612TIP3   OH253250   5.247   5.992   1.586 -0.2063 -0.0421  0.4496
10612TIP3    H153251   5.172   5.969   1.641  0.8545  1.1046  2.4830
10612TIP3    H253252   5.262   6.085   1.603  1.8355 -0.3028  0.3371
10613TIP3   OH253253   2.212   0.933   2.674 -0.5066  0.2815  0.1087
10613TIP3    H153254   2.273   0.865   2.647 -0.2621 -0.5638  2.5025
10613TIP3    H253255   2.126   0.890   2.675 -0.6109  0.4881 -0.0351
10614TIP3   OH253256   6.435   5.520  16.445 -0.1439 -0.2733  0.1444
10614TIP3    H153257   6.379   5.533  16.522  0.8265  0.5810  0.7356
10614TIP3    H253258   6.421   5.429  16.420  0.2238 -0.8505  1.9193
10615TIP3   OH253259   4.232   6.593  16.121 -0.4449  0.0068  0.6085
10615TIP3    H153260   4.266   6.637  16.199 -1.5383 -0.8718  1.6074
10615TIP3    H253261   4.243   6.657  16.051  2.2942  0.1235  1.0669
10616TIP3   OH253262   6.305   2.170  12.232 -0.3391 -0.5449  0.1675
10616TIP3    H153263   6.291   2.257  12.194  1.8381 -0.1233  0.1629
10616TIP3    H253264   6.241   2.114  12.189  0.1201  0.4903 -1.9802
10617TIP3   OH253265   2.194   2.374   3.430  0.6882  0.2156  0.1575
10617TIP3    H153266   2.271   2.430   3.426  0.2894  0.7412 -0.2493
10617TIP3    H253267   2.131   2.424   3.482  0.4934 -0.0586  0.1860
10618TIP3   OH253268   3.302   3.156  16.761 -0.2431 -0.4285  0.2161
10618TIP3    H153269   3.346   3.158  16.846  0.5329  1.4901 -0.1873
10618TIP3    H253270   3.359   3.103  16.706 -0.3316 -1.0029  0.6650
10619TIP3   OH253271   6.514   1.178   0.703 -0.0421  0.4489 -0.7481
10619TIP3    H153272   6.441   1.230   0.736  0.2640 -0.2254  1.1251
10619TIP3    H253273   6.473   1.107   0.655 -0.6589  0.1395  0.1988
10620TIP3   OH253274   5.936   2.416   6.736 -0.0854 -0.8689  0.5008
10620TIP3    H153275   5.879   2.369   6.797 -0.4239 -0.6363  0.3629
10620TIP3    H253276   5.877   2.456   6.673  0.1139  0.5573  1.1725
10621TIP3   OH253277   1.134   1.253   2.479 -0.3488 -0.0771 -0.2787
10621TIP3    H153278   1.068   1.321   2.496 -0.5534  0.0523 -1.5067
10621TIP3    H253279   1.124   1.233   2.386  2.4721  1.1683 -0.9560
10622TIP3   OH253280   6.087   1.029  12.510  0.4823 -0.1132  0.1562
10622TIP3    H153281   6.053   1.110  12.472  2.3059  1.3282  1.4264
10622TIP3    H253282   6.036   1.018  12.591  0.6278  0.0808  0.2746
10623TIP3   OH253283   5.363   0.315   0.924  0.0643  0.1840  0.8526
10623TIP3    H153284   5.286   0.289   0.873 -0.4893 -0.2668  1.8828
10623TIP3    H253285   5.421   0.357   0.861 -0.9955  0.4584  0.0311
10624TIP3   OH253286   3.521   4.145  14.399  0.3326  0.1123 -0.4954
10624TIP3    H153287   3.587   4.214  14.386  2.1353 -1.6088 -0.9864
10624TIP3    H253288   3.563   4.065  14.367 -2.2097 -1.0207 -1.2933
10625TIP3   OH253289   3.500   4.277  15.986  0.1682  0.2007  0.0497
10625TIP3    H153290   3.414   4.235  15.980  0.8984 -1.1553 -1.9502
10625TIP3    H253291   3.506   4.332  15.907  0.0822  2.5485  1.5749
10626TIP3   OH253292   5.235   4.707   3.755 -0.0849 -0.4251  0.0845
10626TIP3    H153293   5.216   4.788   3.708 -0.5942 -0.1881  0.6951
10626TIP3    H253294   5.175   4.707   3.829  0.4258 -0.9974  0.5085
10627TIP3   OH253295   3.875   1.033  15.571  0.0652  0.4581  0.6797
10627TIP3    H153296   3.959   1.022  15.527  0.6776  0.8908  1.7112
10627TIP3    H253297   3.813   1.053  15.501  0.7576 -0.1889 -0.1244
10628TIP3   OH253298   1.723   6.039   4.440  0.1937 -0.3745 -0.2224
10628TIP3    H153299   1.713   5.961   4.494 -1.8194 -1.8010 -2.4564
10628TIP3    H253300   1.636   6.078   4.438  1.0344  1.6541  0.3507
10629TIP3   OH253301   0.303   5.704   0.751  0.0189 -0.2100  0.3790
10629TIP3    H153302   0.349   5.692   0.668  2.1609 -0.6079  1.5567
10629TIP3    H253303   0.280   5.616   0.779 -0.8170 -0.0682  0.1857
10630TIP3   OH253304   5.705   4.386  12.448 -0.2691  0.1015 -1.1769
10630TIP3    H153305   5.763   4.316  12.478 -0.0012 -0.2091 -2.3287
10630TIP3    H253306   5.651   4.344  12.381  0.5568  1.1993 -2.5896
10631TIP3   OH253307   6.164   0.623  12.251  0.1675  0.5005  0.2749
10631TIP3    H153308   6.169   0.606  12.345 -0.5646 -0.1568  0.2044
10631TIP3    H253309   6.248   0.594  12.216 -1.1917 -3.8806  0.0484
10632TIP3   OH253310   1.544   0.032   2.473  0.3100  0.1842 -0.4445
10632TIP3    H153311   1.502   0.115   2.448 -2.6830  0.3011  3.7372
10632TIP3    H253312   1.507  -0.033   2.414 -1.9688  1.0973 -0.1487
10633TIP3   OH253313   0.810   4.546  17.432 -0.3677 -0.5350 -0.5514
10633TIP3    H153314   0.769   4.499  17.360  0.2067 -1.3127 -0.3853
10633TIP3    H253315   0.904   4.541  17.413 -0.2258 -0.5526  0.1296
10634TIP3   OH253316   6.667   0.183   3.956  0.1780 -0.6347  1.3163
10634TIP3    H153317   6.681   0.247   3.885  0.8373 -1.7070  0.4523
10634TIP3    H253318   6.730   0.207   4.023  0.4027 -0.3552  1.0094
10635TIP3   OH253319   4.229   4.513  15.964  0.0762  0.4964  0.2066
10635TIP3    H153320   4.309   4.539  16.010  0.4376  1.4532 -0.9119
10635TIP3    H253321   4.158   4.531  16.026  0.6113  1.0704  0.6634
10636TIP3   OH253322   2.840   5.529   5.703 -0.3417  0.0397  0.0616
10636TIP3    H153323   2.926   5.507   5.737 -0.4862  2.3112  2.2838
10636TIP3    H253324   2.779   5.498   5.770 -0.9662  1.1251  0.0336
10637TIP3   OH253325   1.753   0.395  16.018 -0.0459 -0.1357  0.1792
10637TIP3    H153326   1.800   0.317  16.047  0.2657  0.1220  0.3748
10637TIP3    H253327   1.674   0.361  15.977  0.1834 -0.5649  0.0809
10638TIP3   OH253328   3.482   0.495   1.774 -0.1844 -0.7860  0.0935
10638TIP3    H153329   3.546   0.540   1.829 -1.1644  1.8441 -0.7420
10638TIP3    H253330   3.424   0.450   1.836 -0.6262  1.2146  1.2429
10639TIP3   OH253331   5.836   2.672  16.433 -0.4606 -0.1363  0.1219
10639TIP3    H153332   5.803   2.687  16.344  0.1379  0.1623 -0.0589
10639TIP3    H253333   5.825   2.578  16.447  0.7154 -0.4490 -0.8100
10640TIP3   OH253334   2.120   5.817  14.158  1.0273 -0.4297 -0.2222
10640TIP3    H153335   2.190   5.798  14.220  1.0797  0.7906  0.1262
10640TIP3    H253336   2.149   5.897  14.113 -0.5782  0.6966  0.6567
10641TIP3   OH253337   6.344   2.988  12.424  0.1521  1.1726 -0.5573
10641TIP3    H153338   6.288   2.993  12.501  0.8888  1.6128 -0.0317
10641TIP3    H253339   6.364   3.079  12.403  1.1201  1.0123 -0.3878
10642TIP3   OH253340   3.447   1.097  15.499 -0.5330  0.0544  0.6144
10642TIP3    H153341   3.512   1.143  15.552  1.0065 -0.6150 -0.6256
10642TIP3    H253342   3.442   1.149  15.418  1.7742 -2.1727 -1.1248
10643TIP3   OH253343   0.380   0.696  15.777 -1.0433 -0.1856  0.0952
10643TIP3    H153344   0.306   0.756  15.775 -0.4799  0.5671  0.9555
10643TIP3    H253345   0.379   0.659  15.866  1.7293  2.6597  1.4924
10644TIP3   OH253346   4.436   5.759  16.225 -0.0834  0.6909 -0.0598
10644TIP3    H153347   4.467   5.693  16.288 -0.0311  0.0691 -0.7199
10644TIP3    H253348   4.387   5.708  16.160  2.7667  0.7855 -2.4871
10645TIP3   OH253349   1.045   1.604  13.445  0.3381  0.4841  0.4627
10645TIP3    H153350   0.982   1.545  13.487  2.1495 -0.8464  1.3994
10645TIP3    H253351   0.996   1.686  13.436 -2.8500 -1.4686 -2.4238
10646TIP3   OH253352   5.430   3.946  13.654  0.4076  0.1529  0.1410
10646TIP3    H153353   5.408   3.974  13.565  3.1399 -1.1051 -1.0662
10646TIP3    H253354   5.495   4.009  13.684  0.4436 -0.1506  0.7227
10647TIP3   OH253355   3.967   0.668  12.390 -0.2532  0.2298  0.1860
10647TIP3    H153356   3.877   0.698  12.386 -0.0018  1.0717  0.5458
10647TIP3    H253357   3.973   0.599  12.324 -0.9665  0.6684 -0.3468
10648TIP3   OH253358   6.605   5.201   4.304 -0.0696  0.3010  0.6853
10648TIP3    H153359   6.577   5.110   4.290 -0.7437  0.7401 -0.9801
10648TIP3    H253360   6.523   5.249   4.318  0.2140  0.8016  0.6485
10649TIP3   OH253361   4.136   0.620   4.132  0.0156 -1.2025  0.1551
10649TIP3    H153362   4.063   0.628   4.071 -0.0687  0.6648  0.4174
10649TIP3    H253363   4.135   0.703   4.181  1.7876 -1.4779  0.7325
10650TIP3   OH253364   1.937   6.315  16.595  0.3973  0.1839 -0.0861
10650TIP3    H153365   1.936   6.354  16.508 -0.5033 -1.3715 -0.8107
10650TIP3    H253366   1.852   6.270  16.602  0.4784  0.2280  1.5721
10651TIP3   OH253367   4.042   0.389  14.376  0.0316 -0.7368  0.0262
10651TIP3    H153368   4.105   0.458  14.394 -1.7219  0.6594  1.1460
10651TIP3    H253369   4.005   0.412  14.290 -0.2859 -0.4687  0.2310
10652TIP3   OH253370   3.554   2.407  16.491 -1.0223  0.3716 -0.2500
10652TIP3    H153371   3.524   2.437  16.577  0.3263 -0.1247  0.4243
10652TIP3    H253372   3.599   2.483  16.454  0.7687 -0.2052  0.6651
10653TIP3   OH253373   1.004   5.377   1.199 -0.2811  0.1056 -0.8995
10653TIP3    H153374   0.964   5.444   1.255  0.7522  0.3740 -0.4683
10653TIP3    H253375   0.930   5.327   1.166 -0.9634  0.4385  0.0804
10654TIP3   OH253376   1.761   3.320  15.494  0.5091 -0.0663  0.0861
10654TIP3    H153377   1.689   3.383  15.494 -1.9259 -2.5160  3.7032
10654TIP3    H253378   1.749   3.270  15.413  0.6250  1.9967 -1.2778
10655TIP3   OH253379   3.766   5.515   4.811 -0.1781 -0.2240  0.3667
10655TIP3    H153380   3.748   5.461   4.735 -0.9407  1.9627 -1.1028
10655TIP3    H253381   3.837   5.574   4.783  0.2979 -0.1074  1.7260
10656TIP3   OH253382   6.417   4.092  13.151 -0.4405 -0.0338 -0.1351
10656TIP3    H153383   6.391   4.032  13.082  1.1820 -0.7117 -0.2120
10656TIP3    H253384   6.454   4.036  13.219 -0.8315  0.7255  0.7299
10657TIP3   OH253385   3.393   1.962  15.021  0.0017  0.5930 -0.3244
10657TIP3    H153386   3.418   2.035  14.965  0.7619  0.6033  0.0110
10657TIP3    H253387   3.475   1.914  15.036 -0.7673 -1.5277 -2.2123
10658TIP3   OH253388   4.366   1.801  15.436 -0.1161  0.0642 -0.2843
10658TIP3    H153389   4.374   1.707  15.422  1.7502 -0.0088  0.9914
10658TIP3    H253390   4.290   1.811  15.493  0.7269 -0.8563  1.0399
10659TIP3   OH253391   0.273   2.467   2.488 -0.4444  0.6918  0.1035
10659TIP3    H153392   0.261   2.399   2.422 -0.1777  1.1948 -0.4710
10659TIP3    H253393   0.297   2.545   2.438  1.8519  0.5880  0.9377
10660TIP3   OH253394   0.962   6.376  12.549  0.5061 -0.7854  0.0696
10660TIP3    H153395   0.968   6.471  12.560 -1.7514 -0.5768 -0.0288
10660TIP3    H253396   0.939   6.343  12.636 -0.4519 -1.0290 -0.2652
10661TIP3   OH253397   2.195   1.804  14.277  0.3568  0.1938 -0.1637
10661TIP3    H153398   2.192   1.708  14.280 -0.3984  0.1872 -0.7151
10661TIP3    H253399   2.156   1.831  14.360 -1.8608  0.0069 -1.0734
10662TIP3   OH253400   5.558   6.406  13.475  0.6039  0.2125 -0.4528
10662TIP3    H153401   5.470   6.398  13.511  0.4749 -1.8322 -1.1098
10662TIP3    H253402   5.615   6.367  13.542  0.8193  0.0749 -0.7159
10663TIP3   OH253403   0.554   2.932   3.890 -0.4825 -0.2687  0.3971
10663TIP3    H153404   0.552   3.003   3.826 -1.2839  0.0953  0.8063
10663TIP3    H253405   0.463   2.925   3.920  0.0345  0.2593  2.2415
10664TIP3   OH253406   0.859   0.635   2.061 -0.5006 -0.2654  0.6823
10664TIP3    H153407   0.876   0.689   1.983  1.3526  0.6266  1.6269
10664TIP3    H253408   0.842   0.547   2.026 -0.5718  0.2875 -0.7561
10665TIP3   OH253409   3.096   0.778  10.898 -0.3419 -0.3489  0.5709
10665TIP3    H153410   3.053   0.713  10.843  2.3147 -0.9525 -0.9739
10665TIP3    H253411   3.123   0.729  10.976 -0.0414 -0.6375  0.2866
10666TIP3   OH253412   3.432   1.990   5.908  0.0449 -0.3030 -0.1831
10666TIP3    H153413   3.517   1.974   5.950  0.0603 -0.4882 -0.2871
10666TIP3    H253414   3.440   2.079   5.874 -0.3079  0.2249  1.0297
10667TIP3   OH253415   4.785   1.545   2.821 -0.1533  0.5634 -0.1350
10667TIP3    H153416   4.801   1.474   2.883  0.0752  0.6668 -0.0729
10667TIP3    H253417   4.804   1.506   2.735 -0.8018  0.3219 -0.1728
10668TIP3   OH253418   5.063   3.240   0.533 -0.2586 -0.1340 -0.2317
10668TIP3    H153419   5.029   3.270   0.449 -0.8971 -2.0038 -0.7052
10668TIP3    H253420   4.986   3.207   0.580  0.5141 -2.4361 -0.4382
10669TIP3   OH253421   0.609   1.614  14.894 -0.6064 -0.3302  0.0594
10669TIP3    H153422   0.611   1.598  14.799  0.9026 -3.0157  0.4602
10669TIP3    H253423   0.594   1.709  14.902 -1.1460 -0.0836 -2.8255
10670TIP3   OH253424   4.735   0.210   5.615  0.0784 -0.1041  0.2094
10670TIP3    H153425   4.784   0.223   5.533 -0.6249  0.6966 -0.0974
10670TIP3    H253426   4.643   0.211   5.588 -0.2685  2.1325  1.2278
10671TIP3   OH253427   1.436   4.008   2.419 -0.2864 -0.3360  0.2645
10671TIP3    H153428   1.529   4.000   2.395 -0.6120  0.0490 -1.2492
10671TIP3    H253429   1.406   3.917   2.422  0.5808 -0.6126  2.8564
10672TIP3   OH253430   5.915   4.679  13.492 -0.3245 -0.2445 -0.0939
10672TIP3    H153431   5.946   4.592  13.519 -0.4175 -0.6313 -1.1856
10672TIP3    H253432   5.995   4.725  13.465 -0.1883  0.2593  1.1166
10673TIP3   OH253433   0.092   6.370  15.495  0.4233  0.1168 -0.2836
10673TIP3    H153434   0.015   6.349  15.548  0.7070 -0.6095 -0.1493
10673TIP3    H253435   0.127   6.450  15.534  1.3862 -1.1050  1.4986
10674TIP3   OH253436   4.795   5.753   1.355 -0.4462 -0.2715  0.4929
10674TIP3    H153437   4.722   5.815   1.358 -0.4824 -0.3476  1.2805
10674TIP3    H253438   4.762   5.675   1.400 -0.3145 -0.7885 -0.2729
10675TIP3   OH253439   0.444   2.724   5.211  0.4636  0.7224  0.2702
10675TIP3    H153440   0.518   2.781   5.230  0.1288  1.5906 -0.9131
10675TIP3    H253441   0.471   2.673   5.134 -0.8818  2.5785 -1.5603
10676TIP3   OH253442   1.429   5.707   5.612  0.3446  0.1082 -0.1778
10676TIP3    H153443   1.375   5.653   5.670  2.5163 -1.8542  0.1787
10676TIP3    H253444   1.459   5.647   5.544  1.5023  1.2681 -0.7386
10677TIP3   OH253445   3.352   3.336  13.852 -0.1919  0.0065  0.1121
10677TIP3    H153446   3.377   3.277  13.782  0.5056 -0.8764  1.0772
10677TIP3    H253447   3.325   3.416  13.807 -0.7320 -0.8760 -1.1935
10678TIP3   OH253448   4.142   4.251  16.914  0.1225 -0.0395 -0.3214
10678TIP3    H153449   4.110   4.161  16.910  0.8134 -0.3177  0.1952
10678TIP3    H253450   4.125   4.278  17.004 -1.4997  0.9031 -0.8679
10679TIP3   OH253451   3.693   0.214  14.782  0.6284  0.0308  0.4381
10679TIP3    H153452   3.630   0.143  14.796  0.9927 -0.1681  1.1142
10679TIP3    H253453   3.771   0.170  14.749  0.6960  0.1747  0.4068
10680TIP3   OH253454   0.273   1.810  12.350 -0.6189 -0.8846 -0.6385
10680TIP3    H153455   0.210   1.873  12.385  0.2426  0.3735 -1.2709
10680TIP3    H253456   0.225   1.765  12.281 -0.6860  0.4612 -1.5028
10681TIP3   OH253457   0.823   5.265   3.595 -0.4886  0.1944  0.2673
10681TIP3    H153458   0.759   5.211   3.642  0.4261 -0.4834  0.7659
10681TIP3    H253459   0.860   5.322   3.662 -1.2586  1.2949 -0.2073
10682TIP3   OH253460   1.328   5.439   0.751 -0.0501  0.3951 -0.5997
10682TIP3    H153461   1.312   5.503   0.682  0.5647 -0.8117 -1.9171
10682TIP3    H253462   1.241   5.415   0.783 -0.5432 -0.9066 -2.7698
10683TIP3   OH253463   5.734   6.654   5.642 -0.3937 -0.1747  0.3939
10683TIP3    H153464   5.680   6.700   5.578 -1.0687  1.5635  2.1018
10683TIP3    H253465   5.798   6.720   5.670  0.7221 -1.2952  0.5979
10684TIP3   OH253466   0.865   4.490   0.540 -0.2008 -0.3525  0.3205
10684TIP3    H153467   0.868   4.426   0.468  1.5988  1.1622 -1.0301
10684TIP3    H253468   0.788   4.543   0.522 -0.7828 -1.1083  0.5458
10685TIP3   OH253469   5.145   3.931  17.252 -0.1916 -0.1428 -0.1919
10685TIP3    H153470   5.059   3.955  17.218 -0.0012  0.6904 -0.1136
10685TIP3    H253471   5.180   4.012  17.288  1.4521  0.0140 -1.9802
10686TIP3   OH253472   3.184   0.158  13.856  0.2535  0.2921 -0.4093
10686TIP3    H153473   3.237   0.079  13.863 -0.4334 -0.2237 -0.8263
10686TIP3    H253474   3.145   0.153  13.769  1.6079  2.0216 -1.1746
10687TIP3   OH253475   3.478   5.521  15.112  0.1264 -0.6201 -0.7313
10687TIP3    H153476   3.525   5.603  15.126  1.5454 -1.4450 -0.4290
10687TIP3    H253477   3.417   5.540  15.041 -1.7106  1.5060  1.2494
10688TIP3   OH253478   4.066   5.986   2.485  0.4722  0.1602 -0.0279
10688TIP3    H153479   4.077   5.892   2.493  0.2161 -0.0229 -1.5941
10688TIP3    H253480   4.064   6.018   2.575 -0.7580 -1.4711  0.5630
10689TIP3   OH253481   2.137   0.585   1.785  0.2286 -0.0703 -0.0644
10689TIP3    H153482   2.070   0.576   1.717  0.8183  0.6453 -0.7643
10689TIP3    H253483   2.102   0.652   1.844  0.3037  0.2760 -0.4089
10690TIP3   OH253484   3.520   3.576  15.084 -0.6544  0.7387 -0.4755
10690TIP3    H153485   3.520   3.609  14.993 -1.0867  0.6733 -0.4998
10690TIP3    H253486   3.507   3.482  15.075  0.2376  0.5971 -0.3857
10691TIP3   OH253487   5.288   3.713   3.766  0.4163  0.2477 -0.6150
10691TIP3    H153488   5.315   3.644   3.826  0.4810  1.3038  0.6197
10691TIP3    H253489   5.356   3.714   3.699  1.1488  0.0070  0.1033
10692TIP3   OH253490   3.777   4.210  12.734  0.1317  0.0159  0.4036
10692TIP3    H153491   3.741   4.224  12.821  0.7952  3.6945  0.2646
10692TIP3    H253492   3.701   4.192  12.679 -0.8609  1.8997  1.0761
10693TIP3   OH253493   0.139   1.620  17.184  0.7637  0.8366  0.6206
10693TIP3    H153494   0.145   1.591  17.275 -0.1390  0.7410  0.6545
10693TIP3    H253495   0.072   1.564  17.145  1.1709  0.8485 -0.1184
10694TIP3   OH253496   3.181   2.285   4.760  0.4361  0.3268  0.0327
10694TIP3    H153497   3.098   2.257   4.798  0.5267  0.2411  0.1695
10694TIP3    H253498   3.189   2.377   4.784 -0.0154  0.5601 -0.6906
10695TIP3   OH253499   3.906   4.780  11.119 -0.6470 -0.0187  0.6342
10695TIP3    H153500   3.852   4.828  11.057  0.1527 -0.9368 -0.8341
10695TIP3    H253501   3.847   4.715  11.158 -0.6591 -0.9969 -0.9322
10696TIP3   OH253502   0.636   2.972   4.279 -0.5529 -0.1525 -0.2727
10696TIP3    H153503   0.599   3.032   4.344 -0.3618  0.2698 -0.5502
10696TIP3    H253504   0.563   2.915   4.255 -0.5095 -0.6254  0.6620
10697TIP3   OH253505   1.272   2.527   1.600 -0.9236 -0.0916  0.1353
10697TIP3    H153506   1.193   2.579   1.584 -2.1602 -1.9592 -0.1841
10697TIP3    H253507   1.313   2.567   1.677 -3.1282 -0.0927  1.3864
10698TIP3   OH253508   1.233   5.098  15.750  0.0021  0.1945 -0.4091
10698TIP3    H153509   1.157   5.092  15.808  1.4142 -0.6895  1.4279
10698TIP3    H253510   1.210   5.043  15.675 -0.4782 -1.5889  0.9717
10699TIP3   OH253511   2.378   3.646   0.074 -0.4951  0.3361  0.0931
10699TIP3    H153512   2.350   3.736   0.088 -1.0566  0.2027 -0.1666
10699TIP3    H253513   2.360   3.628  -0.018 -1.8008 -0.5148  0.4763
10700TIP3   OH253514   4.760   1.972  12.008 -0.4096 -0.7544 -0.1935
10700TIP3    H153515   4.708   1.913  12.063 -1.7573  0.8281  0.3275
10700TIP3    H253516   4.730   1.956  11.919 -1.4079 -0.2919  0.0387
10701TIP3   OH253517   4.419   0.452  11.913 -0.3159 -0.5040 -0.0031
10701TIP3    H153518   4.386   0.497  11.835 -0.6042 -0.7527 -0.0233
10701TIP3    H253519   4.369   0.371  11.917  0.5621 -1.0713 -0.2605
10702TIP3   OH253520   4.297   1.267   0.176  0.1644  0.0537 -0.3142
10702TIP3    H153521   4.255   1.206   0.115  0.7463 -0.0899 -0.5831
10702TIP3    H253522   4.226   1.296   0.234 -0.1700 -0.6884 -0.3395
10703TIP3   OH253523   1.506   3.754  13.316 -0.3562 -0.2709 -0.3268
10703TIP3    H153524   1.495   3.763  13.222 -1.0462 -1.5990 -0.3917
10703TIP3    H253525   1.429   3.706  13.346 -0.2500  0.3042  0.9515
10704TIP3   OH253526   0.108   2.116   4.451  0.0584  0.4876 -0.2980
10704TIP3    H153527   0.102   2.034   4.500 -1.2276  1.0743  0.5719
10704TIP3    H253528   0.192   2.110   4.406  0.6931 -0.6385  0.9497
10705TIP3   OH253529   6.423   1.762  13.920  0.3389  0.5117 -0.4458
10705TIP3    H153530   6.337   1.780  13.959 -0.3214 -0.7868 -1.2238
10705TIP3    H253531   6.470   1.714  13.988  0.7435  1.8662  0.2564
10706TIP3   OH253532   2.170   4.455  14.943 -0.8807 -0.2686 -0.8571
10706TIP3    H153533   2.218   4.499  15.014 -0.7705 -1.3626 -0.2395
10706TIP3    H253534   2.148   4.369  14.979 -0.7368 -0.8754 -2.1884
10707TIP3   OH253535   1.900   6.699   4.278 -0.2646  0.0531 -0.0702
10707TIP3    H153536   1.929   6.731   4.193  0.3639  0.0367  0.1330
10707TIP3    H253537   1.900   6.604   4.269 -0.7959  0.0671 -0.2420
10708TIP3   OH253538   1.212   4.443  11.219  0.2588  0.0270  0.4706
10708TIP3    H153539   1.229   4.532  11.188  0.2389  0.2019  0.9541
10708TIP3    H253540   1.150   4.454  11.291  0.1117 -0.3965  0.4115
10709TIP3   OH253541   0.410   4.173  17.622  0.6996 -0.4565 -0.1928
10709TIP3    H153542   0.476   4.240  17.643  0.7914 -0.0042 -1.7865
10709TIP3    H253543   0.443   4.094  17.664  1.5169  0.0889  0.2398
10710TIP3   OH253544   6.415   1.177  13.524 -0.2021  0.4534 -0.1375
10710TIP3    H153545   6.430   1.234  13.449  0.8677  0.7727  0.2944
10710TIP3    H253546   6.474   1.211  13.592  0.6537 -1.3042  0.0506
10711TIP3   OH253547   5.549   6.015   0.952 -0.2417 -0.1336 -0.0038
10711TIP3    H153548   5.536   5.921   0.966 -1.7434  0.0590  0.1333
10711TIP3    H253549   5.642   6.029   0.968  0.0107 -1.5892 -0.0078
10712TIP3   OH253550   6.658   0.619  16.884  0.3070 -0.6837  0.3313
10712TIP3    H153551   6.631   0.681  16.816  0.8324 -1.0716 -0.2493
10712TIP3    H253552   6.732   0.572  16.845  0.2046 -1.3605  0.9319
10713TIP3   OH253553   3.634   4.133   6.142 -0.3967  0.0041  0.6282
10713TIP3    H153554   3.667   4.100   6.226  0.8773  1.1062  0.5807
10713TIP3    H253555   3.539   4.124   6.150 -0.3720  0.8374  2.5215
10714TIP3   OH253556   0.600   0.026  16.509 -0.4312  0.0030  0.3062
10714TIP3    H153557   0.657  -0.033  16.459 -1.7088 -2.4318  1.5529
10714TIP3    H253558   0.601   0.108  16.459  2.3051 -0.6607 -0.9221
10715TIP3   OH253559   5.530   4.646   2.267 -1.0208  0.3639  0.4265
10715TIP3    H153560   5.618   4.612   2.280 -0.6712  1.3821  0.8066
10715TIP3    H253561   5.476   4.600   2.331 -0.6276  0.2735  0.6953
10716TIP3   OH253562   5.649   0.769   1.810 -0.0109  0.3635  0.0918
10716TIP3    H153563   5.649   0.767   1.905 -0.2546  0.9730  0.1125
10716TIP3    H253564   5.730   0.815   1.787 -1.4378  3.0971  0.1254
10717TIP3   OH253565   1.716   4.788   3.252  0.0969  0.1037 -0.1232
10717TIP3    H153566   1.640   4.845   3.257  1.2942  1.9099 -1.2939
10717TIP3    H253567   1.790   4.846   3.270  1.2012 -1.6389  1.1963
10718TIP3   OH253568   0.584   3.153   3.679  0.2685  0.0465 -0.3455
10718TIP3    H153569   0.675   3.127   3.696  0.5884  1.8152  0.9186
10718TIP3    H253570   0.590   3.244   3.652 -1.0848 -0.0584 -1.0269
10719TIP3   OH253571   3.912   0.531  16.046 -0.1144  0.1899 -0.4032
10719TIP3    H153572   3.896   0.510  15.954 -2.3370 -0.9534  0.1764
10719TIP3    H253573   3.950   0.452  16.083 -0.9488 -0.0152  0.0393
10720TIP3   OH253574   3.223   2.915  12.777  0.4146 -0.1479 -0.3859
10720TIP3    H153575   3.158   2.985  12.768  0.0044 -0.4849 -0.1075
10720TIP3    H253576   3.235   2.882  12.689  0.0230 -0.2430 -0.4053
10721TIP3   OH253577   6.180   6.532   5.604  0.3814  0.5351 -0.2380
10721TIP3    H153578   6.253   6.594   5.603  0.6420  0.2984 -3.2602
10721TIP3    H253579   6.220   6.449   5.628  0.9751  0.5643 -1.0891
10722TIP3   OH253580   6.638   5.979   0.070  0.6152 -0.6125  0.5654
10722TIP3    H153581   6.711   5.918   0.080  1.0933  0.0540  1.2303
10722TIP3    H253582   6.677   6.058   0.033  0.6011  0.3991  2.5509
10723TIP3   OH253583   2.593   1.193  17.596  0.1761  0.0922  0.0690
10723TIP3    H153584   2.604   1.105  17.560 -0.6005  0.2931 -0.6955
10723TIP3    H253585   2.633   1.189  17.683 -0.4615 -1.2092  0.3195
10724TIP3   OH253586   1.108   0.644   0.180 -0.1082  0.4815  0.3152
10724TIP3    H153587   1.041   0.706   0.152 -0.0363  0.0414 -0.8870
10724TIP3    H253588   1.191   0.687   0.159 -0.0129  0.8145  1.3395
10725TIP3   OH253589   0.408   5.675   6.216  0.0939 -0.0360 -0.0767
10725TIP3    H153590   0.403   5.703   6.307 -1.2001 -0.9637  0.1549
10725TIP3    H253591   0.411   5.580   6.219 -0.2075 -0.0891 -1.0111
10726TIP3   OH253592   2.557   1.384   3.314 -0.7914  0.0267  0.0183
10726TIP3    H153593   2.473   1.354   3.349  0.8718 -2.4930  2.2183
10726TIP3    H253594   2.543   1.389   3.219 -3.4038 -0.1895  0.3200
10727TIP3   OH253595   0.709   3.024  16.819 -0.3362 -0.4653  0.4579
10727TIP3    H153596   0.794   3.066  16.809 -0.4640  0.0030  1.2869
10727TIP3    H253597   0.697   3.016  16.913 -0.5835 -1.8271  0.3381
10728TIP3   OH253598   1.024   3.458   2.434  0.0156  0.3581  0.0665
10728TIP3    H153599   1.085   3.451   2.508 -0.3349 -0.8797  0.2671
10728TIP3    H253600   0.937   3.459   2.475 -0.1831 -0.3941 -0.3114
10729TIP3   OH253601   5.914   0.120  11.217 -0.1319  0.5580 -0.1353
10729TIP3    H153602   5.928   0.186  11.284 -1.5543  1.4418 -0.6619
10729TIP3    H253603   5.924   0.167  11.134  1.2320 -0.4325 -0.5771
10730TIP3   OH253604   5.086   5.258   5.324 -0.4967 -0.0431 -0.0988
10730TIP3    H153605   5.000   5.217   5.314  0.6864 -2.5038 -1.2210
10730TIP3    H253606   5.124   5.255   5.236  1.4883 -0.9064  0.7155
10731TIP3   OH253607   1.218   6.492  12.926  0.6117 -0.1970 -0.1876
10731TIP3    H153608   1.135   6.531  12.899  0.3223 -1.9190 -2.0762
10731TIP3    H253609   1.197   6.400  12.945  1.7498 -0.1903  1.2540
10732TIP3   OH253610   4.467   5.409  12.637 -0.3881 -0.6707  0.0965
10732TIP3    H153611   4.521   5.447  12.568 -1.5080  1.0215  0.1131
10732TIP3    H253612   4.506   5.440  12.718  1.3323 -3.1886  0.3785
10733TIP3   OH253613   4.750   0.756  13.350  0.0978 -0.2603 -0.0173
10733TIP3    H153614   4.827   0.803  13.319  0.7692 -1.9864 -1.1591
10733TIP3    H253615   4.772   0.730  13.440  0.0070  0.9460  0.3643
10734TIP3   OH253616   2.442   5.750   0.425 -0.2968  0.4917  0.1503
10734TIP3    H153617   2.416   5.843   0.425 -1.5430  0.1681  0.7145
10734TIP3    H253618   2.359   5.702   0.421  0.2746 -0.6040  0.8526
10735TIP3   OH253619   3.550   1.606  10.966  0.1640  1.0639  0.9324
10735TIP3    H153620   3.460   1.638  10.968  0.0370  0.7086  2.7386
10735TIP3    H253621   3.592   1.656  10.896 -1.5178  0.9458 -0.2284
10736TIP3   OH253622   4.178   0.973  15.723 -0.2995  0.4504  0.1723
10736TIP3    H153623   4.141   1.004  15.805 -2.7539  2.1282 -1.4434
10736TIP3    H253624   4.270   0.999  15.727 -0.8911  2.6281  1.4527
10737TIP3   OH253625   5.854   2.025   1.205  0.1531 -0.5136 -0.1415
10737TIP3    H153626   5.795   2.093   1.171 -1.7290 -1.2047  1.5338
10737TIP3    H253627   5.821   1.943   1.167  0.6500 -0.8017  0.0379
10738TIP3   OH253628   6.688   4.472  15.500  0.3667 -0.0478  0.1757
10738TIP3    H153629   6.728   4.519  15.426 -0.1538  0.1190 -0.0036
10738TIP3    H253630   6.759   4.418  15.535  0.9786  0.8496  0.3677
10739TIP3   OH253631   2.651   2.858  12.339  0.1047 -0.8844  0.1146
10739TIP3    H153632   2.556   2.866  12.344  0.0277 -1.3697 -0.3880
10739TIP3    H253633   2.670   2.775  12.383  0.2916 -0.7828  0.2211
10740TIP3   OH253634   0.834   4.709   0.792 -0.3991 -0.3029  0.4978
10740TIP3    H153635   0.820   4.769   0.866  0.4777 -1.9944  2.1191
10740TIP3    H253636   0.905   4.652   0.821 -1.1295 -2.0642 -1.0226
10741TIP3   OH253637   1.991   5.374   0.769  0.2040  0.4156 -0.4410
10741TIP3    H153638   2.039   5.298   0.801 -0.9664 -0.6526 -1.1275
10741TIP3    H253639   1.982   5.431   0.845 -1.1101 -1.3160  0.7722
10742TIP3   OH253640   6.663   1.048  16.859  0.3533  0.1616 -0.0246
10742TIP3    H153641   6.568   1.061  16.860  0.1934 -0.6694 -1.4400
10742TIP3    H253642   6.699   1.136  16.867 -0.5462  0.5239  0.1593
10743TIP3   OH253643   0.632   2.473  15.992  0.1441 -0.7089 -0.7568
10743TIP3    H153644   0.542   2.492  15.966 -0.0177  0.9215  0.8343
10743TIP3    H253645   0.627   2.388  16.036 -0.2931 -1.4129 -2.0967
10744TIP3   OH253646   4.857   6.065  17.034  0.0805  0.0534 -0.1077
10744TIP3    H153647   4.902   6.110  16.963 -2.3588 -0.9946 -2.5333
10744TIP3    H253648   4.924   6.049  17.100  2.6244  0.6587 -2.3890
10745TIP3   OH253649   1.605   6.010   0.014  1.0566 -0.3187 -0.0996
10745TIP3    H153650   1.695   6.038   0.033  0.5814  1.5611 -0.4394
10745TIP3    H253651   1.573   6.074  -0.048 -0.5647 -0.9236  0.0829
10746TIP3   OH253652   5.249   2.017  15.445 -0.1406 -0.0883 -0.6451
10746TIP3    H153653   5.343   2.006  15.430 -0.2054 -0.2196 -0.9784
10746TIP3    H253654   5.215   2.042  15.359 -0.4497 -0.3129 -0.5886
10747TIP3   OH253655   3.713   3.578  16.808 -0.0673  0.0615  0.5822
10747TIP3    H153656   3.716   3.498  16.861  1.4727  0.6385  1.4519
10747TIP3    H253657   3.737   3.550  16.720 -2.3216 -0.8612  0.1976
10748TIP3   OH253658   4.732   0.597   3.589  0.1924  0.4886  0.3189
10748TIP3    H153659   4.800   0.530   3.593  0.5732  0.8421 -0.1459
10748TIP3    H253660   4.694   0.588   3.501 -0.9467 -0.2696  0.8691
10749TIP3   OH253661   3.539   3.649   5.063 -0.3544 -0.0235  0.0510
10749TIP3    H153662   3.563   3.709   5.134 -1.3207 -1.4411  1.6414
10749TIP3    H253663   3.621   3.606   5.041 -0.5887 -2.4139  3.1283
10750TIP3   OH253664   2.369   5.931  17.115  0.5178 -0.2912  0.3348
10750TIP3    H153665   2.439   5.996  17.110  1.4620 -1.3564 -1.6941
10750TIP3    H253666   2.288   5.983  17.123  1.3024  1.1015 -0.4312
10751TIP3   OH253667   2.060   2.879   4.024 -0.2364 -0.3590  0.1629
10751TIP3    H153668   2.082   2.968   3.996 -0.4125 -0.9339 -1.9678
10751TIP3    H253669   1.964   2.877   4.024 -0.2463 -0.3751  0.8957
10752TIP3   OH253670   1.052   0.354   5.283 -0.0454  0.4262 -0.6973
10752TIP3    H153671   1.085   0.359   5.373 -1.6249  0.3453 -0.0711
10752TIP3    H253672   0.992   0.429   5.276 -3.2922 -1.9218 -0.1719
10753TIP3   OH253673   0.071   5.300  16.491 -0.3252  0.4212  0.0638
10753TIP3    H153674  -0.007   5.328  16.540  0.4355  0.5844  1.2133
10753TIP3    H253675   0.105   5.226  16.541 -0.1972 -0.1825 -0.8911
10754TIP3   OH253676   6.652   5.133   5.200 -0.1633  0.3112  0.4822
10754TIP3    H153677   6.709   5.191   5.149  0.8387  0.1229  1.3328
10754TIP3    H253678   6.595   5.092   5.135  0.4176  0.7977 -0.3589
10755TIP3   OH253679   6.706   3.122   0.499  0.4953 -0.0552 -0.3390
10755TIP3    H153680   6.756   3.041   0.486  0.2190  0.0065 -1.9377
10755TIP3    H253681   6.691   3.155   0.411 -1.1295  0.6968  0.1966
10756TIP3   OH253682   1.761   1.443  14.520  0.1223  0.3217 -1.0486
10756TIP3    H153683   1.721   1.521  14.558  2.1496  1.3671 -0.9710
10756TIP3    H253684   1.774   1.384  14.594 -0.1691  0.4444 -0.8969
10757TIP3   OH253685   2.125   4.202  12.671 -0.1093  0.2063  0.7986
10757TIP3    H153686   2.155   4.218  12.582  1.7091 -1.0414  1.1457
10757TIP3    H253687   2.067   4.126  12.663 -1.9383  1.5648  0.3861
10758TIP3   OH253688   3.611   2.902   1.579  0.1580 -0.1116 -0.0637
10758TIP3    H153689   3.637   2.928   1.491  0.4664 -0.5180 -0.0978
10758TIP3    H253690   3.680   2.938   1.636  1.8749 -2.6952 -0.3179
10759TIP3   OH253691   3.218   1.015  10.909  0.0565  0.9139 -0.1915
10759TIP3    H153692   3.180   0.928  10.898  1.1405  0.5590 -1.3869
10759TIP3    H253693   3.312   0.998  10.919  0.2335  1.9279 -0.1071
10760TIP3   OH253694   6.240   3.252   3.311 -0.1579  0.0299  0.2514
10760TIP3    H153695   6.197   3.302   3.381  0.0381  0.0186  0.3798
10760TIP3    H253696   6.298   3.315   3.268 -1.5241  0.4956 -1.0015
10761TIP3   OH253697   0.545   1.074  16.131 -0.1385 -0.4958 -0.2788
10761TIP3    H153698   0.553   1.170  16.129  0.3750 -0.5376 -0.3739
10761TIP3    H253699   0.635   1.043  16.142 -0.4236 -0.9329  1.0150
10762TIP3   OH253700   6.494   5.481   5.622 -0.0220  0.2643 -0.1273
10762TIP3    H153701   6.469   5.529   5.543  0.6578  0.8017 -0.0230
10762TIP3    H253702   6.590   5.487   5.625  0.1123 -1.3245 -0.2485
10763TIP3   OH253703   0.313   3.385  15.651  0.0692  0.2462 -0.6382
10763TIP3    H153704   0.261   3.458  15.686  0.3516 -0.6794  1.9898
10763TIP3    H253705   0.265   3.355  15.575 -2.4594  0.4286  0.7775
10764TIP3   OH253706   5.555   6.250   3.672 -0.2087  0.3895 -0.2903
10764TIP3    H153707   5.607   6.238   3.592  0.3470  0.9407 -0.0202
10764TIP3    H253708   5.553   6.345   3.686  1.6903  0.2322  1.6100
10765TIP3   OH253709   6.020   4.559   1.701  0.1884  0.1833 -0.4802
10765TIP3    H153710   5.967   4.608   1.639 -0.2985  1.8405  1.1521
10765TIP3    H253711   5.960   4.541   1.774  0.6261 -2.0468 -0.6003
10766TIP3   OH253712   1.477   4.157   4.332 -0.0506 -0.2282 -0.0668
10766TIP3    H153713   1.490   4.105   4.411  4.4149 -2.5514 -1.9648
10766TIP3    H253714   1.430   4.100   4.272  1.3993 -0.6896 -0.8237
10767TIP3   OH253715   2.228   3.093  14.811  0.4217 -0.8755  0.2959
10767TIP3    H153716   2.297   3.028  14.808  0.5244 -0.8142  1.0632
10767TIP3    H253717   2.247   3.152  14.738  0.0395 -1.9729 -0.7211
10768TIP3   OH253718   3.045   5.570   0.666 -0.3511  0.0321  0.3772
10768TIP3    H153719   3.080   5.619   0.591 -0.6109  1.4735  1.1816
10768TIP3    H253720   3.090   5.485   0.661  0.9080  0.7132 -0.4259
10769TIP3   OH253721   2.531   4.041  14.210  0.4765  0.5380 -0.1705
10769TIP3    H153722   2.486   4.082  14.136  0.9499  0.7765 -0.3269
10769TIP3    H253723   2.463   4.033  14.277 -0.3606 -1.1085 -1.1634
10770TIP3   OH253724   4.977   5.946  14.718  0.4403  0.6071  0.2572
10770TIP3    H153725   5.032   5.965  14.794  0.3547  1.1916  0.1833
10770TIP3    H253726   4.890   5.929  14.754  0.5931  0.0283  0.3496
10771TIP3   OH253727   6.012   4.460   2.555  0.3264 -0.2098  0.0878
10771TIP3    H153728   6.101   4.424   2.554  0.1710 -0.7210 -2.4133
10771TIP3    H253729   6.024   4.552   2.579  1.3360 -0.6449  1.3360
10772TIP3   OH253730   0.499   2.546  12.040  0.1318  0.4717  0.0588
10772TIP3    H153731   0.417   2.545  11.992 -1.3402  1.8926  2.3674
10772TIP3    H253732   0.518   2.639  12.053 -0.0934  0.2072  2.9565
10773TIP3   OH253733   6.037   5.077  15.678 -0.0991  0.2982 -0.3714
10773TIP3    H153734   6.084   4.995  15.660  2.5543  1.5944  0.0597
10773TIP3    H253735   6.059   5.134  15.604 -0.8265  1.0424 -0.0291
10774TIP3   OH253736   5.608   3.310  11.141  0.0401 -0.1059 -0.1050
10774TIP3    H153737   5.624   3.404  11.151 -1.1189  0.0705  0.2527
10774TIP3    H253738   5.526   3.305  11.093 -0.3416 -0.9338  0.6109
10775TIP3   OH253739   5.616   0.889  11.701 -0.3489 -0.4096 -0.8736
10775TIP3    H153740   5.546   0.954  11.704 -1.5664 -1.6525 -1.4444
10775TIP3    H253741   5.696   0.941  11.695 -0.9427  1.1409  2.4422
10776TIP3   OH253742   0.414   2.667   0.997 -0.6761 -0.6225  1.0274
10776TIP3    H153743   0.425   2.755   0.961 -1.1126 -1.3643 -1.0160
10776TIP3    H253744   0.323   2.665   1.027 -0.4043 -0.1105  1.9419
10777TIP3   OH253745   6.474   2.506   4.774 -0.2002  0.4699  0.0265
10777TIP3    H153746   6.419   2.538   4.845 -0.7632 -3.3507  1.5757
10777TIP3    H253747   6.417   2.447   4.724  0.9475  0.9592 -1.9640
10778TIP3   OH253748   1.087   4.729   1.704 -0.3149 -0.2310  0.6410
10778TIP3    H153749   1.045   4.646   1.728  0.6779 -1.1520 -0.6415
10778TIP3    H253750   1.052   4.792   1.766 -2.7498 -1.1520  0.3098
10779TIP3   OH253751   2.827   0.845  14.815 -0.6242 -0.0527  0.2423
10779TIP3    H153752   2.794   0.819  14.901 -1.7750  0.5007 -0.0123
10779TIP3    H253753   2.922   0.843  14.825 -0.6710  2.1503  2.2387
10780TIP3   OH253754   1.724   3.762   0.356  0.2095  0.3368 -0.2183
10780TIP3    H153755   1.662   3.815   0.306 -0.1078  0.5247  0.3585
10780TIP3    H253756   1.746   3.690   0.298 -0.1507  0.5478 -0.6256
10781TIP3   OH253757   6.568   0.794   1.331 -0.6870  0.1941  0.4671
10781TIP3    H153758   6.597   0.792   1.423 -1.2426 -0.5713  0.6405
10781TIP3    H253759   6.641   0.831   1.283  1.1017 -2.6861  0.7185
10782TIP3   OH253760   4.594   0.788  16.645 -0.1781 -0.3157 -0.2895
10782TIP3    H153761   4.543   0.777  16.565  0.7326 -0.6424 -0.8420
10782TIP3    H253762   4.532   0.825  16.708 -0.9262 -0.1204 -1.1156
10783TIP3   OH253763   3.395   3.089   3.083  0.2045 -0.3664 -0.5094
10783TIP3    H153764   3.403   3.169   3.135  0.4468  0.2619 -1.4922
10783TIP3    H253765   3.301   3.071   3.082  0.1791 -0.2656 -0.0246
10784TIP3   OH253766   6.237   5.320  17.007  0.6710  0.1104 -0.3071
10784TIP3    H153767   6.281   5.376  17.070  0.1180 -1.0205  1.1566
10784TIP3    H253768   6.156   5.293  17.051  1.1045 -2.1396 -0.7315
10785TIP3   OH253769   3.896   3.236  12.376 -0.2765 -0.0598  0.7980
10785TIP3    H153770   3.888   3.257  12.283 -3.2561 -1.7489  0.5602
10785TIP3    H253771   3.952   3.158  12.378 -1.0470 -0.6425  0.2929
10786TIP3   OH253772   0.139   0.460   5.753 -0.0259 -0.2494 -0.1223
10786TIP3    H153773   0.143   0.554   5.770  1.9939 -0.3101 -0.1042
10786TIP3    H253774   0.085   0.426   5.824 -2.6331  1.0964 -1.3010
10787TIP3   OH253775   6.096   5.258  14.068 -0.3562 -0.2320 -0.3251
10787TIP3    H153776   6.155   5.291  14.136 -0.9113 -0.0617  0.0778
10787TIP3    H253777   6.094   5.164  14.082  0.4395 -0.3361 -0.8437
10788TIP3   OH253778   3.316   3.592   0.404 -0.2281 -0.3194  0.1608
10788TIP3    H153779   3.404   3.592   0.368  0.2264 -3.1361  0.9879
10788TIP3    H253780   3.325   3.634   0.489 -0.3048  1.8452 -0.8349
10789TIP3   OH253781   3.403   3.746  13.377  0.4955 -0.2635  0.4049
10789TIP3    H153782   3.399   3.808  13.450 -0.2076 -0.9174  0.9462
10789TIP3    H253783   3.496   3.724  13.370  0.7872  1.0039  0.0530
10790TIP3   OH253784   0.491   1.143   5.328  0.6335 -0.2190 -0.4397
10790TIP3    H153785   0.416   1.173   5.277  0.6147 -0.6712 -0.6866
10790TIP3    H253786   0.548   1.100   5.264  1.7808  1.3160 -0.5027
10791TIP3   OH253787   5.323   2.264  11.376 -0.0197  0.1685 -0.2030
10791TIP3    H153788   5.273   2.244  11.297 -1.3116  1.0321  0.3525
10791TIP3    H253789   5.260   2.308  11.433  1.7337  2.6201 -0.0211
10792TIP3   OH253790   1.242   5.313   5.239 -0.3359  0.3990  0.2262
10792TIP3    H153791   1.304   5.277   5.303  0.9906  4.1590  1.3487
10792TIP3    H253792   1.163   5.331   5.290 -0.1394  1.1748  0.2707
10793TIP3   OH253793   6.080   5.330  11.574 -0.9426  0.2145  0.1748
10793TIP3    H153794   5.998   5.340  11.623 -1.2028  0.8210 -0.3732
10793TIP3    H253795   6.064   5.256  11.516 -1.2175  0.5224 -0.1474
10794TIP3   OH253796   4.165   3.171  12.659 -0.6700  0.3205 -0.1210
10794TIP3    H153797   4.226   3.208  12.723  0.2231  0.6410 -1.1204
10794TIP3    H253798   4.095   3.133  12.712  0.4600 -0.1873  1.0827
10795TIP3   OH253799   0.389   2.677  14.479  0.5739 -0.2658  0.1192
10795TIP3    H153800   0.460   2.680  14.415 -0.1187  0.3031 -0.6442
10795TIP3    H253801   0.346   2.593  14.463 -0.4682  0.4684 -1.1649
10796TIP3   OH253802   3.570   4.247  11.442  0.1420  0.0315  0.0609
10796TIP3    H153803   3.597   4.330  11.480  0.9837  1.1600 -2.7685
10796TIP3    H253804   3.651   4.207  11.412 -0.4520 -0.9629 -0.2639
10797TIP3   OH253805   2.110   1.973   1.114  0.0026 -0.3833  0.6340
10797TIP3    H153806   2.180   2.036   1.098  0.5078 -0.6833  1.5742
10797TIP3    H253807   2.119   1.908   1.045 -0.0325  0.1555  0.1150
10798TIP3   OH253808   0.811   4.506  16.392  0.4139  0.0818 -0.1162
10798TIP3    H153809   0.751   4.432  16.398  0.3705 -0.0026 -1.3373
10798TIP3    H253810   0.860   4.491  16.311  2.1282  0.1330  0.8732
10799TIP3   OH253811   3.276   3.973   3.288  0.0829 -0.3146  0.6821
10799TIP3    H153812   3.224   3.902   3.249 -0.2043  0.5939 -0.6623
10799TIP3    H253813   3.219   4.050   3.282  1.3237  0.5700 -0.2153
10800TIP3   OH253814   6.466   3.508   1.753  0.3189  0.5483  0.4551
10800TIP3    H153815   6.490   3.597   1.726 -1.6053  0.8181 -0.4901
10800TIP3    H253816   6.538   3.453   1.721  0.9131  1.6068 -0.0636
10801TIP3   OH253817   0.985   1.202  16.344 -0.3068  0.2067  0.1188
10801TIP3    H153818   0.960   1.139  16.277  1.9236 -0.4410 -0.1978
10801TIP3    H253819   1.016   1.149  16.417  0.7815  0.8932  0.1926
10802TIP3   OH253820   5.936   2.489   6.326 -0.3047 -0.3592  0.5464
10802TIP3    H153821   5.955   2.401   6.359 -0.1106 -0.4399  0.2240
10802TIP3    H253822   5.884   2.529   6.395  1.3779  0.0043  1.6677
10803TIP3   OH253823   3.207   6.546  17.460  0.2915  0.0523 -0.6292
10803TIP3    H153824   3.208   6.588  17.374 -1.6596  1.0957 -0.2027
10803TIP3    H253825   3.116   6.555  17.490  0.9072 -0.3253  1.5181
10804TIP3   OH253826   0.752   5.358   3.915  0.7445  0.1080 -0.4659
10804TIP3    H153827   0.761   5.397   4.002 -1.0706 -1.6804  0.6097
10804TIP3    H253828   0.831   5.386   3.869  1.2261  2.0675  1.3380
10805TIP3   OH253829   5.968   2.049   0.876  0.5672  0.4037  0.4532
10805TIP3    H153830   5.886   2.010   0.904  0.9575  0.8231  2.2844
10805TIP3    H253831   5.955   2.144   0.885  0.3855  0.6627 -1.8271
10806TIP3   OH253832   5.689   6.202   3.418  0.9784 -0.3932  0.8132
10806TIP3    H153833   5.700   6.266   3.348  0.6667 -0.3020  0.8490
10806TIP3    H253834   5.761   6.140   3.405 -0.8784 -2.2300 -1.5697
10807TIP3   OH253835   2.157   2.489  16.142 -0.2631 -0.5341  0.0071
10807TIP3    H153836   2.064   2.496  16.166 -0.0430  0.5332  0.5987
10807TIP3    H253837   2.157   2.431  16.065 -1.7891  1.9381 -2.0382
10808TIP3   OH253838   4.291   3.949  11.428  0.2126 -0.0600 -0.0564
10808TIP3    H153839   4.367   3.935  11.485  0.0670 -3.0686 -0.4632
10808TIP3    H253840   4.325   3.935  11.339  0.1404  3.2991 -0.7457
10809TIP3   OH253841   0.182   3.688   4.673 -0.5442 -0.5540  0.0625
10809TIP3    H153842   0.122   3.620   4.704 -0.0308 -1.4502 -0.8417
10809TIP3    H253843   0.160   3.699   4.581 -0.6513  0.5679  0.2082
10810TIP3   OH253844   1.825   2.214   0.838 -0.3189  0.2017  0.7310
10810TIP3    H153845   1.904   2.267   0.830  1.4796 -2.4579 -1.1982
10810TIP3    H253846   1.829   2.177   0.926  0.1906  0.7000  0.9210
10811TIP3   OH253847   0.594   5.827  12.320  0.6869  0.2945 -0.6178
10811TIP3    H153848   0.576   5.746  12.273 -1.0524  0.4967 -0.3387
10811TIP3    H253849   0.508   5.863  12.341  1.4215  1.2036  1.0144
10812TIP3   OH253850   1.783   6.201   6.236 -0.4680  0.3257 -0.0845
10812TIP3    H153851   1.861   6.179   6.185  0.1570 -0.9991  1.3613
10812TIP3    H253852   1.814   6.266   6.299 -1.2140  1.8805 -1.2407
10813TIP3   OH253853   2.896   3.990  13.914  0.1965  0.0349 -0.1997
10813TIP3    H153854   2.930   4.044  13.842 -1.0599 -0.2741 -1.0618
10813TIP3    H253855   2.824   4.041  13.951  0.1648 -0.2677  0.1670
10814TIP3   OH253856   5.294   2.989  13.992  0.4635 -0.2997  0.0252
10814TIP3    H153857   5.203   2.968  14.015  0.7045  0.6940  2.0802
10814TIP3    H253858   5.346   2.921  14.035  0.7115 -0.9001 -1.1956
10815TIP3   OH253859   1.295   2.869  13.447 -0.4026  0.4017 -0.2045
10815TIP3    H153860   1.387   2.852  13.426 -0.3249  1.1593 -0.5394
10815TIP3    H253861   1.283   2.962  13.425 -1.4377  0.1254 -0.8809
10816TIP3   OH253862   1.666   4.284   2.153  0.0001  0.3469 -0.1816
10816TIP3    H153863   1.693   4.319   2.068 -1.3067  1.8923 -0.0241
10816TIP3    H253864   1.647   4.362   2.206 -2.4853 -0.5365  0.3998
10817TIP3   OH253865   5.272   3.903   3.503  0.3550  0.1546  0.6139
10817TIP3    H153866   5.363   3.907   3.473  0.7956 -1.9470  1.4857
10817TIP3    H253867   5.222   3.949   3.435  1.6784 -1.5176 -1.6558
10818TIP3   OH253868   3.677   5.108  16.782 -0.3496 -0.1441  0.3095
10818TIP3    H153869   3.685   5.024  16.827  0.1893 -0.5493 -0.5214
10818TIP3    H253870   3.583   5.123  16.776 -0.5140 -1.4085 -0.8051
10819TIP3   OH253871   4.867   6.452   1.197  0.3589 -0.0172  0.0676
10819TIP3    H153872   4.816   6.488   1.125  0.4364 -1.3169 -0.6676
10819TIP3    H253873   4.901   6.369   1.163  0.6502 -0.5055  1.4972
10820TIP3   OH253874   0.581   6.644   4.519 -0.1004  0.4165 -0.6178
10820TIP3    H153875   0.549   6.582   4.585 -0.0309  2.3320  1.3534
10820TIP3    H253876   0.676   6.634   4.522 -0.0137  1.3509  0.5422
10821TIP3   OH253877   4.190   2.715  13.790  0.2755 -0.7407 -0.0291
10821TIP3    H153878   4.276   2.728  13.830  1.1702 -0.6114 -1.8804
10821TIP3    H253879   4.159   2.804  13.769  0.4164 -0.8560 -0.7654
10822TIP3   OH253880   3.336   4.623  16.623 -0.1796  0.0146 -0.0893
10822TIP3    H153881   3.341   4.550  16.684 -1.0614  1.1542  1.4259
10822TIP3    H253882   3.302   4.585  16.542 -0.4209 -1.2703  0.5985
10823TIP3   OH253883   5.978   3.810   3.465 -0.8596 -0.2254  0.7654
10823TIP3    H153884   5.992   3.715   3.467 -0.3463 -0.1705  0.1799
10823TIP3    H253885   6.059   3.845   3.429 -1.1349  0.4240  0.7653
10824TIP3   OH253886   2.890   4.858   2.180 -1.0586  0.2763 -0.4141
10824TIP3    H153887   2.824   4.790   2.191  0.1840 -0.7682  1.0026
10824TIP3    H253888   2.946   4.850   2.258  1.3474  0.4533 -2.0203
10825TIP3   OH253889   6.065   0.869   6.071 -0.0239  0.5493 -0.3876
10825TIP3    H153890   6.128   0.801   6.094 -0.7102 -0.5971 -1.7365
10825TIP3    H253891   6.059   0.924   6.149  2.1130  0.2966 -0.0011
10826TIP3   OH253892   2.083   5.151   5.407 -0.1568  0.3384  0.3339
10826TIP3    H153893   2.087   5.236   5.452 -1.7536 -0.9726  3.2033
10826TIP3    H253894   2.013   5.162   5.342  0.9423  1.7230 -0.6808
10827TIP3   OH253895   5.014   1.765  13.183  0.5615  0.0641 -0.0888
10827TIP3    H153896   4.991   1.847  13.227 -0.1797  1.0818 -2.2246
10827TIP3    H253897   5.105   1.777  13.156  1.7778 -1.4336  2.8639
10828TIP3   OH253898   2.785   2.900   0.333 -0.3448  0.4942  0.2864
10828TIP3    H153899   2.792   2.992   0.361 -0.6100  1.6465 -3.0519
10828TIP3    H253900   2.692   2.889   0.311 -0.2434 -0.4900  0.3041
10829TIP3   OH253901   4.573   4.061   0.161 -0.1595 -0.1100  0.1874
10829TIP3    H153902   4.600   4.091   0.074  0.2608 -0.2673  0.2612
10829TIP3    H253903   4.478   4.052   0.155 -0.3758  1.7040  0.3130
10830TIP3   OH253904   3.143   0.261   0.949  0.0870  0.4698 -0.0739
10830TIP3    H153905   3.096   0.210   1.016  1.2217 -0.3191  0.1620
10830TIP3    H253906   3.180   0.194   0.891 -0.6407  1.1384 -1.3437
10831TIP3   OH253907   6.429   6.105   5.323  0.0872  0.2065  0.0980
10831TIP3    H153908   6.455   6.190   5.287  1.9082 -0.9793 -1.6404
10831TIP3    H253909   6.351   6.124   5.376  0.3749  2.9120 -0.2857
10832TIP3   OH253910   5.047   0.061  16.175 -0.4542 -0.2841 -0.1248
10832TIP3    H153911   4.973   0.001  16.169  0.3212 -1.1781 -1.2455
10832TIP3    H253912   5.124   0.005  16.165  0.4321  0.5272  1.6475
10833TIP3   OH253913   2.288   1.861   1.493  0.0192  0.3910 -0.1486
10833TIP3    H153914   2.262   1.871   1.585  0.7507  0.6266  0.0416
10833TIP3    H253915   2.328   1.775   1.488 -0.3904  0.2110 -0.3399
10834TIP3   OH253916   5.245   4.320   2.627  0.1402  0.6094  0.0034
10834TIP3    H153917   5.319   4.376   2.601  0.1969  1.2864  1.5145
10834TIP3    H253918   5.247   4.321   2.723 -1.4989  0.1756  0.0634
10835TIP3   OH253919   4.454   0.637  16.174 -0.2301  0.6707 -0.7924
10835TIP3    H153920   4.538   0.678  16.193 -0.6453  1.6204 -0.9520
10835TIP3    H253921   4.392   0.681  16.232 -1.0713  1.8358 -2.4969
10836TIP3   OH253922   1.674   2.670  12.882 -0.4894 -0.4999 -0.1375
10836TIP3    H153923   1.619   2.600  12.846  0.9990 -1.0641 -1.3984
10836TIP3    H253924   1.732   2.625  12.944 -0.6086 -0.0988  0.2734
10837TIP3   OH253925   4.917   0.786  13.968 -0.2643 -0.1876  0.2990
10837TIP3    H153926   4.929   0.753  13.879 -0.3604  1.0810 -0.2062
10837TIP3    H253927   4.842   0.845  13.961 -1.5739 -1.5863  1.6521
10838TIP3   OH253928   2.598   4.628  13.918 -0.0659  0.3672 -0.3856
10838TIP3    H153929   2.536   4.687  13.877 -0.7037 -0.3090 -0.4237
10838TIP3    H253930   2.683   4.672  13.912 -0.3774  0.8510 -1.2380
10839TIP3   OH253931   2.315   1.847   4.624  0.4697 -0.1215 -0.3381
10839TIP3    H153932   2.252   1.776   4.613  0.5733 -0.3879  0.7009
10839TIP3    H253933   2.361   1.827   4.706  0.9525  0.7957 -0.3621
10840TIP3   OH253934   0.342   4.486   5.659  0.2797  0.0745  0.1643
10840TIP3    H153935   0.351   4.431   5.736 -0.4598 -1.9905 -1.1447
10840TIP3    H253936   0.428   4.529   5.651  1.2960 -1.7639  0.6205
10841TIP3   OH253937   5.811   3.390  16.390 -0.4499  1.3342  0.3133
10841TIP3    H153938   5.835   3.375  16.299 -0.7728  3.1181 -0.1037
10841TIP3    H253939   5.812   3.303  16.430 -0.8240  0.4469 -1.5107
10842TIP3   OH253940   4.770   5.460  13.434  0.4817  0.2521  0.6685
10842TIP3    H153941   4.789   5.541  13.387  0.3199  0.0226  0.2003
10842TIP3    H253942   4.693   5.424  13.390  1.8671 -1.2933 -0.5748
10843TIP3   OH253943   5.744   5.713  17.577 -0.0064 -0.1424 -0.6083
10843TIP3    H153944   5.838   5.700  17.564  0.0577 -0.0760 -0.2299
10843TIP3    H253945   5.703   5.637  17.536  0.1725  0.1452 -1.3423
10844TIP3   OH253946   1.362   2.910  17.154  0.2744  0.3490  0.1455
10844TIP3    H153947   1.426   2.842  17.130  0.3879  0.4115  0.2712
10844TIP3    H253948   1.410   2.992  17.145  0.5489  0.3292  1.3267
10845TIP3   OH253949   1.584   5.983  17.293  0.9974 -0.0342  0.0134
10845TIP3    H153950   1.635   5.931  17.231  1.3547 -0.5988  0.7655
10845TIP3    H253951   1.541   5.918  17.349  2.6910  0.4329  1.9753
10846TIP3   OH253952   4.971   2.241  14.504 -0.3224 -0.3045 -0.2154
10846TIP3    H153953   4.901   2.300  14.531  0.4442 -0.1149  1.4707
10846TIP3    H253954   5.010   2.210  14.586  0.0635 -2.2384 -1.0808
10847TIP3   OH253955   0.952   4.347  15.262  0.1828 -0.2136 -0.3377
10847TIP3    H153956   0.977   4.287  15.333  0.2207  1.6292  1.2980
10847TIP3    H253957   1.027   4.405  15.252  0.0760 -0.2836 -1.7655
10848TIP3   OH253958   4.721   5.241   0.882  0.0309 -0.2988 -0.4497
10848TIP3    H153959   4.625   5.244   0.886  0.0814 -0.0750  1.0945
10848TIP3    H253960   4.745   5.170   0.941  0.9005  1.2113  1.0897
10849TIP3   OH253961   0.196   5.040   2.116 -0.2617  0.8211  0.3222
10849TIP3    H153962   0.181   4.973   2.049  1.4480  0.3113  0.4026
10849TIP3    H253963   0.250   4.997   2.182 -0.9169  1.6758  1.4431
10850TIP3   OH253964   4.341   3.295  17.164  0.0214  0.1100 -0.0310
10850TIP3    H153965   4.418   3.345  17.136  0.5776 -1.5270 -1.6061
10850TIP3    H253966   4.276   3.362  17.185  2.0526  1.5907  2.0846
10851TIP3   OH253967   4.494   0.022  12.767  0.2284  0.1376 -0.0312
10851TIP3    H153968   4.443   0.070  12.833  1.9751  1.3254  0.5126
10851TIP3    H253969   4.584   0.027  12.798  0.7226 -1.9140 -0.9653
10852TIP3   OH253970   3.475   1.531  14.829 -0.2822 -0.5817 -0.2073
10852TIP3    H153971   3.439   1.616  14.805 -1.3543 -0.5370  1.3979
10852TIP3    H253972   3.570   1.545  14.834 -0.4688  0.6193  0.3870
10853TIP3   OH253973   2.256   4.496  15.516 -0.0587  0.8439 -0.0434
10853TIP3    H153974   2.317   4.422  15.514  0.1146  0.9926 -0.4887
10853TIP3    H253975   2.172   4.460  15.489 -0.1502  0.6515  0.5057
10854TIP3   OH253976   4.938   0.085   5.177  0.0082  0.0302  0.2989
10854TIP3    H153977   4.942   0.047   5.089  1.1235 -0.2194  0.4415
10854TIP3    H253978   5.008   0.040   5.225 -0.9036 -0.1834  1.4568
10855TIP3   OH253979   4.062   5.319   5.202  0.0994 -0.0845 -0.1199
10855TIP3    H153980   4.136   5.261   5.222 -0.4300 -1.0555 -0.8613
10855TIP3    H253981   4.088   5.365   5.123  0.5165  0.7042  0.4644
10856TIP3   OH253982   6.570   6.533   3.410  0.0918  0.2259 -0.3916
10856TIP3    H153983   6.595   6.446   3.378  0.0145 -0.2024  0.6830
10856TIP3    H253984   6.561   6.586   3.330  1.9896 -0.2439 -0.9845
10857TIP3   OH253985   1.627   4.208  11.672  0.6522 -0.8254  0.5185
10857TIP3    H153986   1.586   4.277  11.619 -1.6566 -0.3419  2.7424
10857TIP3    H253987   1.709   4.247  11.701  0.8085 -0.1954 -0.6826
10858TIP3   OH253988   0.036   3.112  16.196  0.1655 -0.3652  0.0001
10858TIP3    H153989   0.015   3.026  16.159  0.9499 -0.6716  0.2300
10858TIP3    H253990   0.129   3.124  16.176  0.0634  0.4251 -0.0142
10859TIP3   OH253991   1.762   3.839  12.729  0.1814  0.3867 -0.3441
10859TIP3    H153992   1.683   3.791  12.704  0.3403 -1.4275  2.2355
10859TIP3    H253993   1.735   3.930  12.732 -1.0663  0.1272 -2.0289
10860TIP3   OH253994   5.402   1.506  11.263 -0.0120  0.2406  0.0709
10860TIP3    H153995   5.366   1.581  11.216  0.3963 -0.3434 -1.2010
10860TIP3    H253996   5.461   1.464  11.201  0.5821 -0.5376  1.1188
10861TIP3   OH253997   4.335   4.753   6.730  0.2282 -0.0167  0.2600
10861TIP3    H153998   4.390   4.771   6.807  1.4685 -1.3963 -0.2499
10861TIP3    H253999   4.269   4.822   6.730  0.7481  0.5194  2.0577
10862TIP3   OH254000   3.432   0.655  13.612 -0.2853  0.0968  0.3598
10862TIP3    H154001   3.515   0.618  13.583 -0.8386 -0.9160  0.0372
10862TIP3    H254002   3.387   0.679  13.532 -0.6958 -0.2130  0.4966
10863TIP3   OH254003   1.274   6.408   2.941 -0.5892 -0.1718  0.1975
10863TIP3    H154004   1.222   6.464   2.883  1.5786  0.6449 -1.1122
10863TIP3    H254005   1.295   6.465   3.016  1.1337  0.6959 -0.8653
10864TIP3   OH254006   5.522   6.136   1.832  0.3696  0.1528 -0.1229
10864TIP3    H154007   5.555   6.071   1.770 -0.6285  0.8097 -1.3979
10864TIP3    H254008   5.455   6.089   1.882  1.4941 -0.5068  0.8133
10865TIP3   OH254009   3.246   2.026   5.661 -0.3423 -0.2381 -0.4352
10865TIP3    H154010   3.212   2.039   5.573  1.2548  0.4162 -0.9903
10865TIP3    H254011   3.339   2.049   5.655 -0.1048 -0.5660  1.3280
10866TIP3   OH254012   4.144   2.602   0.798 -0.3679  0.6830  0.2774
10866TIP3    H154013   4.161   2.591   0.705 -1.0446 -0.0112  0.2253
10866TIP3    H254014   4.226   2.634   0.834  0.4065 -0.6072 -0.2924
10867TIP3   OH254015   6.238   4.246   2.443 -0.2349  0.2325  0.7486
10867TIP3    H154016   6.173   4.273   2.379 -0.6477 -0.1778  0.9861
10867TIP3    H254017   6.307   4.312   2.437  0.2894 -0.4278 -0.9302
10868TIP3   OH254018   0.391   3.890  15.202 -0.4441  0.0522 -0.5698
10868TIP3    H154019   0.378   3.841  15.283  0.8580 -2.1648 -1.6322
10868TIP3    H254020   0.485   3.912  15.202 -0.8373  1.9565 -0.5041
10869TIP3   OH254021   4.567   0.491   0.479  0.4057  0.2168 -0.3029
10869TIP3    H154022   4.539   0.421   0.538 -0.1836  0.1234 -0.6868
10869TIP3    H254023   4.658   0.508   0.505  1.0608 -1.6874 -1.1432
10870TIP3   OH254024   3.749   4.248  16.660 -0.3945 -0.2846  0.7861
10870TIP3    H154025   3.671   4.198  16.686 -0.6459 -0.4472 -0.2346
10870TIP3    H254026   3.812   4.181  16.633 -0.5441 -0.0966 -0.0805
10871TIP3   OH254027   1.078   2.535  16.651  0.3893 -0.2309 -0.0312
10871TIP3    H154028   1.079   2.625  16.684  0.5600 -0.7566  1.5030
10871TIP3    H254029   1.001   2.496  16.693  1.6701 -1.4604  1.3069
10872TIP3   OH254030   6.071   2.212   4.538 -0.2105 -0.2663  0.3371
10872TIP3    H154031   6.155   2.254   4.554 -0.0065 -0.4964 -0.1108
10872TIP3    H254032   6.071   2.134   4.593 -0.0176 -0.4082  0.1365
10873TIP3   OH254033   3.422   2.627  12.218  0.2535  0.3915  0.6230
10873TIP3    H154034   3.457   2.675  12.294 -0.0615  1.4403  0.1192
10873TIP3    H254035   3.466   2.667  12.143 -0.4342  0.2617  0.1476
10874TIP3   OH254036   3.977   0.927  13.533  0.1809 -0.2226 -0.2999
10874TIP3    H154037   3.901   0.979  13.507 -0.2258 -0.4771  0.3451
10874TIP3    H254038   3.983   0.939  13.628 -0.3338 -1.8698 -0.0178
10875TIP3   OH254039   6.094   3.194  14.431  0.0821 -0.2015  0.3351
10875TIP3    H154040   6.069   3.166  14.519 -0.9789  0.0294  0.1216
10875TIP3    H254041   6.184   3.225  14.441  0.2906 -1.0051  1.1488
10876TIP3   OH254042   5.525   3.894  15.027  0.2282 -0.0670  0.4077
10876TIP3    H154043   5.473   3.815  15.016 -0.7910  0.6478 -0.1223
10876TIP3    H254044   5.581   3.898  14.949 -0.6574  0.3900 -0.2301
10877TIP3   OH254045   5.110   6.155  11.047  0.2319 -0.3136 -0.1712
10877TIP3    H154046   5.029   6.148  10.996 -1.0082  0.6991  1.5014
10877TIP3    H254047   5.109   6.079  11.104  0.1979 -0.0711  0.1594
10878TIP3   OH254048   5.978   6.193   1.213 -0.0476 -0.0612  0.2223
10878TIP3    H154049   6.038   6.205   1.287 -1.7521  2.8031  1.2739
10878TIP3    H254050   5.910   6.134   1.247 -0.2598  0.3876  0.5830
10879TIP3   OH254051   4.425   5.049   0.589 -0.4378 -0.4247  0.6674
10879TIP3    H154052   4.493   5.026   0.653  0.7503 -1.8397 -1.0070
10879TIP3    H254053   4.347   5.004   0.621 -0.0295 -0.6027  1.4599
10880TIP3   OH254054   5.016   0.274  14.472 -0.2301 -0.5182  0.6527
10880TIP3    H154055   5.027   0.207  14.538  1.7384 -0.7126  0.1988
10880TIP3    H254056   5.004   0.226  14.390  0.5661 -0.3283  0.4161
10881TIP3   OH254057   2.356   5.442  13.810  0.0355 -0.2538 -0.0466
10881TIP3    H154058   2.286   5.450  13.875  0.9766  0.7042  0.8675
10881TIP3    H254059   2.406   5.523  13.817  0.4441 -0.3207 -1.6590
10882TIP3   OH254060   3.573   1.689   1.524 -0.7209 -0.1058 -0.2520
10882TIP3    H154061   3.633   1.625   1.486  0.9969  1.0122  0.4767
10882TIP3    H254062   3.509   1.706   1.455 -0.0094 -1.0836 -1.1771
10883TIP3   OH254063   3.839   6.687  17.183 -0.8102 -0.4848  0.1883
10883TIP3    H154064   3.874   6.600  17.204  1.4526  0.2066 -0.3918
10883TIP3    H254065   3.901   6.748  17.222  1.0774  0.8427 -4.2158
10884TIP3   OH254066   6.224   3.641  16.890 -0.3350 -0.1088  0.8591
10884TIP3    H154067   6.268   3.725  16.904 -0.9372  0.0803  1.7407
10884TIP3    H254068   6.158   3.659  16.823  0.3382 -0.1809  0.1677
10885TIP3   OH254069   5.326   0.712  11.567  0.1586 -0.1853  0.1679
10885TIP3    H154070   5.332   0.806  11.583 -0.5571 -0.1467  0.2391
10885TIP3    H254071   5.242   0.701  11.522 -0.3442 -0.9309  1.2577
10886TIP3   OH254072   2.406   3.914   2.157 -0.7933 -0.4157 -0.0525
10886TIP3    H154073   2.456   3.846   2.201 -0.3366  0.0002  0.0813
10886TIP3    H254074   2.434   3.995   2.199 -1.8076 -0.2010  0.2346
10887TIP3   OH254075   3.657   1.770   4.810  0.1097  0.4121 -0.0099
10887TIP3    H154076   3.620   1.683   4.801  0.2243  0.1581  1.6754
10887TIP3    H254077   3.640   1.813   4.725 -1.2518 -0.7227 -0.3385
10888TIP3   OH254078   4.958   1.676  16.156  0.3235 -0.5922  0.2276
10888TIP3    H154079   5.021   1.732  16.201 -0.3360 -0.4525  1.0016
10888TIP3    H254080   4.930   1.614  16.223  0.4355 -1.3414 -0.4030
10889TIP3   OH254081   0.287   2.298   1.515 -0.6876  0.3104 -0.2034
10889TIP3    H154082   0.315   2.279   1.426 -0.7746  0.7042 -0.3165
10889TIP3    H254083   0.345   2.246   1.570 -1.2583 -0.6969 -0.5139
10890TIP3   OH254084   6.296   6.596   0.495 -0.6529  0.0554  0.2290
10890TIP3    H154085   6.313   6.505   0.473  1.1202 -0.2188  2.3514
10890TIP3    H254086   6.382   6.638   0.493 -1.2410  1.3451  0.6445
10891TIP3   OH254087   2.525   0.508   0.565 -0.1961  0.2747  1.0615
10891TIP3    H154088   2.436   0.539   0.549  0.3730  0.5120 -2.7174
10891TIP3    H254089   2.530   0.426   0.517  1.9235  0.9194  0.0696
10892TIP3   OH254090   0.412   4.320  12.930  0.0347  0.5317  0.1382
10892TIP3    H154091   0.337   4.368  12.965 -1.7217 -1.1233 -1.1585
10892TIP3    H254092   0.469   4.306  13.006 -2.0575 -0.1007  1.6790
10893TIP3   OH254093   5.495   6.552   2.912  0.0840 -0.4063  0.5019
10893TIP3    H154094   5.511   6.616   2.982  0.0272  1.3704 -1.0109
10893TIP3    H254095   5.537   6.590   2.835 -1.2768 -1.4450 -0.8247
10894TIP3   OH254096   2.928   2.396  15.596 -0.1270  0.7914  0.2744
10894TIP3    H154097   2.969   2.358  15.674 -0.5191  0.5225  0.3486
10894TIP3    H254098   2.982   2.365  15.524 -1.2496 -1.0823  0.1885
10895TIP3   OH254099   2.928   3.207  13.005 -0.4214 -0.2301  0.3492
10895TIP3    H154100   2.954   3.202  13.097 -0.0879 -2.2523  0.1955
10895TIP3    H254101   2.913   3.300  12.989 -0.3414  0.1788  2.3999
10896TIP3   OH254102   5.480   1.348   6.116  0.4917  0.5406  0.0234
10896TIP3    H154103   5.399   1.330   6.164  0.9598 -1.2780  0.1945
10896TIP3    H254104   5.545   1.365   6.183  0.2744  1.9947 -0.1147
10897TIP3   OH254105   5.979   2.173   0.134 -0.3501  0.2315 -0.5281
10897TIP3    H154106   5.956   2.225   0.057  2.9706  0.3884 -1.5629
10897TIP3    H254107   6.020   2.235   0.194 -2.5980  0.0458  1.3251
10898TIP3   OH254108   3.364   6.115  15.029 -0.4850  0.3858  0.0934
10898TIP3    H154109   3.427   6.069  15.084 -0.9538  0.2368  0.5092
10898TIP3    H254110   3.408   6.122  14.944 -0.4354 -0.9025 -0.0087
10899TIP3   OH254111   5.450   1.494  15.976 -0.6430 -0.3591 -0.3223
10899TIP3    H154112   5.401   1.417  15.947 -0.7724 -0.0805 -0.8470
10899TIP3    H254113   5.384   1.560  15.995 -0.4668  0.3233 -1.8936
10900TIP3   OH254114   0.452   6.089  10.866  0.0905 -0.2928  1.0511
10900TIP3    H154115   0.485   6.007  10.829  0.3511  0.5975 -0.8293
10900TIP3    H254116   0.486   6.091  10.955  0.2054 -2.1416  1.0851
10901TIP3   OH254117   2.058   1.720   4.712 -0.4227  0.1542  0.2325
10901TIP3    H154118   2.056   1.637   4.665 -1.8848  0.8661 -1.0953
10901TIP3    H254119   1.968   1.752   4.707  0.1330  1.8796  0.5660
10902TIP3   OH254120   3.968   4.746  12.912  0.0665  0.5003  0.7777
10902TIP3    H154121   3.933   4.680  12.853  1.2914 -0.7327  1.3792
10902TIP3    H254122   3.945   4.830  12.871 -1.5005 -0.2766 -0.0045
10903TIP3   OH254123   1.686   3.208   0.462 -0.1225 -0.2028 -0.4885
10903TIP3    H154124   1.610   3.177   0.511 -1.1879 -1.0530 -2.5714
10903TIP3    H254125   1.697   3.299   0.490 -2.8650  0.4298 -1.2036
10904TIP3   OH254126   4.456   1.120  15.725  0.6272  0.0862 -0.2358
10904TIP3    H154127   4.393   1.189  15.746  0.6817  0.1854 -0.4054
10904TIP3    H254128   4.499   1.149  15.645  2.1549  0.8748  0.8363
10905TIP3   OH254129   1.226   4.745   6.161  0.3239 -0.5846  0.5529
10905TIP3    H154130   1.132   4.737   6.146  0.3889 -3.8251  1.0491
10905TIP3    H254131   1.233   4.791   6.245 -0.7695 -0.0222  0.3624
10906TIP3   OH254132   3.995   4.530   5.415 -0.0562 -0.3125 -0.5173
10906TIP3    H154133   3.975   4.530   5.509  1.3265  0.3452 -0.2089
10906TIP3    H254134   3.920   4.485   5.375 -0.4270 -1.0438  0.9428
10907TIP3   OH254135   2.182   4.724  17.177  0.0458 -0.6117 -0.2215
10907TIP3    H154136   2.154   4.778  17.103 -1.3254  0.3391  0.9263
10907TIP3    H254137   2.101   4.703  17.223  0.7382 -2.2757  0.3174
10908TIP3   OH254138   3.813   1.263   3.208 -0.5089  0.1389  0.4387
10908TIP3    H154139   3.830   1.171   3.228  0.7054 -0.0590 -1.2523
10908TIP3    H254140   3.746   1.261   3.140 -1.4356  0.5907  1.3122
10909TIP3   OH254141   3.940   5.565   2.860 -0.3123  0.2797  0.3175
10909TIP3    H154142   3.851   5.584   2.831 -1.0267  1.6056  3.0074
10909TIP3    H254143   3.929   5.493   2.923  0.9152 -1.3606 -1.2573
10910TIP3   OH254144   5.018   3.092   6.210  0.0191 -0.0552  0.0338
10910TIP3    H154145   5.061   3.097   6.125 -0.7174 -0.4342 -0.3781
10910TIP3    H254146   5.070   3.030   6.260 -0.8611 -1.6820 -0.9782
10911TIP3   OH254147   4.021   6.623   5.916 -0.2937 -0.1259 -1.0712
10911TIP3    H154148   4.007   6.592   6.005  1.4720  0.0555 -0.6979
10911TIP3    H254149   3.966   6.701   5.909 -0.4413 -0.1372 -0.1387
10912TIP3   OH254150   1.789   0.270   4.316  0.0881 -0.1031 -0.2004
10912TIP3    H154151   1.830   0.183   4.308 -0.3467 -0.5951  2.2683
10912TIP3    H254152   1.754   0.272   4.404 -1.9943  1.7348 -0.9894
10913TIP3   OH254153   2.840   6.145   1.509  0.4644  0.6844 -0.4585
10913TIP3    H154154   2.759   6.196   1.515  0.9397  1.4224 -0.0554
10913TIP3    H254155   2.907   6.204   1.543  0.7221 -0.9495  2.1705
10914TIP3   OH254156   0.433   3.550  13.757  0.5173  0.0943  0.1637
10914TIP3    H154157   0.395   3.579  13.841 -0.0923 -0.3695  0.0582
10914TIP3    H254158   0.361   3.559  13.694  1.3804  1.7799 -0.6137
10915TIP3   OH254159   2.176   2.070   5.004 -0.5695 -0.3163 -0.2761
10915TIP3    H154160   2.153   2.067   5.097  0.8717 -0.1589  0.1094
10915TIP3    H254161   2.189   1.978   4.980 -0.2944 -0.3155 -0.1394
10916TIP3   OH254162   2.412   3.152   6.200 -0.1455 -0.0245 -0.1297
10916TIP3    H154163   2.504   3.176   6.212 -0.0272 -0.2358 -0.5615
10916TIP3    H254164   2.380   3.217   6.137 -0.1528 -0.2571 -0.3665
10917TIP3   OH254165   2.438   5.577  14.490  0.2566  0.1741 -0.5581
10917TIP3    H154166   2.509   5.600  14.550  1.1678 -1.6722 -0.8476
10917TIP3    H254167   2.437   5.481  14.489 -1.2343  0.1503 -1.7595
10918TIP3   OH254168   5.207   0.087   1.076 -0.3924  0.1197  0.1994
10918TIP3    H154169   5.161   0.137   1.144  0.4648 -1.3901  1.9872
10918TIP3    H254170   5.300   0.103   1.094 -0.1441 -0.8825 -0.1427
10919TIP3   OH254171   4.675   4.742   6.764 -0.0661 -0.2762 -0.4128
10919TIP3    H154172   4.743   4.793   6.721 -0.3739 -0.4514 -1.1136
10919TIP3    H254173   4.653   4.792   6.842  0.1247  0.3079 -0.7321
10920TIP3   OH254174   0.386   1.048   3.798 -0.3629 -0.2464  0.9711
10920TIP3    H154175   0.338   1.093   3.867 -0.8254 -3.6455  3.0957
10920TIP3    H254176   0.318   1.024   3.734 -0.6142 -0.4913  1.3268
10921TIP3   OH254177   0.025   0.160   0.089  0.2448  0.1120  0.5553
10921TIP3    H154178   0.118   0.176   0.105  0.0559 -0.0648  1.9574
10921TIP3    H254179  -0.019   0.237   0.125 -0.2630 -0.6945  1.7397
10922TIP3   OH254180   1.374   4.791  12.631  0.0894 -0.0528 -0.1359
10922TIP3    H154181   1.448   4.783  12.691  1.0409 -0.0464 -1.2770
10922TIP3    H254182   1.354   4.701  12.605  2.5631  0.1032 -3.1547
10923TIP3   OH254183   1.009   3.847  17.545 -0.3086  0.1657 -0.1121
10923TIP3    H154184   1.001   3.807  17.459 -1.3017 -0.4936  0.2601
10923TIP3    H254185   1.040   3.936  17.528  0.7331 -0.3502 -1.0513
10924TIP3   OH254186   1.841   5.568  14.707  0.2779  0.3026  0.2421
10924TIP3    H154187   1.808   5.510  14.639  0.3332  1.2311 -0.6039
10924TIP3    H254188   1.798   5.538  14.787 -0.6919 -0.0859 -0.4005
10925TIP3   OH254189   4.041   0.355  12.703 -0.1234 -0.3775 -0.0412
10925TIP3    H154190   4.037   0.404  12.621 -0.0236 -0.2212  0.0462
10925TIP3    H254191   4.083   0.272  12.680 -1.9073 -1.1855 -0.5652
10926TIP3   OH254192   4.698   4.163  12.575 -0.2775  0.5337 -0.3633
10926TIP3    H154193   4.760   4.099  12.611 -1.4515 -0.9208 -0.8405
10926TIP3    H254194   4.690   4.139  12.483 -1.3200  0.8792 -0.3730
10927TIP3   OH254195   2.820   2.597   1.831 -0.4990  0.0291  0.3216
10927TIP3    H154196   2.885   2.566   1.894  0.7355  0.9390 -0.4530
10927TIP3    H254197   2.867   2.662   1.778 -1.7351 -0.0892 -0.9852
10928TIP3   OH254198   2.975   0.275  16.023 -0.1059  0.0360 -0.0410
10928TIP3    H154199   2.898   0.322  15.990 -0.4487  0.7794  1.7084
10928TIP3    H254200   3.005   0.224  15.948 -1.5002  0.7597 -1.1562
10929TIP3   OH254201   2.480   0.543   5.009  0.0771  0.0851 -0.0500
10929TIP3    H154202   2.542   0.520   5.078  0.9815  0.2745 -0.7782
10929TIP3    H254203   2.528   0.527   4.928 -0.2046  1.8919 -0.6221
10930TIP3   OH254204   3.051   4.484  16.260  0.0727  0.2528 -0.4648
10930TIP3    H154205   2.977   4.544  16.262 -0.9074 -0.8276 -1.8543
10930TIP3    H254206   3.019   4.404  16.300  0.8462  0.1077 -0.1097
10931TIP3   OH254207   4.774   1.496  11.428 -0.8673 -0.3843  0.3179
10931TIP3    H154208   4.792   1.402  11.430 -1.5147 -0.5121  0.4964
10931TIP3    H254209   4.679   1.502  11.413 -0.7220  0.2503 -0.4129
10932TIP3   OH254210   2.243   1.993   0.584  1.0510  0.1967 -0.2071
10932TIP3    H154211   2.179   1.922   0.594  1.5222 -0.0593  1.3615
10932TIP3    H254212   2.295   1.968   0.507  1.1245 -1.1161  0.2313
10933TIP3   OH254213   2.779   2.116  17.337 -0.5977 -0.2042  0.1214
10933TIP3    H154214   2.816   2.122  17.249 -3.8321 -1.4621 -1.5309
10933TIP3    H254215   2.760   2.206  17.362  1.7153  0.3018  0.2823
10934TIP3   OH254216   0.661   5.595   1.720  0.3441 -0.4086  0.0691
10934TIP3    H154217   0.749   5.630   1.713 -0.1669  0.7966 -0.5760
10934TIP3    H254218   0.626   5.633   1.801 -0.1750  0.5271 -0.5776
10935TIP3   OH254219   3.778   0.574  14.346  0.3964  0.7159 -0.3568
10935TIP3    H154220   3.799   0.581  14.253 -0.3244 -0.2368 -0.6085
10935TIP3    H254221   3.683   0.560  14.348  0.6737 -1.3773  0.3955
10936TIP3   OH254222   2.822   2.443   3.051  0.3407  0.6124  0.2484
10936TIP3    H154223   2.898   2.413   3.101 -0.1877 -0.9969  0.1642
10936TIP3    H254224   2.757   2.373   3.063 -0.2901  0.8507 -1.5525
10937TIP3   OH254225   5.070   5.032   0.175 -0.2707 -0.2377 -0.0502
10937TIP3    H154226   5.110   4.948   0.155  0.1169 -0.7748  2.6234
10937TIP3    H254227   4.980   5.010   0.199  0.0498 -0.0258  1.4142
10938TIP3   OH254228   0.093   4.380   0.301  0.5709 -0.2349  0.2042
10938TIP3    H154229   0.139   4.443   0.245  1.6469 -1.2634 -0.0928
10938TIP3    H254230   0.103   4.296   0.256 -1.9457 -0.4595 -0.0812
10939TIP3   OH254231   1.280   1.744  14.901 -0.0035  0.0764  0.6564
10939TIP3    H154232   1.221   1.726  14.828 -0.6795  1.4377  0.8496
10939TIP3    H254233   1.354   1.791  14.862 -1.3353  2.6940  1.0864
10940TIP3   OH254234   1.672   0.954  13.180 -0.0494  0.7709  0.0204
10940TIP3    H154235   1.695   0.866  13.152 -1.1825 -0.4445  2.6007
10940TIP3    H254236   1.747   0.983  13.232 -0.2934  0.7397  0.3890
10941TIP3   OH254237   6.072   1.641   0.811  0.2403  0.0684  0.3824
10941TIP3    H154238   6.128   1.685   0.747  0.5011 -2.4791 -1.2906
10941TIP3    H254239   6.125   1.637   0.890  1.2409  0.3482 -0.2521
10942TIP3   OH254240   5.805   0.695  17.255  0.0589 -0.1563  0.2004
10942TIP3    H154241   5.830   0.671  17.165 -2.4244 -0.3802 -0.5007
10942TIP3    H254242   5.887   0.725  17.295  1.1849  0.3328 -2.2552
10943TIP3   OH254243   0.730   3.969   3.323 -0.3759 -0.2817 -0.0034
10943TIP3    H154244   0.749   4.063   3.327 -0.3503 -0.3359  1.2975
10943TIP3    H254245   0.676   3.960   3.244 -1.0641  0.9601  0.2877
10944TIP3   OH254246   1.788   1.490  16.555  1.0132  0.3853 -0.1098
10944TIP3    H154247   1.712   1.523  16.603 -0.0327 -0.6179 -1.0086
10944TIP3    H254248   1.847   1.457  16.623 -0.3172 -0.7718  0.5369
10945TIP3   OH254249   1.211   6.649  14.502 -0.0670  0.1969 -0.2031
10945TIP3    H154250   1.116   6.651  14.497 -0.0793  0.3168  0.0195
10945TIP3    H254251   1.230   6.661  14.596  0.1701  0.4947 -0.2863
10946TIP3   OH254252   3.541   3.437  13.407  0.4268  0.1203 -0.8575
10946TIP3    H154253   3.627   3.401  13.384  0.1110 -0.6311 -0.8935
10946TIP3    H254254   3.483   3.412  13.335  0.3747  1.4905 -1.3313
10947TIP3   OH254255   0.659   5.371  11.749 -0.1076  0.4879  0.0630
10947TIP3    H154256   0.663   5.427  11.827  0.4187  0.7769 -0.1719
10947TIP3    H254257   0.641   5.431  11.677 -2.8993 -0.0201  0.2289
10948TIP3   OH254258   4.951   2.196  13.674  0.1812  0.4452  0.6765
10948TIP3    H154259   4.912   2.122  13.627  1.8692  1.0091 -1.8391
10948TIP3    H254260   4.881   2.261  13.678 -0.2782  0.0355 -0.3095
10949TIP3   OH254261   5.454   4.039   3.181  0.0442  0.0070 -0.1645
10949TIP3    H154262   5.544   4.066   3.160  0.4659 -0.3684  1.0794
10949TIP3    H254263   5.449   4.044   3.276 -1.7514  1.4696 -0.2930
10950TIP3   OH254264   3.149   5.235   3.750  0.3676  0.3559 -0.1214
10950TIP3    H154265   3.198   5.156   3.727  0.1976  0.5812 -1.2807
10950TIP3    H254266   3.199   5.273   3.823  0.3059 -0.9381  0.6259
10951TIP3   OH254267   1.373   5.169  16.919 -0.3816 -0.2949  0.3357
10951TIP3    H154268   1.433   5.106  16.880 -1.7514 -1.7748  0.4778
10951TIP3    H254269   1.373   5.243  16.859  1.7009 -0.1619  0.4555
10952TIP3   OH254270   2.681   1.653   4.878 -0.2722 -0.1379 -0.5070
10952TIP3    H154271   2.753   1.715   4.891 -1.6694  1.6725 -0.9292
10952TIP3    H254272   2.711   1.596   4.807  0.7328  0.5690 -0.6756
10953TIP3   OH254273   6.368   4.781   6.406  0.1628  0.4917 -1.0574
10953TIP3    H154274   6.457   4.763   6.435  0.0149 -0.1812 -1.0024
10953TIP3    H254275   6.372   4.776   6.311 -0.0775 -0.9126 -1.0227
10954TIP3   OH254276   0.678   2.902  13.603 -0.9000  0.3446 -0.0038
10954TIP3    H154277   0.645   2.825  13.650 -1.6899  1.1996  0.9066
10954TIP3    H254278   0.700   2.964  13.672  2.9974 -0.2367 -0.5275
10955TIP3   OH254279   6.612   4.222   1.408 -0.4196  0.8330 -0.4701
10955TIP3    H154280   6.531   4.249   1.451 -0.0903  1.8696 -0.4832
10955TIP3    H254281   6.668   4.189   1.479  0.3317  3.0361  0.0489
10956TIP3   OH254282   4.768   0.956   0.919 -0.5003 -0.1372  0.7296
10956TIP3    H154283   4.678   0.962   0.951 -1.0116 -0.5177 -0.5648
10956TIP3    H254284   4.762   0.904   0.839  0.9346 -0.5126  0.8281
10957TIP3   OH254285   6.291   1.346  11.667 -0.0717  0.4748  0.4669
10957TIP3    H154286   6.386   1.345  11.660 -0.1637  0.9095 -1.6418
10957TIP3    H254287   6.263   1.262  11.630 -0.5222  0.4114  0.9324
10958TIP3   OH254288   6.343   3.605  15.797 -0.0836  0.0962 -0.5770
10958TIP3    H154289   6.262   3.656  15.804  0.9586  2.0649 -1.9928
10958TIP3    H254290   6.356   3.593  15.703  1.3546 -0.0770 -0.3793
10959TIP3   OH254291   4.363   0.317  17.545  0.0295 -1.1615 -0.6364
10959TIP3    H154292   4.276   0.351  17.565  1.1866  0.8595  1.5560
10959TIP3    H254293   4.358   0.289  17.454 -3.0999 -1.8857 -0.3392
10960TIP3   OH254294   0.553   5.749   2.548 -0.7862 -0.3274  0.3355
10960TIP3    H154295   0.528   5.842   2.545 -2.0306 -0.6452  0.2278
10960TIP3    H254296   0.626   5.741   2.487 -0.7577  0.5608  0.2442
10961TIP3   OH254297   5.590   5.926  14.415 -0.3872  0.2044  0.2122
10961TIP3    H154298   5.619   5.836  14.424 -0.1335  0.2044 -0.5171
10961TIP3    H254299   5.576   5.956  14.505 -1.4303 -0.8601  0.4351
10962TIP3   OH254300   5.586   6.150   5.715 -0.0139 -0.5308 -0.0239
10962TIP3    H154301   5.573   6.241   5.691  2.8969 -0.3760 -1.5188
10962TIP3    H254302   5.621   6.152   5.804 -1.7969 -0.4158  0.7270
10963TIP3   OH254303   1.913   5.788  11.804  0.5985  0.5344 -0.0174
10963TIP3    H154304   1.883   5.698  11.795 -0.7120  0.3729  3.8554
10963TIP3    H254305   1.993   5.782  11.856  1.2912  1.5782 -0.9075
10964TIP3   OH254306   4.464   5.920  14.188 -0.2557 -0.0217  0.2225
10964TIP3    H154307   4.451   5.924  14.282 -0.8808 -1.5816  0.2393
10964TIP3    H254308   4.551   5.956  14.174 -1.3417  3.2298  1.0116
10965TIP3   OH254309   3.879   5.029   2.261  0.5685  0.3643  0.8228
10965TIP3    H154310   3.805   5.086   2.283  0.7372  0.5817  0.8180
10965TIP3    H254311   3.862   4.949   2.311 -0.0736  0.1242  0.2353
10966TIP3   OH254312   1.988   4.908   3.245 -0.0542 -0.9123 -0.1224
10966TIP3    H154313   1.993   4.838   3.309  1.1656  0.3636  1.2480
10966TIP3    H254314   2.077   4.917   3.212 -0.0846  0.2796  0.0717
10967TIP3   OH254315   1.427   2.840   3.963  0.5636  0.2732 -0.1135
10967TIP3    H154316   1.336   2.813   3.968  0.4241  0.4234 -1.4897
10967TIP3    H254317   1.468   2.803   4.041 -1.0851  1.8864  1.6172
10968TIP3   OH254318   1.694   6.131   5.974 -0.4867  0.2063  0.0263
10968TIP3    H154319   1.663   6.043   5.952 -0.8190  0.2280  0.3834
10968TIP3    H254320   1.681   6.137   6.069  0.3794  0.3104  0.1454
10969TIP3   OH254321   4.701   5.757   3.072 -0.3751  0.6518 -0.0133
10969TIP3    H154322   4.773   5.803   3.115 -0.4185  0.6027  0.1122
10969TIP3    H254323   4.725   5.665   3.076  0.1560  0.7272 -1.0850
10970TIP3   OH254324   2.235   0.524  11.770 -0.1804 -0.0710  0.3037
10970TIP3    H154325   2.211   0.488  11.684  1.0901 -0.2262 -0.0001
10970TIP3    H254326   2.321   0.487  11.789 -0.7862 -0.6807  2.0465
10971TIP3   OH254327   3.210   2.853   1.081  0.8998  0.3072  0.2699
10971TIP3    H154328   3.209   2.904   1.000  0.7538 -1.1610 -0.6943
10971TIP3    H254329   3.247   2.768   1.056 -0.6118 -0.7420  1.3791
10972TIP3   OH254330   5.211   0.512  17.498 -0.3874  0.5148 -0.1242
10972TIP3    H154331   5.120   0.530  17.520  0.1390  2.9562  0.3807
10972TIP3    H254332   5.228   0.566  17.420  0.8276  0.7755  0.2924
10973TIP3   OH254333   6.015   4.282   2.268 -0.4725 -0.1151 -0.4547
10973TIP3    H154334   6.051   4.361   2.228  0.2039  0.0055  0.3435
10973TIP3    H254335   5.930   4.309   2.303  0.0541  0.4651  0.4216
10974TIP3   OH254336   2.782   5.169   1.022 -0.5626 -0.0556  0.1437
10974TIP3    H154337   2.846   5.217   0.971  0.2673  2.4924  3.2561
10974TIP3    H254338   2.697   5.202   0.993 -0.1032  1.4308  0.4360
10975TIP3   OH254339   0.348   3.996   5.023  0.2864  0.7365 -0.4231
10975TIP3    H154340   0.286   3.988   4.951 -0.0676  1.7998 -0.2668
10975TIP3    H254341   0.406   4.068   4.997  1.2435 -0.0033 -0.4055
10976TIP3   OH254342   1.272   1.067  17.555  0.1344  0.1161 -0.4213
10976TIP3    H154343   1.209   1.106  17.616 -1.7249 -1.4457 -1.2146
10976TIP3    H254344   1.233   1.079  17.469 -0.0779 -2.4523 -0.7879
10977TIP3   OH254345   2.809   2.027   6.541  1.1561  0.2955  0.1558
10977TIP3    H154346   2.779   1.936   6.541  1.3955  0.2123  1.2253
10977TIP3    H254347   2.766   2.066   6.617 -1.5597  1.9839 -2.0286
10978TIP3   OH254348   0.241   3.354  16.858  0.1708  0.4454  0.3148
10978TIP3    H154349   0.335   3.339  16.854  0.3525  1.4286  0.7421
10978TIP3    H254350   0.230   3.428  16.917 -0.7220  1.5330 -1.1256
10979TIP3   OH254351   0.000   0.613   4.300  0.2028  0.1738  0.7628
10979TIP3    H154352  -0.088   0.650   4.305  0.4910  0.7994  1.2298
10979TIP3    H254353   0.037   0.625   4.387  0.9282  0.3550  0.4410
10980TIP3   OH254354   3.368   1.754   3.384 -0.2799 -0.1508 -0.4951
10980TIP3    H154355   3.459   1.757   3.355  0.2390  0.0775  1.0341
10980TIP3    H254356   3.369   1.693   3.458 -1.2460  0.2988 -0.0944
10981TIP3   OH254357   4.475   2.097   3.600  0.0383 -0.3694  0.1570
10981TIP3    H154358   4.415   2.110   3.673 -0.2426  0.5748 -0.2284
10981TIP3    H254359   4.451   2.164   3.536  0.5493 -0.9140 -0.6313
10982TIP3   OH254360   0.245   6.521   3.046  0.0687  0.0817  0.0510
10982TIP3    H154361   0.201   6.579   2.983 -0.3701  1.3691  1.4885
10982TIP3    H254362   0.246   6.435   3.002  1.5976  1.3092 -2.5489
10983TIP3   OH254363   0.854   4.864   5.675  0.6429  0.3961  0.2827
10983TIP3    H154364   0.851   4.880   5.769 -1.5066  3.8826 -0.1757
10983TIP3    H254365   0.947   4.870   5.652  1.5892 -3.4383  2.3967
10984TIP3   OH254366   3.946   0.310  10.884  0.2338  0.4062 -0.0547
10984TIP3    H154367   4.038   0.311  10.860 -0.2041  0.0828 -1.8704
10984TIP3    H254368   3.936   0.231  10.937  1.2964  1.3129  1.5794
10985TIP3   OH254369   3.477   1.894   4.593 -0.4047  0.0787  0.1487
10985TIP3    H154370   3.474   1.959   4.523  1.3944 -0.5088 -0.5009
10985TIP3    H254371   3.427   1.934   4.664 -1.0814  1.2741 -0.9651
10986TIP3   OH254372   4.310   1.273   4.445 -0.2167 -0.1892  0.4646
10986TIP3    H154373   4.294   1.180   4.431 -1.8285  0.2301 -0.9613
10986TIP3    H254374   4.403   1.285   4.428  0.3362 -1.7442  2.1452
10987TIP3   OH254375   3.431   0.345  13.198 -0.3814 -0.1085 -0.8981
10987TIP3    H154376   3.377   0.364  13.275  0.0579 -0.3237 -0.5336
10987TIP3    H254377   3.513   0.392  13.213  0.1667 -1.1171 -0.6527
10988TIP3   OH254378   3.828   4.313  12.450  0.2334 -0.3067 -0.4233
10988TIP3    H154379   3.842   4.275  12.536  1.9940 -0.8221 -0.8790
10988TIP3    H254380   3.737   4.342  12.450 -0.3309 -1.9328  0.9577
10989TIP3   OH254381   0.496   1.298   3.684  0.1282 -0.2573  0.3650
10989TIP3    H154382   0.440   1.372   3.661 -0.4169 -1.2635 -1.8150
10989TIP3    H254383   0.439   1.221   3.677  1.5293 -1.2267 -1.1339
10990TIP3   OH254384   1.713   1.731   5.126 -0.1960 -0.1443  0.6009
10990TIP3    H154385   1.728   1.821   5.153 -2.0402  0.6150 -0.7455
10990TIP3    H254386   1.762   1.722   5.043  1.4141 -0.9688  1.5798
10991TIP3   OH254387   2.092   1.689   5.517  0.3173 -0.4784  0.5776
10991TIP3    H154388   2.028   1.751   5.552  0.4734 -0.4822  0.8733
10991TIP3    H254389   2.177   1.727   5.539  0.4965  0.6356 -1.6983
10992TIP3   OH254390   4.329   0.169   2.940 -0.3599  0.7240 -0.1551
10992TIP3    H154391   4.331   0.247   2.885 -1.3002  0.7019 -0.2251
10992TIP3    H254392   4.342   0.202   3.029 -0.5660  0.9410 -0.2039
10993TIP3   OH254393   1.952   5.863  11.156  0.4695  0.1643  0.3521
10993TIP3    H154394   1.864   5.896  11.140  0.6803  0.4070 -0.3199
10993TIP3    H254395   1.968   5.800  11.086  0.2957 -0.9757  1.2862
10994TIP3   OH254396   4.680   5.588   3.521  0.2809 -0.1415  0.2665
10994TIP3    H154397   4.649   5.664   3.472  0.4677 -0.2537 -0.0297
10994TIP3    H254398   4.700   5.622   3.608 -0.4264 -0.0151  0.3881
10995TIP3   OH254399   2.990   4.363   5.933  0.6996  0.6019  0.4564
10995TIP3    H154400   2.897   4.344   5.947  0.9424 -0.3705  0.7921
10995TIP3    H254401   3.013   4.420   6.007  0.5388  0.2628  0.7738
10996TIP3   OH254402   3.468   4.054   2.083 -0.3624 -0.0693  0.7076
10996TIP3    H154403   3.467   3.965   2.119 -0.7340  0.2619  1.5438
10996TIP3    H254404   3.544   4.095   2.125 -0.3072  0.0708  0.4710
10997TIP3   OH254405   0.579   3.414   5.947 -0.3905 -0.2033  0.0234
10997TIP3    H154406   0.673   3.401   5.953 -0.1780  1.5659  1.4874
10997TIP3    H254407   0.545   3.384   6.032 -1.1780 -0.9540 -0.5415
10998TIP3   OH254408   1.037   6.622  16.401  0.3070 -0.3765 -0.0890
10998TIP3    H154409   1.037   6.660  16.313  0.4142 -0.0363  0.0541
10998TIP3    H254410   1.115   6.659  16.443 -0.7228  0.9600  0.7667
10999TIP3   OH254411   5.608   0.761   0.923  0.7814 -0.3844 -0.2225
10999TIP3    H154412   5.701   0.740   0.929  0.7447 -0.1730  1.4252
10999TIP3    H254413   5.571   0.690   0.871  1.3504 -2.2027  1.7347
11000TIP3   OH254414   3.598   3.706   1.512 -0.0858 -0.0358  0.4737
11000TIP3    H154415   3.617   3.753   1.430 -1.2617  0.7581  0.6386
11000TIP3    H254416   3.563   3.622   1.483  1.4259 -0.6050  0.1795
11001TIP3   OH254417   5.792   4.464   4.908 -0.4849 -0.1610  1.1186
11001TIP3    H154418   5.753   4.545   4.875 -0.1439  0.1871  1.5579
11001TIP3    H254419   5.838   4.491   4.988 -0.0782 -0.7262  1.0735
11002TIP3   OH254420   2.895   6.556  17.188  0.1010 -0.2677  0.1058
11002TIP3    H154421   2.937   6.549  17.103  1.6078  0.2035  0.7686
11002TIP3    H254422   2.802   6.541  17.171  0.4082 -0.4313 -1.5640
11003TIP3   OH254423   2.126   0.015   3.165  0.3259  0.3997  0.0229
11003TIP3    H154424   2.192  -0.031   3.217  0.5137  1.0484  0.3656
11003TIP3    H254425   2.170   0.095   3.136 -0.1843  0.6423 -0.0874
11004TIP3   OH254426   2.467   4.874  13.262 -0.7687 -0.1048  0.1969
11004TIP3    H154427   2.494   4.867  13.170 -1.3260 -2.6104  0.1595
11004TIP3    H254428   2.372   4.884  13.258 -0.6632  1.1957  0.5060
11005TIP3   OH254429   4.668   1.252   6.568  0.4949  0.3425 -0.2022
11005TIP3    H154430   4.602   1.307   6.527 -0.5882 -0.2882  0.6509
11005TIP3    H254431   4.751   1.283   6.532  0.0151  3.0386  0.8257
11006TIP3   OH254432   1.836   2.046   1.087  0.2496 -0.4121  0.6486
11006TIP3    H154433   1.801   1.960   1.109  0.3657 -0.5749  0.2235
11006TIP3    H254434   1.930   2.031   1.078  0.1466 -0.4987 -0.5351
11007TIP3   OH254435   3.993   2.756  11.158 -0.1400 -0.3492  0.1729
11007TIP3    H154436   4.061   2.810  11.119 -0.0730  0.6256  1.5789
11007TIP3    H254437   3.953   2.710  11.084 -0.7696  2.2322 -1.1889
11008TIP3   OH254438   2.540   0.047  17.105  0.2954 -0.9798 -0.1430
11008TIP3    H154439   2.491   0.025  17.026  0.6761 -3.0911  0.1626
11008TIP3    H254440   2.624   0.002  17.095 -0.0028 -2.1240  1.8745
11009TIP3   OH254441   1.289   2.568  13.886 -0.4180 -0.0859  0.0606
11009TIP3    H154442   1.251   2.656  13.877 -0.9502 -0.4390 -1.3168
11009TIP3    H254443   1.370   2.583  13.935 -0.3840  1.2083 -0.3400
11010TIP3   OH254444   6.505   3.254  16.125  0.2110 -0.6029 -0.1632
11010TIP3    H154445   6.486   3.296  16.041  0.1359 -1.0514 -0.3762
11010TIP3    H254446   6.597   3.227  16.118 -0.0311 -1.4016 -0.4483
11011TIP3   OH254447   6.486   4.894   0.982 -0.1706 -0.7882 -0.6258
11011TIP3    H154448   6.559   4.851   0.937  0.3025 -0.0564 -0.5597
11011TIP3    H254449   6.520   4.916   1.068  0.2337  1.4124 -1.2783
11012TIP3   OH254450   1.240   5.844   2.122 -0.3079 -0.0349  0.1966
11012TIP3    H154451   1.234   5.751   2.141  1.7768  0.0029  1.3339
11012TIP3    H254452   1.270   5.849   2.031  0.9198 -0.5341  0.5593
11013TIP3   OH254453   1.589   3.574  11.593 -0.0339  0.4184 -0.6449
11013TIP3    H154454   1.619   3.649  11.645  0.0797 -0.1623  0.1366
11013TIP3    H254455   1.518   3.609  11.539  0.8152  1.3784 -1.1876
11014TIP3   OH254456   6.058   1.236   5.352 -0.9857 -0.1250  0.4653
11014TIP3    H154457   6.128   1.299   5.331  0.1689 -0.7195  2.3073
11014TIP3    H254458   6.039   1.194   5.268  0.5657  0.3825 -0.1940
11015TIP3   OH254459   4.152   6.013  15.612  0.0388 -0.8396  0.1680
11015TIP3    H154460   4.085   6.021  15.680  1.3887 -2.0727  1.7032
11015TIP3    H254461   4.143   5.924  15.580 -1.2009 -0.0074 -2.0225
11016TIP3   OH254462   2.760   0.017   0.126 -0.1866  0.1741 -0.2145
11016TIP3    H154463   2.813   0.090   0.094 -0.4683  0.1239 -0.8149
11016TIP3    H254464   2.700   0.057   0.189  1.8200 -0.0593  2.0188
11017TIP3   OH254465   3.127   0.783   5.553 -0.7106 -0.0140 -0.2737
11017TIP3    H154466   3.075   0.818   5.625  0.3936 -1.1281  1.1131
11017TIP3    H254467   3.203   0.841   5.548  0.1304 -0.9904  0.7159
11018TIP3   OH254468   4.989   2.370  13.298  0.5605 -0.5081 -0.1359
11018TIP3    H154469   5.046   2.400  13.227  1.0848 -3.0825 -0.9064
11018TIP3    H254470   4.900   2.387  13.266  0.7944 -1.4045 -1.3628
11019TIP3   OH254471   0.588   3.120   1.029  0.2615  0.1581  0.1214
11019TIP3    H154472   0.677   3.083   1.032  0.5595  0.8779  0.2273
11019TIP3    H254473   0.579   3.153   0.940 -0.3847 -1.0602 -0.2956
11020TIP3   OH254474   4.348   2.952  12.789  0.3489 -0.6951 -0.1596
11020TIP3    H154475   4.268   2.917  12.750  0.3912  0.2349 -1.1461
11020TIP3    H254476   4.408   2.878  12.791 -1.1440 -1.9864  2.5619
11021TIP3   OH254477   6.162   1.566   6.368 -0.0926 -0.6062 -0.0470
11021TIP3    H154478   6.137   1.500   6.433 -1.1826  1.3788  1.6735
11021TIP3    H254479   6.078   1.598   6.334  0.4237 -0.1938 -0.9509
11022TIP3   OH254480   3.795   3.542  12.490  0.2879 -0.1652  0.4740
11022TIP3    H154481   3.823   3.585  12.410 -0.3385 -2.2171 -0.9427
11022TIP3    H254482   3.702   3.565  12.499  0.4706  0.4304  0.8805
11023TIP3   OH254483   5.218   0.951   1.794  0.4790  0.0961 -0.0745
11023TIP3    H154484   5.155   0.950   1.721  0.3939 -0.4885 -0.0015
11023TIP3    H254485   5.232   1.043   1.812 -2.0925  0.3059  1.3825
11024TIP3   OH254486   3.268   3.873   1.434  0.2527 -0.3034  0.3785
11024TIP3    H154487   3.272   3.783   1.465  0.8718 -0.3587  0.1353
11024TIP3    H254488   3.359   3.901   1.427  0.0640  0.4546  0.7761
11025TIP3   OH254489   2.039   2.697  11.753 -0.4897 -0.2509 -0.4520
11025TIP3    H154490   2.086   2.697  11.670 -0.5535  1.0927 -0.5114
11025TIP3    H254491   2.064   2.779  11.795  1.6264 -1.9954  2.0857
11026TIP3   OH254492   1.228   2.970   5.551  0.1369  0.2656 -0.2774
11026TIP3    H154493   1.233   2.934   5.639 -1.1832 -0.1567 -0.3615
11026TIP3    H254494   1.305   3.027   5.544 -0.5495  1.5431  1.7017
11027TIP3   OH254495   4.522   2.012  13.035  0.5751 -0.3995 -0.8527
11027TIP3    H154496   4.582   2.003  12.961  0.8710 -0.7783 -0.5733
11027TIP3    H254497   4.435   2.006  12.996  0.6999  0.9286 -1.3638
11028TIP3   OH254498   2.163   2.311  15.897  0.1574  0.2456  0.2029
11028TIP3    H154499   2.251   2.302  15.861 -0.4451  0.4483 -1.3813
11028TIP3    H254500   2.110   2.339  15.823 -1.4236 -0.7887  0.8968
11029TIP3   OH254501   2.395   6.501   0.915  0.8880  0.1287 -0.5779
11029TIP3    H154502   2.365   6.584   0.951 -1.8692  0.1040 -2.4997
11029TIP3    H254503   2.488   6.515   0.898  0.7377  2.4469  0.1504
11030TIP3   OH254504   3.239   2.940  10.865 -0.0704  0.5178  0.2059
11030TIP3    H154505   3.275   2.858  10.899  1.2077  0.7579 -0.4852
11030TIP3    H254506   3.179   2.971  10.933 -2.0234 -1.8897 -0.2919
11031TIP3   OH254507   0.913   4.162  17.186 -0.1716 -0.4459 -0.2425
11031TIP3    H154508   0.888   4.100  17.118  0.1391 -0.1343 -0.6473
11031TIP3    H254509   0.976   4.220  17.143 -1.3153  0.8717 -0.2292
11032TIP3   OH254510   0.572   0.179  16.858 -0.2705  0.1258 -0.0489
11032TIP3    H154511   0.574   0.188  16.763 -0.1030 -0.3743 -0.0988
11032TIP3    H254512   0.480   0.166  16.880 -0.1593 -1.2732 -0.3067
11033TIP3   OH254513   6.440   4.026  13.739 -0.0752  0.1272  0.0040
11033TIP3    H154514   6.495   4.048  13.664 -0.7047 -0.5079 -0.6682
11033TIP3    H254515   6.423   3.932  13.730 -1.0019  0.2431  0.3573
11034TIP3   OH254516   6.581   0.214  12.209  0.0773 -0.1144  0.2039
11034TIP3    H154517   6.653   0.164  12.249  0.0152 -0.4661 -0.1207
11034TIP3    H254518   6.612   0.235  12.121 -0.7890 -1.5434 -0.4729
11035TIP3   OH254519   0.424   3.300   4.041  0.3755 -0.5341 -0.0631
11035TIP3    H154520   0.417   3.228   3.978 -0.4895 -1.1674  0.7349
11035TIP3    H254521   0.336   3.308   4.080  0.2678  1.3762 -0.5722
11036TIP3   OH254522   5.390   4.612  12.127 -0.1747 -0.6233 -0.1069
11036TIP3    H154523   5.467   4.665  12.144 -0.9050  0.6870 -0.7495
11036TIP3    H254524   5.328   4.672  12.085 -1.6510 -1.5510  0.6518
11037TIP3   OH254525   2.719   1.124  17.282  0.4311 -0.1496 -0.0975
11037TIP3    H154526   2.760   1.107  17.367  1.5726 -0.0889 -0.6179
11037TIP3    H254527   2.695   1.038  17.249 -3.4399 -0.0407  1.8545
11038TIP3   OH254528   0.255   1.335  11.775  0.2728 -0.8273 -0.0165
11038TIP3    H154529   0.349   1.322  11.766  0.6122  0.4677  1.2138
11038TIP3    H254530   0.246   1.424  11.810 -1.4391 -0.6969 -0.6799
11039TIP3   OH254531   2.898   6.649  13.302 -0.0070  0.0963 -0.2965
11039TIP3    H154532   2.979   6.598  13.295  1.1664  1.5918  1.4047
11039TIP3    H254533   2.857   6.618  13.383 -2.8953 -2.8575 -2.6306
11040TIP3   OH254534   0.703   0.239   5.223 -0.3696 -0.0926 -0.1640
11040TIP3    H154535   0.737   0.258   5.311 -1.1792 -0.0031  0.1403
11040TIP3    H254536   0.781   0.225   5.170  0.1518  0.4133  0.4435
11041TIP3   OH254537   6.022   0.828  11.247 -0.5189 -0.5432 -0.2816
11041TIP3    H154538   5.974   0.779  11.314 -2.7497 -1.0971 -2.1598
11041TIP3    H254539   6.031   0.916  11.284 -2.7708 -0.5066  0.3264
11042TIP3   OH254540   4.397   5.881   4.715 -0.1959 -0.0950  0.0189
11042TIP3    H154541   4.474   5.929   4.685  0.1691 -0.0726  0.9688
11042TIP3    H254542   4.338   5.948   4.748 -1.6173  0.1420 -2.6769
11043TIP3   OH254543   5.232   5.365  12.246  0.4976 -0.0017 -0.1205
11043TIP3    H154544   5.249   5.419  12.169  1.7782 -3.5907 -2.5716
11043TIP3    H254545   5.317   5.331  12.272 -0.2620 -0.9916  1.2260
11044TIP3   OH254546   2.457   0.482   0.188 -0.1912 -0.5171  0.1402
11044TIP3    H154547   2.428   0.567   0.220  0.1636  0.1182 -1.1682
11044TIP3    H254548   2.427   0.479   0.097 -0.8832 -2.1292  0.3922
11045TIP3   OH254549   5.650   5.543   2.499  0.1572 -0.2888  0.0269
11045TIP3    H154550   5.688   5.586   2.576  1.6008  2.5180 -2.0673
11045TIP3    H254551   5.717   5.481   2.471  0.0496 -0.6064  0.4674
11046TIP3   OH254552   5.540   1.198  15.847  0.2392 -0.2924  0.3251
11046TIP3    H154553   5.456   1.226  15.883  0.2905 -0.4826  0.5935
11046TIP3    H254554   5.556   1.258  15.774 -0.0364 -0.1332  0.3949
11047TIP3   OH254555   6.252   5.746  13.640 -0.1137  0.4129  0.1437
11047TIP3    H154556   6.254   5.685  13.714 -1.3120  0.9312  0.6207
11047TIP3    H254557   6.317   5.711  13.579 -1.5274 -1.9948 -0.1217
11048TIP3   OH254558   3.436   0.021  14.856  0.3978  0.9392 -0.1282
11048TIP3    H154559   3.459  -0.058  14.906  0.3332  1.0631  0.1014
11048TIP3    H254560   3.343   0.034  14.875  0.9897  2.6185  2.0671
11049TIP3   OH254561   2.679   0.552   4.813 -0.7864 -0.1318  0.2512
11049TIP3    H154562   2.704   0.644   4.805  0.9080 -0.6087 -0.4633
11049TIP3    H254563   2.655   0.526   4.724 -0.0363 -0.6780  0.1933
11050TIP3   OH254564   5.680   0.330  11.701  0.5691  0.1148 -0.6899
11050TIP3    H154565   5.628   0.267  11.752  2.4943 -0.4617  0.6945
11050TIP3    H254566   5.647   0.415  11.727  1.5403 -0.1609  1.6924
11051TIP3   OH254567   4.579   5.694   1.986 -0.6508 -0.4029  0.3476
11051TIP3    H154568   4.502   5.723   1.937 -0.3560 -0.1324  0.0512
11051TIP3    H254569   4.542   5.637   2.055 -1.3719  1.6014  1.7126
11052TIP3   OH254570   2.329   4.350   6.000  0.0319  0.3273  0.3940
11052TIP3    H154571   2.255   4.389   5.953  0.0956  1.7943  1.4452
11052TIP3    H254572   2.304   4.259   6.012 -0.5348  0.2212 -1.3466
11053TIP3   OH254573   0.528   2.366   2.724  0.0120  0.2704 -0.7466
11053TIP3    H154574   0.499   2.428   2.790 -0.1631 -0.6615  0.0654
11053TIP3    H254575   0.623   2.368   2.728 -0.0002 -0.2791  0.0236
11054TIP3   OH254576   2.566   3.436  16.346  0.1613 -0.0079 -0.4119
11054TIP3    H154577   2.644   3.384  16.365  2.0041  2.3020 -1.1283
11054TIP3    H254578   2.520   3.441  16.429  0.9760 -1.0951  0.1402
11055TIP3   OH254579   0.705   0.362  16.563  0.0244 -0.2813 -0.5073
11055TIP3    H154580   0.625   0.337  16.609  0.9300 -1.2095  0.6350
11055TIP3    H254581   0.690   0.334  16.472 -0.0100 -2.7853  0.1945
11056TIP3   OH254582   3.268   0.634   3.918  0.2106  0.0669 -0.2664
11056TIP3    H154583   3.348   0.683   3.902  0.3705 -0.5135 -1.3358
11056TIP3    H254584   3.259   0.576   3.842 -0.4742 -0.8781  0.5020
11057TIP3   OH254585   4.814   5.347  13.059  0.1943 -0.8104 -0.3149
11057TIP3    H154586   4.871   5.314  12.989 -0.4108 -0.0272 -1.1993
11057TIP3    H254587   4.756   5.273  13.079 -0.0530 -0.8374 -1.0993
11058TIP3   OH254588   5.034   3.844   6.474 -0.0613  0.1053  0.1453
11058TIP3    H154589   5.012   3.842   6.567 -0.3451  3.3085  0.2504
11058TIP3    H254590   5.124   3.875   6.470 -0.2898  0.7198 -0.6437
11059TIP3   OH254591   3.125   0.241   3.645  0.0704  0.2154  0.1579
11059TIP3    H154592   3.111   0.171   3.582  1.0363 -0.2180  0.4166
11059TIP3    H254593   3.049   0.237   3.703 -0.3565  0.0194 -0.4141
11060TIP3   OH254594   4.823   3.333   2.398  0.1265 -0.3121 -0.0774
11060TIP3    H154595   4.811   3.241   2.375  0.6092 -0.5199  0.4781
11060TIP3    H254596   4.819   3.380   2.314  1.1452 -0.9798 -0.5160
11061TIP3   OH254597   1.379   2.294   4.885  0.2888  0.2761 -0.3530
11061TIP3    H154598   1.404   2.202   4.890  0.1889  0.0843 -2.4290
11061TIP3    H254599   1.283   2.293   4.890  0.2530  0.1954 -0.9664
11062TIP3   OH254600   0.849   1.426  16.419 -0.2293 -0.0715 -0.5627
11062TIP3    H154601   0.787   1.353  16.427  1.2484 -1.2780  0.6557
11062TIP3    H254602   0.928   1.385  16.385  0.6020  0.9903  0.0614
11063TIP3   OH254603   5.879   1.963   5.238  0.1020 -0.1373 -0.0587
11063TIP3    H154604   5.974   1.975   5.242 -0.1841  2.6115  0.2061
11063TIP3    H254605   5.854   1.948   5.330  0.2797 -1.3023 -0.1799
11064TIP3   OH254606   3.137   5.797  17.296  0.3312 -0.1490 -0.3323
11064TIP3    H154607   3.075   5.829  17.362  1.4902 -0.6667  1.0507
11064TIP3    H254608   3.093   5.720  17.257  1.3462 -2.6756  3.0267
11065TIP3   OH254609   6.580   4.304  12.493 -0.8516 -0.3728  0.3787
11065TIP3    H154610   6.661   4.354  12.491 -0.8324 -0.3498  1.1995
11065TIP3    H254611   6.592   4.241  12.565 -0.1454 -2.8492 -1.7571
11066TIP3   OH254612   5.210   2.262  13.631 -0.0030  0.3587 -0.0273
11066TIP3    H154613   5.124   2.268  13.672 -0.0426 -1.8861  0.3829
11066TIP3    H254614   5.266   2.225  13.699  0.7668 -0.1826 -0.9269
11067TIP3   OH254615   2.475   6.148   3.672 -0.0116 -0.0847  0.1282
11067TIP3    H154616   2.550   6.195   3.637 -0.1966 -0.6028 -0.9987
11067TIP3    H254617   2.413   6.216   3.699  1.2996  0.3821  2.1487
11068TIP3   OH254618   4.485   0.121  13.046 -0.1889 -0.1337  0.5815
11068TIP3    H154619   4.498   0.037  13.091 -0.9408 -0.9196 -0.5931
11068TIP3    H254620   4.405   0.157  13.084 -0.5573 -0.5629  0.2248
11069TIP3   OH254621   0.596   0.085  15.270  0.0653  0.2007  0.1418
11069TIP3    H154622   0.626   0.132  15.192  1.3779 -2.1076 -0.8478
11069TIP3    H254623   0.642   0.128  15.343  0.8191  0.7606 -0.6438
11070TIP3   OH254624   0.224   2.903  14.905 -0.0164 -0.3308 -0.7407
11070TIP3    H154625   0.129   2.914  14.912  0.1554  1.0945 -0.2335
11070TIP3    H254626   0.243   2.919  14.812 -0.3987 -1.9663 -1.1264
11071TIP3   OH254627   6.483   0.468  17.415  0.6819  0.0746 -0.0748
11071TIP3    H154628   6.529   0.550  17.434  2.4268 -0.9919  0.6721
11071TIP3    H254629   6.499   0.452  17.322  0.5551  0.4355 -0.1619
11072TIP3   OH254630   1.667   6.084   1.441  0.2014 -0.2522  0.8826
11072TIP3    H154631   1.609   6.157   1.464  1.6936  0.7800  1.5463
11072TIP3    H254632   1.717   6.116   1.366  0.1618 -1.0042  0.5244
11073TIP3   OH254633   5.183   2.364   5.494 -0.3265  0.3214 -0.1321
11073TIP3    H154634   5.119   2.304   5.533  0.2714  0.2786  0.8451
11073TIP3    H254635   5.179   2.346   5.400  0.7748 -2.2433  0.2251
11074TIP3   OH254636   3.946   6.377  13.901  0.0302  0.0411  0.3642
11074TIP3    H154637   3.892   6.452  13.873 -0.7304 -0.5332  0.2598
11074TIP3    H254638   3.883   6.308  13.919  0.8044 -1.1676 -1.2744
11075TIP3   OH254639   1.066   1.219   1.628  0.0686 -0.0584 -0.2629
11075TIP3    H154640   1.038   1.182   1.544 -1.0617 -0.7466  0.3852
11075TIP3    H254641   1.127   1.154   1.662 -0.0643 -0.1543 -0.2069
11076TIP3   OH254642   3.856   0.993   4.919 -0.4009  0.0719 -0.1499
11076TIP3    H154643   3.863   1.009   4.825  1.7143 -1.2157 -0.2780
11076TIP3    H254644   3.820   1.074   4.954 -1.1939  0.5988 -2.0522
11077TIP3   OH254645   1.805   0.312  16.851 -0.1209 -0.5696 -0.9590
11077TIP3    H154646   1.742   0.372  16.892 -0.5262 -1.2745 -0.5344
11077TIP3    H254647   1.826   0.354  16.767 -1.7676 -0.7003 -1.4795
11078TIP3   OH254648   0.800   3.871   0.485 -0.2112 -0.2541  0.0382
11078TIP3    H154649   0.888   3.851   0.516  0.5801  1.9508 -0.5629
11078TIP3    H254650   0.775   3.950   0.533 -0.5132  1.0058 -2.0570
11079TIP3   OH254651   2.194   1.004   2.936  0.0096 -0.1390  0.0801
11079TIP3    H154652   2.104   1.028   2.959 -0.8299 -3.4647  0.7381
11079TIP3    H254653   2.191   0.989   2.842 -0.7835 -2.3676  0.3994
11080TIP3   OH254654   3.320   0.329   1.906 -0.5075 -0.0165 -0.3156
11080TIP3    H154655   3.245   0.319   1.965  0.7784 -1.5149  1.1619
11080TIP3    H254656   3.300   0.272   1.832 -0.1619 -1.6272  0.8000
11081TIP3   OH254657   4.069   1.702  16.788  0.1326  0.4993 -0.0944
11081TIP3    H154658   4.140   1.726  16.729  0.2737  1.2657  0.3735
11081TIP3    H254659   4.103   1.720  16.876  0.1988 -1.3085  0.2967
11082TIP3   OH254660   3.772   0.773  13.158 -0.3232 -0.1384  0.3961
11082TIP3    H154661   3.796   0.866  13.156  0.3587 -0.2990  0.7962
11082TIP3    H254662   3.820   0.734  13.085 -1.1271 -0.0663 -0.1850
11083TIP3   OH254663   5.142   0.630  11.332 -0.5097  0.0933 -0.5444
11083TIP3    H154664   5.065   0.594  11.288  1.0423 -1.5817 -2.0842
11083TIP3    H254665   5.196   0.553  11.351  2.4242  1.3755 -2.8319
11084TIP3   OH254666   1.759   2.407  12.636 -0.4237  0.0474  0.2813
11084TIP3    H154667   1.685   2.467  12.647  0.5226  1.1758  0.7479
11084TIP3    H254668   1.722   2.332  12.589 -1.7289  0.8382 -0.0214
11085TIP3   OH254669   0.515   5.373   4.250  0.5063 -0.0918 -0.6849
11085TIP3    H154670   0.549   5.456   4.216 -1.9569  1.8396  1.1557
11085TIP3    H254671   0.506   5.388   4.344 -0.3248 -2.3769 -0.3465
11086TIP3   OH254672   5.574   0.463   1.842 -0.1270  0.6516  0.0493
11086TIP3    H154673   5.611   0.542   1.804 -1.0958  1.1674  0.1596
11086TIP3    H254674   5.508   0.494   1.903  1.5486 -0.1370  2.4267
11087TIP3   OH254675   5.734   5.420  16.891 -0.3222  0.2361 -0.5409
11087TIP3    H154676   5.780   5.343  16.858 -1.5137 -0.9036  0.3867
11087TIP3    H254677   5.662   5.433  16.829 -0.3279  0.4066 -0.4998
11088TIP3   OH254678   6.485   2.075  14.640 -0.5451 -0.4732 -0.3291
11088TIP3    H154679   6.447   2.157  14.672  0.6919 -0.4521  1.1722
11088TIP3    H254680   6.411   2.014  14.636 -0.9147 -0.2295  1.8416
11089TIP3   OH254681   0.861   4.588  13.811 -0.1626 -0.4425  0.3657
11089TIP3    H154682   0.823   4.673  13.834 -0.4807 -1.0015  2.0505
11089TIP3    H254683   0.893   4.552  13.894 -0.4434 -2.1614 -0.2228
11090TIP3   OH254684   6.305   6.120  14.711  0.3528  0.2318 -0.2927
11090TIP3    H154685   6.290   6.035  14.753  0.6025  0.2874 -0.0884
11090TIP3    H254686   6.217   6.155  14.697  0.2539  0.0325 -0.1836
11091TIP3   OH254687   6.587   3.891  14.960  0.0559  0.2034  0.1707
11091TIP3    H154688   6.617   3.856  14.876 -1.1236 -0.1309 -0.1314
11091TIP3    H254689   6.545   3.974  14.937 -1.1256 -0.3386  0.2693
11092TIP3   OH254690   6.528   3.836  13.460  0.1300 -0.1776  0.2951
11092TIP3    H154691   6.590   3.865  13.393 -0.5603  0.5947 -0.0247
11092TIP3    H254692   6.582   3.817  13.537  0.5382  3.4987  1.0643
11093TIP3   OH254693   1.816   6.140  11.400  0.0785 -0.2483  0.0984
11093TIP3    H154694   1.896   6.142  11.347  0.7487  0.9535  1.0910
11093TIP3    H254695   1.839   6.086  11.475  0.0094  0.2016  0.4460
11094TIP3   OH254696   3.479   0.957   0.095 -0.4889 -0.3243  0.1783
11094TIP3    H154697   3.472   0.910   0.011 -0.6273 -0.8654  0.4850
11094TIP3    H254698   3.406   0.923   0.147  0.7752 -1.5509  1.2575
11095TIP3   OH254699   0.830   1.029   4.045  0.1121 -0.4798 -0.0374
11095TIP3    H154700   0.896   1.073   3.991 -0.9472  0.8683 -0.2895
11095TIP3    H254701   0.798   0.957   3.990  0.5340 -0.4127 -0.3762
11096TIP3   OH254702   1.551   2.599   6.642 -1.0831 -0.0995  0.2627
11096TIP3    H154703   1.600   2.614   6.724  1.6421 -1.9740 -0.8862
11096TIP3    H254704   1.594   2.656   6.578 -2.1344  0.1255 -0.2695
11097TIP3   OH254705   5.652   0.518   4.223 -0.3219  0.5643 -0.1991
11097TIP3    H154706   5.619   0.529   4.134 -2.6566  0.7976  0.6213
11097TIP3    H254707   5.719   0.586   4.232  0.6938 -0.1233 -2.0569
11098TIP3   OH254708   5.947   3.606   3.000 -0.1459  0.0243 -0.0920
11098TIP3    H154709   5.876   3.559   2.955 -1.2020 -0.0846  1.5933
11098TIP3    H254710   6.018   3.542   3.005 -1.6152 -1.5723  2.3008
11099TIP3   OH254711   0.896   5.661   2.437 -0.3969  0.0760 -0.2454
11099TIP3    H154712   0.913   5.704   2.521 -1.2556  0.4313 -0.2481
11099TIP3    H254713   0.953   5.584   2.438 -0.1440  0.2617  0.5120
11100TIP3   OH254714   4.462   0.304  11.582  0.4874 -0.2391 -0.0829
11100TIP3    H154715   4.535   0.247  11.608  0.7681  0.7996  1.5475
11100TIP3    H254716   4.399   0.297  11.654 -0.1733  0.3347 -0.5930
11101TIP3   OH254717   5.124   0.798  14.411 -0.1077 -0.2799  0.7388
11101TIP3    H154718   5.078   0.843  14.340 -1.8964  1.4418  2.8259
11101TIP3    H254719   5.105   0.705  14.397 -1.1534  0.0900 -0.5256
11102TIP3   OH254720   5.666   5.298   0.382  0.1414 -0.2497 -0.0701
11102TIP3    H154721   5.751   5.324   0.346  0.5231  2.3104  2.3172
11102TIP3    H254722   5.675   5.309   0.476 -2.4976 -1.0861  0.3759
11103TIP3   OH254723   1.795   0.922   0.137 -0.1576  0.2629  0.4436
11103TIP3    H154724   1.825   0.982   0.205  0.0479 -0.4920  1.0303
11103TIP3    H254725   1.718   0.878   0.175 -1.7999  1.8512 -0.8709
11104TIP3   OH254726   3.996   5.617   2.104  0.0025  0.4618  0.0709
11104TIP3    H154727   3.973   5.709   2.089 -0.7549  0.4358  0.9985
11104TIP3    H254728   4.036   5.616   2.191  0.7745  0.0339 -0.2836
11105TIP3   OH254729   5.427   3.993  16.719 -0.5532 -0.3108 -0.3278
11105TIP3    H154730   5.428   4.087  16.737  2.7721 -0.1903 -0.6074
11105TIP3    H254731   5.353   3.982  16.659 -2.9152  1.5392  1.9529
11106TIP3   OH254732   4.638   0.195   1.062  0.4000  0.1548 -0.1060
11106TIP3    H154733   4.649   0.169   1.153 -1.3742 -0.2615  0.0189
11106TIP3    H254734   4.689   0.130   1.013 -1.3065 -1.6914  0.4154
11107TIP3   OH254735   3.475   1.272   0.388  0.2402 -0.1462 -0.0549
11107TIP3    H154736   3.452   1.179   0.393  1.7025 -0.5332 -0.1003
11107TIP3    H254737   3.429   1.303   0.310 -0.8856 -0.6248  0.3897
11108TIP3   OH254738   6.085   0.023  15.118  0.0021  0.1006 -0.0772
11108TIP3    H154739   6.031   0.031  15.196 -1.2779  1.4733 -1.0424
11108TIP3    H254740   6.172   0.051  15.146 -0.4400  0.5954  0.8455
11109TIP3   OH254741   5.388   6.361   1.135  0.0082  0.6680  0.6116
11109TIP3    H154742   5.454   6.424   1.108 -0.5509  1.5766  1.3129
11109TIP3    H254743   5.305   6.399   1.107 -0.2267 -0.6055 -0.5263
11110TIP3   OH254744   1.429   3.990  14.871  0.4284 -0.2269 -0.9198
11110TIP3    H154745   1.409   3.900  14.845 -0.2760 -0.0759 -0.9169
11110TIP3    H254746   1.369   4.043  14.818  0.8516  0.2405 -0.9297
11111TIP3   OH254747   1.199   3.143   3.263  0.3240 -0.1202  0.2715
11111TIP3    H154748   1.236   3.213   3.208  0.5825  1.8575  2.7891
11111TIP3    H254749   1.237   3.157   3.349 -0.1627 -3.0232  1.0775
11112TIP3   OH254750   0.038   1.221   1.847 -0.5616 -0.0770 -0.4180
11112TIP3    H154751   0.057   1.248   1.757 -1.6696  3.8953  0.3487
11112TIP3    H254752  -0.055   1.240   1.859 -0.0822  1.1194  2.0260
11113TIP3   OH254753   1.508   3.428   1.568  0.0011  0.3787  0.0049
11113TIP3    H154754   1.540   3.516   1.549  0.8553  0.4485  1.5582
11113TIP3    H254755   1.467   3.436   1.654  1.2709 -0.9777  0.7878
11114TIP3   OH254756   3.620   2.055  11.744 -0.2045  0.0178 -0.2715
11114TIP3    H154757   3.633   2.002  11.666 -1.9979 -3.0933  1.3845
11114TIP3    H254758   3.526   2.073  11.747  0.0068  1.1891  0.5488
11115TIP3   OH254759   1.400   2.283  16.748 -0.2335 -0.2166  0.2233
11115TIP3    H154760   1.414   2.334  16.828 -0.2547  0.6398 -0.3087
11115TIP3    H254761   1.376   2.348  16.682 -0.1982 -0.9138 -0.4854
11116TIP3   OH254762   4.856   1.172   0.700  0.1069 -0.0228  0.1143
11116TIP3    H154763   4.945   1.143   0.681  0.0229 -0.4439  0.3694
11116TIP3    H254764   4.834   1.131   0.784 -0.2449  0.2573  0.1608
11117TIP3   OH254765   3.620   5.100   5.372  0.3091  0.7662 -0.2874
11117TIP3    H154766   3.661   5.163   5.312 -1.0977  1.3032 -0.7394
11117TIP3    H254767   3.581   5.035   5.315  1.2242 -0.1977  0.1644
11118TIP3   OH254768   3.686   6.478   3.987  0.4147 -0.6586  0.0499
11118TIP3    H154769   3.613   6.490   4.048 -0.7932 -2.4540 -0.9642
11118TIP3    H254770   3.740   6.410   4.026  0.7646 -0.3666  0.0856
11119TIP3   OH254771   0.681   4.722  15.505  0.0732  0.0809 -0.7054
11119TIP3    H154772   0.615   4.723  15.575  1.5080  0.2355  0.6875
11119TIP3    H254773   0.703   4.630  15.494  0.1082  0.0868 -0.6884
11120TIP3   OH254774   3.068   2.086   6.211  0.3846  0.1857  0.1939
11120TIP3    H154775   3.079   2.064   6.304  0.3378  0.7897  0.3454
11120TIP3    H254776   3.086   2.004   6.165  0.3362 -0.1367  0.7403
11121TIP3   OH254777   3.303   5.299   3.967 -0.0460  0.1046 -0.7599
11121TIP3    H154778   3.370   5.337   4.024 -0.7233  1.1341 -0.6217
11121TIP3    H254779   3.260   5.233   4.021  1.2027 -0.9811 -1.0303
11122TIP3   OH254780   0.186   1.502   2.251 -0.1115  0.1876 -0.1456
11122TIP3    H154781   0.122   1.518   2.182 -0.0746 -2.6982 -0.9685
11122TIP3    H254782   0.147   1.541   2.329 -1.1537  1.6281 -1.3290
11123TIP3   OH254783   0.599   4.590   5.656 -0.5971  0.0799 -0.2220
11123TIP3    H154784   0.670   4.651   5.636 -1.7188  1.2044 -0.8626
11123TIP3    H254785   0.644   4.513   5.692  1.2446 -0.3842 -3.1156
11124TIP3   OH254786   3.141   1.536   2.434 -0.4528  0.0161  0.5828
11124TIP3    H154787   3.108   1.623   2.411  1.7725  0.6695 -0.4029
11124TIP3    H254788   3.076   1.475   2.398 -1.3064  1.2460 -0.0224
11125TIP3   OH254789   2.450   1.598   5.357 -0.6123 -0.3094  0.1124
11125TIP3    H154790   2.429   1.593   5.264  0.4701  0.5834 -0.1977
11125TIP3    H254791   2.544   1.579   5.362 -0.9421 -1.8614  1.2023
11126TIP3   OH254792   0.161   5.512   4.245 -0.0472  0.0348 -0.0239
11126TIP3    H154793   0.157   5.555   4.330 -3.0267  0.2568 -0.1692
11126TIP3    H254794   0.198   5.578   4.186  0.4624  0.4753  0.7855
11127TIP3   OH254795   6.202   1.198   4.571 -0.0585 -0.3608  0.1781
11127TIP3    H154796   6.238   1.278   4.533  1.6401 -1.3184 -0.3025
11127TIP3    H254797   6.160   1.154   4.497  1.0595 -1.0143 -0.0922
11128TIP3   OH254798   5.450   1.655   3.042  0.4237  0.2349 -0.4499
11128TIP3    H154799   5.483   1.745   3.047 -2.5424  1.6036 -2.7068
11128TIP3    H254800   5.520   1.606   2.998  0.7032  2.3197 -2.5211
11129TIP3   OH254801   4.834   3.695  12.736 -0.0469  0.5984 -0.0628
11129TIP3    H154802   4.825   3.646  12.818 -0.6281 -0.4735 -0.7376
11129TIP3    H254803   4.745   3.724  12.715 -0.1229 -0.2358 -0.9550
11130TIP3   OH254804   6.159   4.951  12.574 -0.2736  0.5617  0.0090
11130TIP3    H154805   6.083   4.998  12.609 -2.1177 -3.2075  1.6140
11130TIP3    H254806   6.213   4.932  12.651  0.0722 -0.4881 -0.4792
11131TIP3   OH254807   6.030   1.911  16.059 -0.3563 -0.3628  0.4011
11131TIP3    H154808   6.087   1.838  16.082  1.4913  0.8555 -0.0441
11131TIP3    H254809   6.061   1.939  15.973 -3.0405 -0.9444 -0.8549
11132TIP3   OH254810   4.981   5.594   1.265 -0.3165 -0.2264  0.0381
11132TIP3    H154811   4.950   5.622   1.179  1.0841 -0.0023 -0.4243
11132TIP3    H254812   4.932   5.649   1.327  0.4157  1.3841 -0.7428
11133TIP3   OH254813   4.627   3.838   5.908  0.1461  0.5139 -0.4253
11133TIP3    H154814   4.539   3.826   5.942  0.1337  0.9554 -0.2951
11133TIP3    H254815   4.684   3.802   5.976  0.1617  2.1519  0.4601
11134TIP3   OH254816   0.039   6.115  10.620 -0.6925 -0.0399 -0.2639
11134TIP3    H154817  -0.022   6.188  10.628  3.0271  3.6156 -1.3311
11134TIP3    H254818   0.082   6.111  10.706 -0.1837 -0.2607 -0.5254
11135TIP3   OH254819   4.030   3.789   5.271  0.5692 -0.3698  0.1037
11135TIP3    H154820   3.957   3.847   5.290  1.4973  1.1783 -0.8558
11135TIP3    H254821   3.990   3.702   5.260 -1.5867  0.8416 -3.1445
11136TIP3   OH254822   0.634   5.897  16.640 -0.8467 -0.2134 -0.3129
11136TIP3    H154823   0.719   5.914  16.681 -0.4480 -2.9947  0.2427
11136TIP3    H254824   0.652   5.892  16.546 -0.1945 -1.6132 -0.1302
11137TIP3   OH254825   1.279   6.090   0.424  0.7524 -0.6921 -0.1670
11137TIP3    H154826   1.271   6.186   0.423 -0.6246 -0.7773  0.1697
11137TIP3    H254827   1.332   6.070   0.347 -0.2626  0.2549 -1.1558
11138TIP3   OH254828   5.254   5.620  16.969  0.2721  0.1639  0.5394
11138TIP3    H154829   5.192   5.688  16.943  0.9986  0.3014 -0.9284
11138TIP3    H254830   5.206   5.538  16.957  0.5766  0.2207 -1.3415
11139TIP3   OH254831   5.630   0.089   1.513  0.0719  0.1880  0.0858
11139TIP3    H154832   5.657   0.111   1.424 -0.7034 -0.6680 -0.3789
11139TIP3    H254833   5.585   0.167   1.545  1.5559  1.0106  0.2600
11140TIP3   OH254834   6.174   2.674   6.355  0.0495 -0.1559  0.2310
11140TIP3    H154835   6.120   2.620   6.296  0.0960  1.2389 -1.1714
11140TIP3    H254836   6.114   2.698   6.426 -0.2288 -1.2706  0.3958
11141TIP3   OH254837   5.208   0.940  12.886  0.1485 -0.0458 -0.0930
11141TIP3    H154838   5.275   0.872  12.897  0.1054  0.0060  0.5425
11141TIP3    H254839   5.251   1.021  12.914  0.2915  0.2488 -1.1246
11142TIP3   OH254840   2.522   5.322  12.439 -0.0278 -0.1433 -0.1055
11142TIP3    H154841   2.459   5.251  12.423 -0.6100  0.1347  0.8199
11142TIP3    H254842   2.538   5.319  12.534 -1.0095  1.6939  0.1778
11143TIP3   OH254843   4.775   5.457   1.774  0.2234 -0.3502  0.0423
11143TIP3    H154844   4.805   5.449   1.864 -0.1168  0.3207  0.2222
11143TIP3    H254845   4.681   5.440   1.779  0.1069  0.2195 -0.0930
11144TIP3   OH254846   5.918   5.128   0.631 -0.0259  0.3604 -0.8548
11144TIP3    H154847   5.998   5.141   0.579 -0.2856 -1.6394 -1.8845
11144TIP3    H254848   5.865   5.069   0.578 -0.6462 -1.1993  1.3479
11145TIP3   OH254849   4.119   2.937   3.397  0.4680 -0.3455 -0.4296
11145TIP3    H154850   4.111   2.924   3.303 -0.4738 -0.0389 -0.4017
11145TIP3    H254851   4.070   2.864   3.435 -2.5577  1.5928 -0.2429
11146TIP3   OH254852   4.429   1.049   4.308 -0.1918  0.0616  0.0426
11146TIP3    H154853   4.473   1.130   4.285 -0.0893  0.5512  1.8271
11146TIP3    H254854   4.433   0.996   4.228 -1.2896  2.2124 -1.5350
11147TIP3   OH254855   1.419   5.752   1.928 -0.1329 -0.4489 -0.2918
11147TIP3    H154856   1.406   5.660   1.953 -0.4613  0.2114  2.3362
11147TIP3    H254857   1.512   5.759   1.910  0.1442 -1.0350  0.8198
11148TIP3   OH254858   1.449   2.869   0.432  0.0909  0.0185  0.1260
11148TIP3    H154859   1.421   2.811   0.502  0.9322  1.2360  1.5130
11148TIP3    H254860   1.397   2.949   0.445 -1.1218 -0.3597 -1.8036
11149TIP3   OH254861   1.882   2.833  16.856  0.6165 -0.4484  0.5550
11149TIP3    H154862   1.890   2.761  16.918  0.6646  0.1071  1.2046
11149TIP3    H254863   1.972   2.857  16.834  0.6115 -0.2322  0.7629
11150TIP3   OH254864   6.041   2.285   6.045  0.5943  0.0904 -0.1166
11150TIP3    H154865   6.128   2.251   6.067 -0.3918 -1.0737  2.3957
11150TIP3    H254866   5.983   2.243   6.108 -1.9356  0.2618 -2.1905
11151TIP3   OH254867   5.949   5.596  13.086 -0.5646  0.1477 -0.3673
11151TIP3    H154868   6.007   5.523  13.109  1.4693  1.9674  0.5946
11151TIP3    H254869   5.956   5.601  12.991  0.5380  0.0512 -0.3121
11152TIP3   OH254870   0.922   3.470   0.177 -0.2035  0.4576  0.2021
11152TIP3    H154871   0.935   3.390   0.228  0.3099 -0.4396 -1.2634
11152TIP3    H254872   0.876   3.530   0.236  0.1690 -0.6087  1.6130
11153TIP3   OH254873   4.741   4.624   0.473  0.0485 -0.0217 -0.0130
11153TIP3    H154874   4.665   4.646   0.419  0.5317  0.7549 -0.3772
11153TIP3    H254875   4.760   4.703   0.522 -0.2617 -0.6542  1.1762
11154TIP3   OH254876   2.061   0.724   5.543  0.0922  0.1009  0.3883
11154TIP3    H154877   1.989   0.670   5.574 -0.0399 -0.1180 -0.2737
11154TIP3    H254878   2.130   0.713   5.608  1.1399 -3.1084 -1.0895
11155TIP3   OH254879   4.864   2.744  12.769 -0.1680 -0.1989  0.2381
11155TIP3    H154880   4.833   2.719  12.682 -0.6025 -1.5899  0.7541
11155TIP3    H254881   4.852   2.838  12.774 -0.5533 -0.1706 -1.0436
11156TIP3   OH254882   1.334   6.083  14.667  0.1926  0.7202 -1.3068
11156TIP3    H154883   1.404   6.052  14.611 -0.3911 -1.2758 -1.0051
11156TIP3    H254884   1.375   6.094  14.753 -0.0244 -1.5560 -0.8430
11157TIP3   OH254885   6.446   0.794  11.807  0.4778 -0.2639  0.3157
11157TIP3    H154886   6.413   0.719  11.758 -1.6293  0.9858 -0.3071
11157TIP3    H254887   6.394   0.796  11.887  1.4713 -0.2418  0.9762
11158TIP3   OH254888   6.003   0.364   3.066 -0.0412  0.2913  0.1690
11158TIP3    H154889   5.917   0.333   3.094  0.2554 -0.4824  0.2484
11158TIP3    H254890   6.016   0.324   2.979 -0.0103  0.8806 -0.1030
11159TIP3   OH254891   3.973   2.747   2.357 -0.1725  0.1850 -0.4396
11159TIP3    H154892   4.000   2.806   2.427  2.0557 -0.9037 -0.2790
11159TIP3    H254893   4.017   2.781   2.279  1.0298 -1.0767 -0.3730
11160TIP3   OH254894   3.871   1.265   2.834 -0.4140  0.0503 -0.1785
11160TIP3    H154895   3.926   1.246   2.758  0.3573  0.8773  0.1525
11160TIP3    H254896   3.896   1.199   2.899  0.5622  0.7145  0.1422
11161TIP3   OH254897   3.969   1.725  11.198  0.4134  0.0745  0.5818
11161TIP3    H154898   3.942   1.767  11.116  0.2534 -0.8752  0.1325
11161TIP3    H254899   4.035   1.784  11.235 -0.0610  0.8949  0.1581
11162TIP3   OH254900   2.429   2.152   1.081 -0.3312 -0.6739 -0.6414
11162TIP3    H154901   2.394   2.112   1.002 -1.2968 -1.2093  0.0252
11162TIP3    H254902   2.404   2.091   1.151 -2.9229  1.5749  0.5988
11163TIP3   OH254903   4.610   6.492  15.874  0.1390 -0.0275 -0.1615
11163TIP3    H154904   4.703   6.474  15.892 -0.1688 -1.2694  0.2993
11163TIP3    H254905   4.565   6.413  15.903 -0.7985 -0.5847 -2.7897
11164TIP3   OH254906   2.683   5.832  11.638  0.0900  0.5243 -0.3474
11164TIP3    H154907   2.702   5.834  11.732 -2.0705 -3.4085  0.3472
11164TIP3    H254908   2.606   5.888  11.628 -0.2240  0.2269  0.3826
11165TIP3   OH254909   2.320   1.392   5.842 -0.7785  0.8327  0.0035
11165TIP3    H154910   2.321   1.488   5.846 -0.0886  0.8423 -0.2443
11165TIP3    H254911   2.315   1.364   5.933 -2.4687  1.0979  0.0304
11166TIP3   OH254912   0.646   4.053   0.219 -0.1280  0.0940  0.1121
11166TIP3    H154913   0.595   4.062   0.299  0.3584  1.2594  0.3153
11166TIP3    H254914   0.650   3.959   0.203 -1.9798 -0.0622  0.3068
11167TIP3   OH254915   2.525   4.135   2.223  0.2706 -0.0132 -0.2617
11167TIP3    H154916   2.529   4.219   2.177 -4.7785  0.8879  0.3947
11167TIP3    H254917   2.569   4.152   2.306 -0.2596  1.9210 -0.3183
11168TIP3   OH254918   5.110   4.788  14.544 -0.3509 -0.6175 -0.4149
11168TIP3    H154919   5.062   4.712  14.509  1.0496 -2.7267  1.8821
11168TIP3    H254920   5.196   4.783  14.502 -0.3794 -0.0412 -0.5494
11169TIP3   OH254921   3.944   1.868   1.908  0.0354 -0.0144 -0.2348
11169TIP3    H154922   3.884   1.937   1.882  0.0583 -0.0979 -0.5137
11169TIP3    H254923   3.969   1.890   1.998  1.2809  1.2277 -0.8460
11170TIP3   OH254924   5.287   5.798  14.296 -0.2123 -0.2604 -0.2343
11170TIP3    H154925   5.304   5.891  14.280 -1.7221  0.2041  0.6790
11170TIP3    H254926   5.312   5.784  14.387 -1.0089 -0.4663 -0.0360
11171TIP3   OH254927   6.584   6.484   5.512  0.3900 -0.1264  0.4750
11171TIP3    H154928   6.639   6.440   5.447 -0.7474 -0.8321 -0.0566
11171TIP3    H254929   6.610   6.446   5.596 -0.5214 -1.8281  0.0393
11172TIP3   OH254930   1.056   1.657   5.689 -0.7375  0.2379  0.0803
11172TIP3    H154931   1.033   1.732   5.635 -1.9605  0.9093  1.4836
11172TIP3    H254932   0.974   1.609   5.700 -0.2282 -0.6197  0.2558
11173TIP3   OH254933   1.679   5.167  14.708  0.6509 -0.6706  0.1156
11173TIP3    H154934   1.727   5.167  14.791  0.0308  0.2136  0.4867
11173TIP3    H254935   1.742   5.200  14.644  1.0241 -1.0230  0.2952
11174TIP3   OH254936   4.339   2.559  13.636 -0.2103  0.1539  0.0127
11174TIP3    H154937   4.412   2.562  13.698  0.4376 -0.0271 -0.7225
11174TIP3    H254938   4.265   2.596  13.684  0.3231  0.1925  0.8257
11175TIP3   OH254939   6.296   2.565   0.592 -0.1710 -0.4858  0.3000
11175TIP3    H154940   6.316   2.500   0.659 -0.5015 -0.0418  0.8390
11175TIP3    H254941   6.229   2.621   0.631  0.8118  0.7807  0.2391
11176TIP3   OH254942   2.550   5.990   4.221 -0.4532 -0.0146 -0.1570
11176TIP3    H154943   2.490   5.932   4.267 -0.9383  0.5229 -0.1050
11176TIP3    H254944   2.579   5.939   4.145 -0.1650 -0.6559  0.3745
11177TIP3   OH254945   5.736   4.070   1.034 -0.1003  0.6431  0.1092
11177TIP3    H154946   5.652   4.035   1.003  0.2538  1.4634 -1.9476
11177TIP3    H254947   5.750   4.027   1.119 -2.3213  0.0844  0.2553
11178TIP3   OH254948   2.075   1.143  13.557 -0.7011 -0.4037  0.2738
11178TIP3    H154949   2.043   1.186  13.478 -1.0648 -0.0820  0.5959
11178TIP3    H254950   2.098   1.054  13.528 -2.0180 -0.6980  0.0591
11179TIP3   OH254951   3.480   6.185  13.191 -0.2840 -0.0327  0.1494
11179TIP3    H154952   3.527   6.235  13.125  0.4483  0.3433  0.9402
11179TIP3    H254953   3.473   6.245  13.266 -1.2644 -0.3852  0.3551
11180TIP3   OH254954   0.991   6.592  11.915 -0.1989  0.4245 -0.2736
11180TIP3    H154955   0.938   6.670  11.929 -0.8353 -0.4072  2.5647
11180TIP3    H254956   1.021   6.567  12.003  1.5614 -1.4526 -1.3159
11181TIP3   OH254957   0.150   3.253  14.655 -0.2191 -0.0828 -0.0291
11181TIP3    H154958   0.121   3.343  14.641 -2.1468 -0.6424  0.1519
11181TIP3    H254959   0.108   3.227  14.737  1.1381 -0.8351  0.4570
11182TIP3   OH254960   5.848   0.424   2.222 -0.5625  0.7290 -0.1746
11182TIP3    H154961   5.859   0.413   2.317 -1.2961  0.1807 -0.1431
11182TIP3    H254962   5.754   0.433   2.210 -0.8261 -2.1858 -1.1129
11183TIP3   OH254963   1.522   6.541  13.623 -0.1007 -0.3298  0.1435
11183TIP3    H154964   1.496   6.578  13.538  0.7228 -0.7965 -0.3293
11183TIP3    H254965   1.614   6.519  13.611 -0.0428 -0.6212  1.0949
11184TIP3   OH254966   2.563   2.163  11.695 -0.1138 -0.4966  0.1293
11184TIP3    H154967   2.590   2.077  11.662  0.8732  0.8954 -3.0632
11184TIP3    H254968   2.620   2.225  11.649 -0.9292  1.9069  2.1670
11185TIP3   OH254969   1.199   6.146   3.922 -0.4527 -0.2550  0.7456
11185TIP3    H154970   1.267   6.177   3.862  0.1818 -1.3062  0.8894
11185TIP3    H254971   1.119   6.188   3.892 -0.0111 -0.1838 -0.3857
11186TIP3   OH254972   6.567   2.617   0.548  0.1285 -0.0753 -0.5531
11186TIP3    H154973   6.474   2.597   0.559  0.2062 -0.0928  0.1312
11186TIP3    H254974   6.586   2.594   0.457 -1.0034  1.8177 -1.3444
11187TIP3   OH254975   5.198   5.829  12.717 -0.5145  0.0866 -0.0095
11187TIP3    H154976   5.128   5.830  12.652  0.3224 -0.1380 -0.9469
11187TIP3    H254977   5.167   5.886  12.787 -1.7805 -0.2952 -0.2292
11188TIP3   OH254978   4.132   3.441  17.285  0.2469  0.7839  0.4576
11188TIP3    H154979   4.048   3.395  17.280  0.2047  0.9420 -0.9677
11188TIP3    H254980   4.142   3.465  17.377 -2.5503  3.0792  0.3004
11189TIP3   OH254981   5.984   3.588   6.627 -0.6105 -0.4207  0.4885
11189TIP3    H154982   5.941   3.504   6.613 -2.2379  0.3689  0.5952
11189TIP3    H254983   5.913   3.650   6.641  0.5557  0.9840  0.4480
11190TIP3   OH254984   4.967   1.972  17.415 -0.5535  0.5318 -0.3533
11190TIP3    H154985   5.007   2.048  17.456 -0.1355 -0.3055  0.8505
11190TIP3    H254986   4.929   2.005  17.334  0.4770  1.8132 -0.3329
11191TIP3   OH254987   3.290   1.379   4.935  0.2904  0.8071 -0.4607
11191TIP3    H154988   3.244   1.371   5.019 -0.4752  2.2541 -0.6917
11191TIP3    H254989   3.365   1.435   4.954 -0.2169  1.6335 -0.8395
11192TIP3   OH254990   1.875   4.608  16.124 -0.3321 -0.2326 -0.7226
11192TIP3    H154991   1.954   4.662  16.131  0.5530 -1.5032 -0.4379
11192TIP3    H254992   1.845   4.597  16.214 -1.8211  1.5908 -0.9507
11193TIP3   OH254993   1.997   3.000   1.962  0.1326 -0.1571  0.6800
11193TIP3    H154994   1.966   2.910   1.958 -1.2781  0.3413 -0.2471
11193TIP3    H254995   2.092   2.993   1.949  0.0104 -1.4706  0.3492
11194TIP3   OH254996   4.604   0.230   6.607 -0.1158 -0.1530 -0.6867
11194TIP3    H154997   4.628   0.274   6.526 -0.0468 -1.6322 -1.5141
11194TIP3    H254998   4.688   0.198   6.642 -0.0627  1.0265  0.3376
11195TIP3   OH254999   1.145   1.449  16.398  0.5766  0.3079  0.3894
11195TIP3    H155000   1.133   1.355  16.395  0.2750  0.3619 -0.1712
11195TIP3    H255001   1.111   1.481  16.314 -1.3362  1.1415  1.4057
11196TIP3   OH255002   1.176   6.500   5.460 -0.4665 -1.0150  0.1479
11196TIP3    H155003   1.224   6.553   5.524 -2.2750  0.1151  0.6190
11196TIP3    H255004   1.216   6.413   5.467  3.3497  0.3556 -1.4213
11197TIP3   OH255005   0.493   2.335  12.536 -0.3747 -0.1910  0.1229
11197TIP3    H155006   0.408   2.291  12.543 -0.9250  0.7893 -0.1845
11197TIP3    H255007   0.493   2.372  12.447  0.0201  0.5181  0.4157
11198TIP3   OH255008   3.054   1.824  14.965  0.2830 -0.7160 -0.1950
11198TIP3    H155009   2.965   1.819  14.928 -0.0833  1.4049  0.2472
11198TIP3    H255010   3.041   1.810  15.059  0.6256 -1.7007 -0.2803
11199TIP3   OH255011   3.907   0.242  13.296  0.0917 -0.2623 -0.3162
11199TIP3    H155012   3.870   0.240  13.384 -0.4967 -1.0904 -0.5730
11199TIP3    H255013   3.990   0.195  13.305 -0.5629 -1.4797 -0.4531
11200TIP3   OH255014   3.385   5.290   2.813 -0.3619 -0.0653  0.1913
11200TIP3    H155015   3.411   5.349   2.884  0.6864  0.0550 -0.2660
11200TIP3    H255016   3.290   5.290   2.815 -0.3856  1.5684  0.2755
11201TIP3   OH255017   0.044   1.035   1.410  0.1425  0.7933 -0.2723
11201TIP3    H155018   0.121   1.019   1.356 -0.0657 -0.4888 -0.2084
11201TIP3    H255019   0.044   0.965   1.475 -0.9038  0.9504 -0.0777
11202TIP3   OH255020   1.288   6.681   6.624  0.5730 -0.1718 -0.7768
11202TIP3    H155021   1.258   6.590   6.630  1.5447 -0.4310  0.6334
11202TIP3    H255022   1.382   6.675   6.610  0.6021  0.6186 -0.9784
11203TIP3   OH255023   3.009   0.268  14.765 -0.6015 -0.1089 -0.0800
11203TIP3    H155024   2.992   0.252  14.673  1.2990 -0.2982 -0.4394
11203TIP3    H255025   3.101   0.296  14.769 -0.3268 -1.0527  1.8343
11204TIP3   OH255026   6.158   0.622  14.906  0.2168  0.1020  0.1028
11204TIP3    H155027   6.093   0.623  14.836  1.1379  0.7957 -0.7749
11204TIP3    H255028   6.147   0.536  14.948 -1.0069  0.0706 -0.2497
11205TIP3   OH255029   5.760   3.873   3.051 -0.1591 -0.1475 -0.2718
11205TIP3    H155030   5.851   3.854   3.030  0.9370  2.2391  1.8399
11205TIP3    H255031   5.726   3.919   2.974 -0.2251 -2.6305 -1.8172
11206TIP3   OH255032   4.295   4.756  17.207 -0.3486 -0.5239  0.0627
11206TIP3    H155033   4.215   4.793  17.245 -1.7611 -1.1498 -2.1514
11206TIP3    H255034   4.325   4.822  17.145  0.1113 -0.8518 -0.0659
11207TIP3   OH255035   3.885   3.788  15.010  0.6240 -0.2456  0.4440
11207TIP3    H155036   3.848   3.809  15.096  0.6522  0.9051  0.1796
11207TIP3    H255037   3.963   3.841  15.004 -0.0318  0.6096 -0.7945
11208TIP3   OH255038   1.855   4.414   1.551 -0.6981 -0.0221  0.2552
11208TIP3    H155039   1.887   4.349   1.613  1.3712  1.5771  1.0028
11208TIP3    H255040   1.762   4.423   1.571 -0.6101 -1.3456  1.4061
11209TIP3   OH255041   2.039   2.053  15.792  0.1745  0.1842  0.2956
11209TIP3    H155042   2.112   2.059  15.854 -0.2740 -0.2821  0.8815
11209TIP3    H255043   2.028   1.959  15.777  0.4506  0.2997 -0.7159
11210TIP3   OH255044   1.382   0.047  14.718 -0.0135 -0.2397 -0.2603
11210TIP3    H155045   1.325   0.114  14.680  0.0583  0.7484  1.2426
11210TIP3    H255046   1.463   0.052  14.667 -0.7639 -0.7040 -1.5380
11211TIP3   OH255047   4.579   2.885   1.733  0.9190 -0.1981 -0.1406
11211TIP3    H155048   4.569   2.979   1.746 -0.1360 -0.1942 -0.8736
11211TIP3    H255049   4.494   2.856   1.701  1.0625 -1.4987  0.5929
11212TIP3   OH255050   6.551   4.727   3.509  0.0034  0.1054  0.0991
11212TIP3    H155051   6.626   4.770   3.469 -0.2673 -1.0932 -1.8165
11212TIP3    H255052   6.567   4.633   3.494  0.3975 -0.5596  3.7615
11213TIP3   OH255053   0.657   4.545   4.333 -0.3681 -0.2636 -0.0397
11213TIP3    H155054   0.677   4.514   4.244  0.0145  0.7101 -0.3075
11213TIP3    H255055   0.660   4.640   4.326 -0.3307 -0.1781  1.0301
11214TIP3   OH255056   0.677   4.514   3.094  0.0942  0.1569  0.0430
11214TIP3    H155057   0.759   4.563   3.094  0.4892 -0.4772  0.9689
11214TIP3    H255058   0.632   4.543   3.173  0.7337 -1.5713  1.1036
11215TIP3   OH255059   1.847   1.880   6.652 -0.3718  0.1794  0.5554
11215TIP3    H155060   1.866   1.825   6.575 -0.3209  3.5049 -2.0262
11215TIP3    H255061   1.757   1.857   6.675 -1.0245  0.2254 -1.6535
11216TIP3   OH255062   0.952   0.178   5.099 -0.4370  0.2738  0.4226
11216TIP3    H155063   0.981   0.258   5.142 -2.5049  0.2309  2.0212
11216TIP3    H255064   1.018   0.113   5.123  0.2616  1.0513  0.6632
11217TIP3   OH255065   5.990   4.064  14.918 -0.4441 -0.5951  0.5290
11217TIP3    H155066   6.064   4.031  14.866  0.9197  2.4685  0.3129
11217TIP3    H255067   6.028   4.087  15.002 -1.2912  0.4052  0.6553
11218TIP3   OH255068   3.922   3.036  12.690  0.0153  0.4517 -0.4084
11218TIP3    H155069   3.942   3.041  12.596 -0.7091 -4.9797 -1.1788
11218TIP3    H255070   3.828   3.050  12.695  0.1645  1.4718 -0.3598
11219TIP3   OH255071   3.350   0.803   0.336  0.1800  0.5132  0.0267
11219TIP3    H155072   3.379   0.879   0.387 -0.2600  0.3089  0.5989
11219TIP3    H255073   3.305   0.748   0.400  2.9890 -1.6755  0.3197
11220TIP3   OH255074   3.710   6.345  10.829  0.5880  0.2498 -0.0342
11220TIP3    H155075   3.648   6.320  10.761 -2.0265 -1.0872  2.6276
11220TIP3    H255076   3.759   6.264  10.847  0.9351  0.4703  0.0126
11221TIP3   OH255077   2.721   0.080  14.170  0.0366  0.3403  0.0636
11221TIP3    H155078   2.648   0.126  14.211  0.8529  1.0508  0.7698
11221TIP3    H255079   2.792   0.145  14.169  0.5788 -0.2487 -0.8499
11222TIP3   OH255080   3.313   2.252  17.559 -0.3307 -0.4438 -0.0683
11222TIP3    H155081   3.405   2.243  17.532  0.1509  1.1682  0.9371
11222TIP3    H255082   3.274   2.309  17.493  0.0311  0.8555  0.8092
11223TIP3   OH255083   1.172   4.363   2.320  0.0640 -0.3075  0.2180
11223TIP3    H155084   1.201   4.392   2.233  0.0460  1.1306  0.6684
11223TIP3    H255085   1.206   4.274   2.328  1.0813 -0.0359 -0.7832
11224TIP3   OH255086   3.238   5.658   2.476 -0.2813 -0.4584 -0.0617
11224TIP3    H155087   3.178   5.701   2.415 -0.3139  1.2530  1.1191
11224TIP3    H255088   3.185   5.593   2.521 -0.7633 -0.2725 -0.3589
11225TIP3   OH255089   2.936   3.116   5.579  0.2983  0.2711  0.1428
11225TIP3    H155090   2.878   3.132   5.653 -0.7525  0.7795 -0.7633
11225TIP3    H255091   2.878   3.113   5.503  1.0464 -2.6293 -0.4257
11226TIP3   OH255092   4.378   3.559   2.800 -0.1246  0.2130 -0.2006
11226TIP3    H155093   4.338   3.644   2.782 -2.3272 -0.5536  0.6375
11226TIP3    H255094   4.331   3.526   2.877  0.7919 -1.6768 -0.3703
11227TIP3   OH255095   1.435   2.816  12.709  0.0356  0.2308  0.0594
11227TIP3    H155096   1.467   2.891  12.660  0.7643  0.9940  1.6431
11227TIP3    H255097   1.424   2.848  12.798  1.5830 -1.8092  1.0758
11228TIP3   OH255098   3.041   2.312   0.269 -0.3214 -0.1967  0.1530
11228TIP3    H155099   2.980   2.338   0.200 -0.6194 -0.7158  0.2207
11228TIP3    H255100   3.099   2.248   0.227  0.0706  0.1624  0.1376
11229TIP3   OH255101   1.391   3.465  14.486  0.4140  0.9926 -0.2704
11229TIP3    H155102   1.401   3.557  14.463 -0.8136  1.8077  2.1676
11229TIP3    H255103   1.391   3.463  14.582  1.9511 -1.7488 -0.2218
11230TIP3   OH255104   6.571   2.159  13.929  0.0616  0.0091 -0.1901
11230TIP3    H155105   6.597   2.196  13.845  1.3584  1.2266  0.6969
11230TIP3    H255106   6.547   2.235  13.982  0.8560 -0.5814  1.0578
11231TIP3   OH255107   4.055   4.979   0.990 -0.4009 -0.0855  0.9473
11231TIP3    H155108   4.096   4.965   1.075  0.3236 -0.0118  0.6271
11231TIP3    H255109   4.018   5.067   0.995 -2.5297 -0.9740  2.0114
11232TIP3   OH255110   4.290   2.395  15.965  0.0049 -0.1386  0.0602
11232TIP3    H155111   4.194   2.391  15.954  0.1512 -1.7951 -1.0000
11232TIP3    H255112   4.322   2.424  15.880  0.4245  1.1620  0.6493
11233TIP3   OH255113   0.481   3.725  14.817 -0.1506 -0.2130 -0.2255
11233TIP3    H155114   0.428   3.755  14.891 -1.9043  1.5396 -2.0830
11233TIP3    H255115   0.445   3.639  14.795 -2.2050  0.8246 -1.2791
11234TIP3   OH255116   0.284   3.567   3.917  0.1229 -0.3188 -0.1053
11234TIP3    H155117   0.244   3.544   4.000 -0.9292 -0.8568 -0.7475
11234TIP3    H255118   0.215   3.554   3.852  0.6698  0.8893 -0.9762
11235TIP3   OH255119   2.272   3.437   6.667 -0.6470  0.3999  0.0860
11235TIP3    H155120   2.219   3.368   6.707  1.4724 -0.8537  0.8879
11235TIP3    H255121   2.251   3.515   6.718 -1.6192 -0.0886  0.4645
11236TIP3   OH255122   5.335   3.683  13.742 -0.0516  0.1972 -0.1393
11236TIP3    H155123   5.405   3.725  13.691 -0.1508 -1.4236 -1.7285
11236TIP3    H255124   5.370   3.678  13.831  0.4417  2.4468 -0.1578
11237TIP3   OH255125   4.942   4.350   3.165 -0.3076 -0.6888 -0.6323
11237TIP3    H155126   4.938   4.436   3.208 -1.3660 -1.3605  0.6841
11237TIP3    H255127   4.889   4.361   3.086 -0.5809 -0.1630 -0.3841
11238TIP3   OH255128   3.435   2.523   4.924 -0.2690 -0.1620 -0.6827
11238TIP3    H155129   3.466   2.597   4.977 -2.6733  0.9840 -0.7404
11238TIP3    H255130   3.397   2.563   4.846 -1.4943 -1.4516 -0.7862
11239TIP3   OH255131   3.405   1.686  15.152 -0.2954  0.4621 -0.2248
11239TIP3    H155132   3.363   1.663  15.235 -0.6519  0.9846 -0.2498
11239TIP3    H255133   3.334   1.686  15.088 -0.0679  0.3121 -0.4803
11240TIP3   OH255134   0.451   0.307  16.627 -0.0194 -0.1622 -0.4290
11240TIP3    H155135   0.371   0.291  16.677 -0.2879 -1.4080 -1.2277
11240TIP3    H255136   0.425   0.301  16.536  0.7633  0.6092 -0.7218
11241TIP3   OH255137   4.442   1.354   4.771 -0.3773 -0.2959  0.4968
11241TIP3    H155138   4.410   1.356   4.861  0.4266  0.7146  0.7728
11241TIP3    H255139   4.516   1.293   4.772  1.5787  1.9740  1.2242
11242TIP3   OH255140   6.543   4.913  14.159 -0.1951  0.5408  0.4171
11242TIP3    H155141   6.573   4.823  14.147 -1.3144  0.3959 -1.8808
11242TIP3    H255142   6.456   4.905  14.198 -1.4627  0.3904 -2.2109
11243TIP3   OH255143   0.495   4.050   3.658 -0.3944  0.6537 -0.0620
11243TIP3    H155144   0.440   4.119   3.622  0.1353  0.4559 -1.3083
11243TIP3    H255145   0.433   3.981   3.683 -0.7750  0.7511 -0.7107
11244TIP3   OH255146   2.943   6.040   5.135  0.0401 -0.1472 -0.2044
11244TIP3    H155147   3.036   6.024   5.152  0.0666  1.1676  1.1804
11244TIP3    H255148   2.934   6.135   5.142 -1.1720 -0.1062 -1.7380
11245TIP3   OH255149   2.355   1.094  13.412 -0.3765  0.2961  0.2841
11245TIP3    H155150   2.316   1.167  13.363 -1.4411 -0.4291  0.0284
11245TIP3    H255151   2.352   1.123  13.504 -1.5146  0.2604  0.2669
11246TIP3   OH255152   3.753   4.870   0.250 -0.1929 -0.0712 -0.2132
11246TIP3    H155153   3.660   4.890   0.251 -0.2440 -0.2286  1.6912
11246TIP3    H255154   3.796   4.956   0.252 -0.2285  0.0466 -2.1663
11247TIP3   OH255155   3.739   3.453  17.624  0.1757 -0.5327 -0.4965
11247TIP3    H155156   3.695   3.381  17.578  0.7345 -1.2346  0.0412
11247TIP3    H255157   3.668   3.511  17.651 -0.4086 -1.5259  0.1536
11248TIP3   OH255158   2.347   2.918  15.125  0.7352 -0.9063  0.0252
11248TIP3    H155159   2.321   2.955  15.209 -0.0727  0.9063 -0.9566
11248TIP3    H255160   2.355   2.994  15.067  0.2995 -2.1723 -1.7725
11249TIP3   OH255161   2.989   6.209  13.767  0.4495  0.4257  0.6371
11249TIP3    H155162   2.961   6.272  13.833  1.8555 -1.1238  2.8511
11249TIP3    H255163   3.084   6.203  13.779  0.3619 -2.1051  0.5581
11250TIP3   OH255164   6.537   3.204   2.925  0.2448 -0.0578 -0.4219
11250TIP3    H155165   6.593   3.150   2.869 -0.1176  0.6337 -1.4880
11250TIP3    H255166   6.448   3.185   2.895  0.0861  0.7956 -0.5175
11251TIP3   OH255167   5.186   0.038  14.087 -0.5783  0.1309  0.3671
11251TIP3    H155168   5.275   0.044  14.123  0.3391 -0.8453 -1.6043
11251TIP3    H255169   5.130   0.059  14.161  1.2516 -0.3140  1.9806
11252TIP3   OH255170   4.500   5.825  15.251 -0.0966 -0.1644 -0.2765
11252TIP3    H155171   4.567   5.885  15.217 -0.2893 -0.2743 -0.8605
11252TIP3    H255172   4.547   5.772  15.315  0.0234  0.7724  0.4417
11253TIP3   OH255173   2.652   5.718  13.560 -0.3062  0.2850 -0.5304
11253TIP3    H155174   2.660   5.627  13.588  3.1531  0.8372  0.7595
11253TIP3    H255175   2.672   5.716  13.467 -0.8291 -0.3080 -0.6412
11254TIP3   OH255176   3.014   3.865  15.637 -0.1081 -0.0753  0.4133
11254TIP3    H155177   3.043   3.780  15.671  0.1896 -0.5262 -0.9168
11254TIP3    H255178   2.982   3.846  15.549  2.0637  1.4832 -0.8296
11255TIP3   OH255179   6.533   6.387  14.700 -0.1047  0.8462 -0.1746
11255TIP3    H155180   6.539   6.294  14.721 -1.5263  0.6919 -0.3165
11255TIP3    H255181   6.616   6.424  14.729 -0.6184  0.0557  2.6121
11256TIP3   OH255182   1.916   5.829  14.380  0.1041  0.2872  0.2017
11256TIP3    H155183   1.933   5.787  14.465  0.2204 -1.5016 -0.6720
11256TIP3    H255184   1.970   5.780  14.318 -1.2274  0.5040 -1.1662
11257TIP3   OH255185   0.676   2.924  14.690 -0.3331  0.3478 -0.4001
11257TIP3    H155186   0.609   2.991  14.677 -0.0839  0.8412  0.6843
11257TIP3    H255187   0.737   2.964  14.753 -0.5940 -1.1654  0.8626
11258TIP3   OH255188   5.959   2.745  13.741 -0.3081  0.1594  0.1479
11258TIP3    H155189   5.924   2.821  13.787 -1.8124 -0.3970 -0.0047
11258TIP3    H255190   5.911   2.742  13.659  1.2889  0.2759 -0.8401
11259TIP3   OH255191   0.971   1.996  12.216  0.4513 -0.7673 -0.2759
11259TIP3    H155192   1.004   2.015  12.129 -1.8162  0.4198 -0.9328
11259TIP3    H255193   0.884   1.960  12.202 -0.2360  0.0771  1.4993
11260TIP3   OH255194   5.679   0.535  13.816 -0.4596 -0.0279 -0.0614
11260TIP3    H155195   5.647   0.625  13.815  0.7550  0.4288 -0.3718
11260TIP3    H255196   5.626   0.489  13.751 -2.3792 -0.0517  1.4131
11261TIP3   OH255197   5.310   2.678  14.252 -0.3400 -0.6887  0.0171
11261TIP3    H155198   5.389   2.625  14.255 -0.2952 -0.5869  0.8021
11261TIP3    H255199   5.252   2.639  14.318 -0.5464 -0.1445  0.1649
11262TIP3   OH255200   3.473   0.992  11.755 -0.3860 -0.5068 -0.3893
11262TIP3    H155201   3.470   0.997  11.851  1.2932  1.1261 -0.3747
11262TIP3    H255202   3.497   0.901  11.737 -0.0731 -0.6747  0.7709
11263TIP3   OH255203   6.200   5.123   1.576 -0.5182 -0.3047  0.0875
11263TIP3    H155204   6.238   5.036   1.573  0.0706 -0.2502  3.0782
11263TIP3    H255205   6.266   5.180   1.536 -1.2200 -1.1911 -2.5894
11264TIP3   OH255206   5.216   1.827  12.094  0.3659  0.0528 -0.2091
11264TIP3    H155207   5.303   1.799  12.124 -0.4689 -2.1127  0.4375
11264TIP3    H255208   5.173   1.860  12.172  0.4600  0.7396 -0.4442
11265TIP3   OH255209   1.611   5.563  13.504  0.5202  0.0633  0.0986
11265TIP3    H155210   1.680   5.611  13.550  2.3994 -0.5726 -1.8573
11265TIP3    H255211   1.599   5.611  13.422 -1.4236  0.1493  0.3874
11266TIP3   OH255212   5.434   1.656  13.561  0.2902 -0.1882  0.3021
11266TIP3    H155213   5.432   1.747  13.533  0.4018 -0.1279  0.4832
11266TIP3    H255214   5.395   1.607  13.489 -0.3924  0.0781  0.4925
11267TIP3   OH255215   4.596   4.803  15.687  0.2782 -0.4011  0.1556
11267TIP3    H155216   4.512   4.758  15.694 -0.0617 -0.0240 -1.1662
11267TIP3    H255217   4.597   4.865  15.761 -1.4981  0.9916 -0.8927
11268TIP3   OH255218   4.828   3.913   4.470 -0.0486 -0.3595  0.3978
11268TIP3    H155219   4.827   3.818   4.458 -3.2285 -0.4113  0.3092
11268TIP3    H255220   4.759   3.930   4.533 -1.3589  2.0685 -1.5392
11269TIP3   OH255221   4.617   1.718  12.368  0.2658  0.1284 -0.5765
11269TIP3    H155222   4.587   1.628  12.367 -1.1312  0.5642 -1.1941
11269TIP3    H255223   4.614   1.745  12.276 -0.2709  1.0710 -0.3013
11270TIP3   OH255224   6.389   4.165   4.613  0.0706 -0.5760 -0.1757
11270TIP3    H155225   6.312   4.223   4.617  0.3602  0.2349 -3.3771
11270TIP3    H255226   6.393   4.125   4.699 -3.3024  0.1696  0.4796
11271TIP3   OH255227   1.628   4.588  16.668  0.0257  1.0026  0.4114
11271TIP3    H155228   1.570   4.541  16.728 -0.1050  1.6798  0.8376
11271TIP3    H255229   1.569   4.626  16.603  0.0368  1.2761  0.5582
11272TIP3   OH255230   1.599   3.049  15.051 -0.1338  0.2027  0.2332
11272TIP3    H155231   1.617   2.956  15.038 -1.8590 -0.0121 -0.8958
11272TIP3    H255232   1.532   3.070  14.986  2.2334  2.9460 -1.5830
11273TIP3   OH255233   3.909   2.911  15.352  0.4177 -0.6584  0.0904
11273TIP3    H155234   3.961   2.957  15.285 -0.7608 -1.4189 -1.4123
11273TIP3    H255235   3.821   2.947  15.341 -0.7124 -3.5936 -1.5864
11274TIP3   OH255236   5.983   2.002   6.456  0.6190  0.0886 -0.1749
11274TIP3    H155237   6.071   2.012   6.491  1.1017  1.9303 -1.7528
11274TIP3    H255238   5.926   2.045   6.519  1.1429  0.9080 -0.2447
11275TIP3   OH255239   6.669   1.796   2.752 -0.9856  0.2969 -0.0153
11275TIP3    H155240   6.731   1.724   2.764 -0.5965  0.6122 -0.0902
11275TIP3    H255241   6.597   1.777   2.812 -0.8793 -0.1474 -0.0298
11276TIP3   OH255242   4.876   4.848  15.578 -0.4101 -0.1587 -0.3449
11276TIP3    H155243   4.868   4.819  15.488  0.2466 -0.4427 -0.3154
11276TIP3    H255244   4.787   4.841  15.614 -0.6011 -0.3966 -0.8557
11277TIP3   OH255245   4.645   5.664  11.995  0.2222  0.7728  0.2393
11277TIP3    H155246   4.593   5.585  12.012 -0.3397  1.0422 -0.1891
11277TIP3    H255247   4.708   5.667  12.067  0.4634 -0.2413  0.0841
11278TIP3   OH255248   5.366   6.345  13.248  0.5195  0.4517  0.2795
11278TIP3    H155249   5.327   6.411  13.190  1.1457  0.8781  0.3307
11278TIP3    H255250   5.355   6.381  13.336 -0.6212 -0.2952  0.4508
11279TIP3   OH255251   2.653   2.614  13.398 -0.0673  0.2557  0.3867
11279TIP3    H155252   2.689   2.693  13.358 -1.6521  1.0419  0.4402
11279TIP3    H255253   2.708   2.598  13.475 -0.2466  1.8253  0.8777
11280TIP3   OH255254   3.234   5.324  11.746  0.1163  0.1593 -0.3938
11280TIP3    H155255   3.148   5.289  11.723  0.3680 -0.7312 -0.0056
11280TIP3    H255256   3.217   5.414  11.772 -1.0833 -0.6919  2.0673
11281TIP3   OH255257   6.105   0.051  12.936  0.1274 -0.0716 -0.3824
11281TIP3    H155258   6.108  -0.016  12.867 -1.1750  0.7308 -1.2708
11281TIP3    H255259   6.012   0.072  12.944  0.3621  0.5490  0.9654
11282TIP3   OH255260   2.758   2.385  11.389 -0.1593 -0.1950  0.1532
11282TIP3    H155261   2.686   2.405  11.330  0.9677 -0.1478 -1.2596
11282TIP3    H255262   2.776   2.292  11.375  1.4377  0.2670 -1.1535
11283TIP3   OH255263   5.153   6.127  12.759 -0.5853 -0.4968  0.0392
11283TIP3    H155264   5.090   6.135  12.830 -0.9817  1.5024 -0.4668
11283TIP3    H255265   5.216   6.198  12.774 -1.5234  0.9810 -2.3210
11284TIP3   OH255266   5.918   1.196  11.498 -0.2057  0.3017 -0.2924
11284TIP3    H155267   5.878   1.279  11.524  0.3855  0.6339 -0.4204
11284TIP3    H255268   5.887   1.181  11.409 -1.9198 -0.6384  0.4355
11285TIP3   OH255269   6.525   3.315   6.329 -0.1742 -0.0703  0.3286
11285TIP3    H155270   6.437   3.350   6.337  0.1790  0.7260  0.9308
11285TIP3    H255271   6.561   3.355   6.250  0.5928  1.8448  1.5641
11286TIP3   OH255272   5.019   4.780   0.798  0.3579  0.2351  0.3228
11286TIP3    H155273   5.045   4.691   0.777 -0.6768  0.2353 -1.0616
11286TIP3    H255274   4.945   4.799   0.740  0.1621  1.7838  1.0058
11287TIP3   OH255275   0.837   4.136   1.557  0.5924 -0.6452 -0.3924
11287TIP3    H155276   0.879   4.053   1.537  0.2149 -1.4586  1.9364
11287TIP3    H255277   0.795   4.162   1.475  0.8972 -2.6293 -1.2226
11288TIP3   OH255278   5.908   6.631  17.414 -0.1348 -0.2454 -0.3300
11288TIP3    H155279   5.874   6.596  17.497  0.1522  1.4935  0.5802
11288TIP3    H255280   5.946   6.556  17.370  0.8368 -1.0407  1.7054
11289TIP3   OH255281   5.589   2.422   3.215  0.3983  0.1588  0.2226
11289TIP3    H155282   5.623   2.493   3.270  0.6444 -0.8878  1.4836
11289TIP3    H255283   5.506   2.455   3.182  0.0580  0.7115  1.5392
11290TIP3   OH255284   1.899   2.549   4.823 -0.2494 -0.0556  0.1353
11290TIP3    H155285   1.817   2.558   4.774 -0.2685  1.8457  0.4499
11290TIP3    H255286   1.873   2.555   4.914  0.1004 -0.7501  0.2827
11291TIP3   OH255287   0.439   3.857  17.076 -0.2132 -0.1712  0.0336
11291TIP3    H155288   0.372   3.926  17.079  0.3886  0.6463 -2.4132
11291TIP3    H255289   0.392   3.777  17.097 -1.9073  0.4404 -1.1784
11292TIP3   OH255290   6.375   0.401  16.639 -0.6080  0.0607 -0.3425
11292TIP3    H155291   6.386   0.421  16.732 -0.4065 -1.7738  0.0698
11292TIP3    H255292   6.280   0.389  16.628 -0.4919 -1.4037  0.0403
11293TIP3   OH255293   5.342   1.849  14.778 -0.1641  0.5386  0.3691
11293TIP3    H155294   5.252   1.883  14.782 -0.8486 -1.0464 -0.5679
11293TIP3    H255295   5.377   1.886  14.697 -0.5890 -0.1990 -0.1663
11294TIP3   OH255296   5.358   1.633  13.981 -0.0004  0.0858  0.2711
11294TIP3    H155297   5.301   1.710  13.980 -1.2991 -0.8472 -0.9142
11294TIP3    H255298   5.447   1.669  13.973  0.0642  1.8173  5.5337
11295TIP3   OH255299   1.585   5.491  15.709 -0.4541 -0.3863  0.2344
11295TIP3    H155300   1.671   5.491  15.666 -1.0142  0.4324 -0.9420
11295TIP3    H255301   1.542   5.569  15.676 -0.8331  0.4498  2.5650
11296TIP3   OH255302   0.959   6.198   2.097 -0.4674  0.1295  0.4642
11296TIP3    H155303   0.905   6.162   2.167 -1.6141 -0.1260 -0.5080
11296TIP3    H255304   0.974   6.124   2.038 -0.1798  0.5229  0.0386
11297TIP3   OH255305   5.635   3.554  11.951 -0.0535  0.4166 -0.3102
11297TIP3    H155306   5.606   3.465  11.931 -0.2412  0.3933  0.0525
11297TIP3    H255307   5.577   3.611  11.899  1.2659  0.2886 -2.0091
11298TIP3   OH255308   0.521   5.478   2.593  0.1001 -0.2379  0.1471
11298TIP3    H155309   0.428   5.470   2.576  0.1118 -0.1795  0.0555
11298TIP3    H255310   0.542   5.569   2.571  0.2315 -0.3235 -0.0921
11299TIP3   OH255311   5.282   5.919  12.086  0.4005  0.3942  0.2070
11299TIP3    H155312   5.215   5.878  12.031 -0.1596 -0.1664  1.2761
11299TIP3    H255313   5.365   5.887  12.049  0.0021 -0.9971  0.4310
11300TIP3   OH255314   1.593   2.163  14.688  0.0785  0.6944 -0.1743
11300TIP3    H155315   1.641   2.194  14.765  0.3029  0.0224 -0.0416
11300TIP3    H255316   1.501   2.183  14.708  0.0035 -0.4912  0.7705
11301TIP3   OH255317   1.367   4.252   0.684  0.1293 -0.0290  1.0437
11301TIP3    H155318   1.332   4.332   0.646  0.2846  0.5669  2.1423
11301TIP3    H255319   1.444   4.232   0.631 -0.8877 -0.4333 -0.3323
11302TIP3   OH255320   0.410   2.311   4.958 -0.1993 -0.0982 -0.0993
11302TIP3    H155321   0.372   2.396   4.979 -2.3845 -1.1821  0.6902
11302TIP3    H255322   0.480   2.330   4.896  1.2930  2.5112  2.1932
11303TIP3   OH255323   4.599   0.341  14.462 -0.3396  0.2466 -0.3706
11303TIP3    H155324   4.524   0.357  14.519 -0.8292 -0.9946 -0.6613
11303TIP3    H255325   4.605   0.420  14.408 -1.1153  0.5687 -0.0023
11304TIP3   OH255326   6.642   4.136  12.716  0.1055 -0.2172  0.3457
11304TIP3    H155327   6.716   4.082  12.746  2.1942  2.3442  0.1335
11304TIP3    H255328   6.605   4.173  12.796 -1.3110 -1.8234  0.4892
11305TIP3   OH255329   4.097   6.526  13.353  0.7044  0.2604  0.2117
11305TIP3    H155330   4.059   6.438  13.348 -1.4485  1.1673 -0.7239
11305TIP3    H255331   4.096   6.558  13.262  1.0587  1.3888  0.5881
11306TIP3   OH255332   2.826   0.269   1.787 -0.3713 -0.2297 -0.5460
11306TIP3    H155333   2.734   0.263   1.812  0.0165 -3.0719  0.6045
11306TIP3    H255334   2.870   0.306   1.863 -0.3348 -0.7637 -0.2989
11307TIP3   OH255335   5.362   5.209  14.877  0.4379 -0.5461 -0.4163
11307TIP3    H155336   5.384   5.192  14.969 -2.0192 -0.9992  0.1483
11307TIP3    H255337   5.376   5.125  14.833  2.2466 -0.1670 -0.6479
11308TIP3   OH255338   1.586   5.726  17.031  0.5720 -0.0846 -0.0280
11308TIP3    H155339   1.533   5.653  17.001  0.8439 -0.8346  1.2596
11308TIP3    H255340   1.522   5.796  17.047  0.2901 -0.0811 -1.0433
11309TIP3   OH255341   2.630   5.457  12.215  0.6108 -0.3992  0.3371
11309TIP3    H155342   2.723   5.455  12.239  0.1531  0.6414  2.5404
11309TIP3    H255343   2.585   5.417  12.290 -0.8286  0.8869  0.2235
11310TIP3   OH255344   4.968   2.023  12.534 -0.0148  0.3586  0.0614
11310TIP3    H155345   5.055   1.989  12.513 -0.0760  0.5034 -0.4547
11310TIP3    H255346   4.965   2.024  12.629  0.4067 -0.0090  0.0831
11311TIP3   OH255347   6.677   4.728   0.878 -0.5433 -0.1449  0.2376
11311TIP3    H155348   6.627   4.721   0.797 -1.2733  1.1262  0.5415
11311TIP3    H255349   6.746   4.663   0.870  0.0606  0.6764 -1.8699
11312TIP3   OH255350   0.483   5.103  15.539 -0.6246 -0.0286  0.1527
11312TIP3    H155351   0.462   5.196  15.540 -0.7648 -0.0646  0.5450
11312TIP3    H255352   0.571   5.099  15.500 -1.0882  0.1655 -0.9500
11313TIP3   OH255353   2.630   0.120   5.382  0.1955  0.1159 -0.0657
11313TIP3    H155354   2.686   0.194   5.359  1.1492 -0.4465  0.3850
11313TIP3    H255355   2.565   0.156   5.441 -0.2306  0.8846 -0.9894
11314TIP3   OH255356   6.651   2.926  14.862 -0.3551  0.2958  0.3146
11314TIP3    H155357   6.568   2.972  14.849 -1.0313 -0.0787  2.7956
11314TIP3    H255358   6.642   2.846  14.811 -1.5931  0.1946  0.6558
11315TIP3   OH255359   1.221   4.807   4.836  0.0420  0.4967  0.3624
11315TIP3    H155360   1.203   4.841   4.748  1.2666  0.7561  0.1892
11315TIP3    H255361   1.264   4.879   4.881 -0.8705  0.4734  1.2956
11316TIP3   OH255362   4.467   0.539  11.223  0.4855 -0.6942 -0.2711
11316TIP3    H155363   4.517   0.575  11.150 -0.0584 -1.4311 -1.0195
11316TIP3    H255364   4.531   0.529  11.293  2.0324 -3.8651 -1.9252
11317TIP3   OH255365   2.998   5.926  17.493 -0.1923 -0.3502 -0.1245
11317TIP3    H155366   2.930   5.992  17.485  0.1498  0.2181  1.4194
11317TIP3    H255367   3.000   5.904  17.586  2.3607  0.3271  0.0468
11318TIP3   OH255368   1.938   5.902  17.311  0.1981  0.0219 -0.1937
11318TIP3    H155369   1.937   5.847  17.232 -1.3905 -1.1469  0.5918
11318TIP3    H255370   1.930   5.840  17.383  2.5008  0.9995  0.9931
11319TIP3   OH255371   4.305   0.210  14.440  0.0095  0.1975  0.4424
11319TIP3    H155372   4.343   0.170  14.362  1.6353  1.1030  0.7279
11319TIP3    H255373   4.214   0.179  14.441  0.6170 -1.7851 -0.4524
11320TIP3   OH255374   2.483   5.436   1.656 -0.1389  0.5060 -0.1574
11320TIP3    H155375   2.400   5.478   1.633 -1.6271 -1.0499  1.9869
11320TIP3    H255376   2.490   5.361   1.598 -0.2308  0.6135 -0.3081
11321TIP3   OH255377   6.576   3.521  11.133 -0.1504 -0.2474  0.0278
11321TIP3    H155378   6.503   3.493  11.188 -1.0502 -1.2502 -1.5907
11321TIP3    H255379   6.583   3.454  11.065  0.9898  0.8509 -1.0186
11322TIP3   OH255380   4.580   5.209  14.222  0.4639 -0.3119  0.1852
11322TIP3    H155381   4.558   5.174  14.136  1.9767 -0.5587 -0.1272
11322TIP3    H255382   4.670   5.181  14.238  1.8753  3.4535 -0.1473
11323TIP3   OH255383   5.733   6.212   4.809 -0.2013 -0.3937 -0.7402
11323TIP3    H155384   5.718   6.270   4.734  1.0083 -0.1231 -0.8015
11323TIP3    H255385   5.820   6.174   4.793  0.1367 -0.2366  0.5760
11324TIP3   OH255386   3.649   2.641  13.419 -0.0967  0.1275 -0.1137
11324TIP3    H155387   3.578   2.699  13.446 -0.6407 -0.2216 -0.7506
11324TIP3    H255388   3.706   2.696  13.364 -0.2620  0.2265 -0.1853
11325TIP3   OH255389   6.407   0.772   5.173 -0.5877  0.4038 -0.4168
11325TIP3    H155390   6.316   0.778   5.201 -1.3091 -1.2058 -2.2112
11325TIP3    H255391   6.409   0.820   5.090  0.8274  2.5863  0.7758
11326TIP3   OH255392   1.897   2.341  13.564 -0.2024 -0.0723  0.1978
11326TIP3    H155393   1.859   2.255  13.583 -1.2008 -0.0458 -1.4537
11326TIP3    H255394   1.824   2.393  13.530  0.5654  1.1842  0.3725
11327TIP3   OH255395   6.361   3.613   4.786 -0.5426  0.1577  0.1923
11327TIP3    H155396   6.365   3.660   4.703  0.4120  0.7567  0.5634
11327TIP3    H255397   6.354   3.521   4.761 -1.0008  0.3838 -0.5475
11328TIP3   OH255398   3.406   6.135   2.024 -0.3845  0.3438 -0.2208
11328TIP3    H155399   3.326   6.188   2.027  0.7772  2.3139 -1.6533
11328TIP3    H255400   3.463   6.177   2.088 -0.5100 -1.1597  0.9196
11329TIP3   OH255401   6.110   4.939  15.946 -0.6118  0.0472  0.0822
11329TIP3    H155402   6.148   5.001  16.008 -0.4201  0.3635 -0.3489
11329TIP3    H255403   6.083   4.993  15.871  0.3676 -0.4885 -0.6838
11330TIP3   OH255404   0.052   2.791  11.689  0.3374 -0.6259 -0.6457
11330TIP3    H155405  -0.024   2.773  11.744  0.8219 -1.0274 -0.0909
11330TIP3    H255406   0.042   2.882  11.662 -0.1084 -0.5394 -0.1976
11331TIP3   OH255407   6.217   2.048  15.875 -0.5932  0.0784  0.2352
11331TIP3    H155408   6.163   2.004  15.809 -0.5123  0.9957 -0.4666
11331TIP3    H255409   6.256   2.123  15.829 -0.1553  0.4711  1.2000
11332TIP3   OH255410   3.621   1.828   2.687 -0.1257  0.7995  0.1918
11332TIP3    H155411   3.550   1.801   2.628 -0.6158  2.4196 -0.0146
11332TIP3    H255412   3.696   1.844   2.630  0.4712 -0.9579  0.4147
11333TIP3   OH255413   1.167   5.180   4.795  0.1171 -0.0600  0.0012
11333TIP3    H155414   1.098   5.135   4.744  0.0225  1.5506 -1.3797
11333TIP3    H255415   1.237   5.194   4.732  0.2050  1.5551  0.4230
11334TIP3   OH255416   1.791   3.911   4.737 -0.2120 -0.1298  0.0297
11334TIP3    H155417   1.707   3.955   4.748 -0.1104 -0.0467  0.4869
11334TIP3    H255418   1.769   3.825   4.703 -0.4593  0.0068 -0.1573
11335TIP3   OH255419   3.522   5.207   3.462 -0.0812 -0.0324  0.6439
11335TIP3    H155420   3.558   5.160   3.538  0.6041 -0.1584  0.2544
11335TIP3    H255421   3.494   5.291   3.497  0.0845 -0.1475  1.0658
11336TIP3   OH255422   5.258   4.309  11.399  0.3357 -0.0501 -0.0641
11336TIP3    H155423   5.163   4.313  11.386  0.3070  0.1511  0.1991
11336TIP3    H255424   5.279   4.390  11.445  0.7053  0.1315 -0.5397
11337TIP3   OH255425   1.097   3.387   1.672  0.6389 -0.0304 -0.3923
11337TIP3    H155426   1.093   3.296   1.643  0.3578 -0.0498 -0.2889
11337TIP3    H255427   1.168   3.426   1.620 -0.0216 -0.0018 -1.2746
11338TIP3   OH255428   0.440   4.870   0.572 -0.9324 -0.1323  0.2127
11338TIP3    H155429   0.469   4.961   0.583 -0.3873 -0.4731  1.8475
11338TIP3    H255430   0.345   4.874   0.575 -0.8854  0.2382  1.7419
11339TIP3   OH255431   4.722   4.472   2.206  0.6986  0.5333 -0.0834
11339TIP3    H155432   4.639   4.505   2.169  1.0008 -0.8368 -2.1442
11339TIP3    H255433   4.772   4.444   2.130  2.9868  1.0532  1.1470
11340TIP3   OH255434   3.687   5.359   5.921  0.1336  0.2713  0.3127
11340TIP3    H155435   3.703   5.362   5.827 -1.2507  0.5010  0.0518
11340TIP3    H255436   3.599   5.322   5.929  0.4613 -0.3058  1.5521
11341TIP3   OH255437   4.224   5.032  16.741 -0.0306 -0.1300  0.3835
11341TIP3    H155438   4.141   5.031  16.789 -0.1258 -2.7512  0.2885
11341TIP3    H255439   4.290   5.045  16.809 -0.3549 -0.7553  0.8255
11342TIP3   OH255440   3.379   6.066  12.102 -0.1941 -0.3473 -0.1069
11342TIP3    H155441   3.405   6.154  12.073 -0.4245 -0.5753 -1.0419
11342TIP3    H255442   3.399   6.065  12.195 -0.4907  0.8152 -0.0103
11343TIP3   OH255443   5.694   1.335  16.884 -0.1496  0.9083 -0.2879
11343TIP3    H155444   5.645   1.363  16.807 -1.9132 -0.5587  0.2407
11343TIP3    H255445   5.718   1.416  16.929  0.6287  1.7711 -2.1597
11344TIP3   OH255446   1.084   3.477  14.669 -0.2815  0.2095  0.5239
11344TIP3    H155447   1.151   3.440  14.727 -1.3670 -1.6459  0.6772
11344TIP3    H255448   1.009   3.418  14.679 -0.8310  0.3680 -2.0704
11345TIP3   OH255449   1.871   5.066   4.679  0.0666 -0.1858 -0.1976
11345TIP3    H155450   1.843   5.028   4.763  0.0607  3.2431  1.5414
11345TIP3    H255451   1.963   5.042   4.671  0.1861 -0.2086  1.0395
11346TIP3   OH255452   2.445   1.443  15.930 -0.3793  0.0591  0.6767
11346TIP3    H155453   2.435   1.516  15.868 -1.1084 -1.5651 -1.2575
11346TIP3    H255454   2.528   1.402  15.904 -1.1616 -1.2070  0.0746
11347TIP3   OH255455   4.252   5.128   1.441 -0.3317  0.0919 -0.0293
11347TIP3    H155456   4.273   5.115   1.348 -1.2254  0.6766 -0.3237
11347TIP3    H255457   4.306   5.063   1.486  0.5219  0.1525 -0.9102
11348TIP3   OH255458   3.339   4.255   1.738  0.0483 -0.4134 -0.4784
11348TIP3    H155459   3.307   4.171   1.769 -0.3095  0.1855  0.8856
11348TIP3    H255460   3.407   4.280   1.802  1.4611 -0.4926 -1.8925
11349TIP3   OH255461   6.159   4.663   4.400  0.2012 -0.9611  0.4732
11349TIP3    H155462   6.129   4.606   4.471 -1.0549  1.4734  2.0590
11349TIP3    H255463   6.242   4.700   4.433  0.4202 -0.9946 -0.0327
11350TIP3   OH255464   6.560   5.358  13.828 -0.3108 -0.2202 -0.3572
11350TIP3    H155465   6.480   5.406  13.811  0.7747  1.9437  0.2830
11350TIP3    H255466   6.532   5.267  13.840 -2.6111  0.4372 -0.3321
11351TIP3   OH255467   0.769   1.111   3.275 -0.0678 -0.4893 -0.8040
11351TIP3    H155468   0.820   1.184   3.242  0.1720 -0.8975 -1.3433
11351TIP3    H255469   0.708   1.150   3.337 -0.5726  0.2967 -1.7787
11352TIP3   OH255470   6.335   2.316   4.594 -0.3148 -0.1007  0.9033
11352TIP3    H155471   6.406   2.254   4.608 -2.3953 -3.3479 -1.5753
11352TIP3    H255472   6.360   2.365   4.516  0.0811  0.1952  1.2150
11353TIP3   OH255473   0.911   6.588  14.487  0.0771 -0.3966 -0.3475
11353TIP3    H155474   0.830   6.593  14.436  0.4993  0.7590 -0.9307
11353TIP3    H255475   0.956   6.510  14.453 -0.1741 -0.2810 -0.9524
11354TIP3   OH255476   0.248   5.464  14.547 -0.2343 -0.4475  0.5495
11354TIP3    H155477   0.277   5.373  14.549 -0.5089 -0.5406  0.3993
11354TIP3    H255478   0.165   5.462  14.500  0.2951  0.0266 -0.4387
11355TIP3   OH255479   2.586   4.273  11.937 -0.0745 -0.2866 -0.8113
11355TIP3    H155480   2.660   4.333  11.925 -1.4486  1.1227 -2.9152
11355TIP3    H255481   2.514   4.329  11.964 -0.5271 -1.5851  0.8480
11356TIP3   OH255482   2.707   1.905  11.715  0.0712  0.0795  0.7996
11356TIP3    H155483   2.791   1.930  11.752  0.7811 -1.6580  0.4632
11356TIP3    H255484   2.665   1.853  11.784  0.4187 -1.2378  0.0537
11357TIP3   OH255485   2.441   2.730  13.125 -0.2671 -0.0824 -0.1921
11357TIP3    H155486   2.473   2.664  13.186 -0.1431 -0.0100 -0.1778
11357TIP3    H255487   2.354   2.754  13.157 -0.5647 -0.6713 -0.5324
11358TIP3   OH255488   6.197   3.187  14.878 -0.6813 -0.1481 -0.2998
11358TIP3    H155489   6.115   3.226  14.850 -1.3569 -1.4101 -0.1536
11358TIP3    H255490   6.248   3.260  14.912 -1.8484  0.6135 -0.1372
11359TIP3   OH255491   3.214   0.389   0.694 -0.6296 -0.1038  0.3273
11359TIP3    H155492   3.302   0.419   0.718  0.2100 -1.3870 -0.9755
11359TIP3    H255493   3.186   0.336   0.768 -0.6342  0.8896  1.0646
11360TIP3   OH255494   3.030   5.834   3.635 -0.0087  0.4015  0.2229
11360TIP3    H155495   3.101   5.816   3.696  0.6069 -1.3483 -0.9193
11360TIP3    H255496   3.072   5.879   3.562 -0.5569  1.6049  0.6371
11361TIP3   OH255497   1.410   0.110  12.786  0.1967  0.8118  0.2521
11361TIP3    H155498   1.498   0.104  12.749  0.1840 -0.9931  0.3939
11361TIP3    H255499   1.354   0.067  12.721 -0.3304  0.5782  0.8498
11362TIP3   OH255500   4.002   6.395   3.828  0.1662  0.4125  0.0162
11362TIP3    H155501   4.039   6.312   3.797  0.8834  0.8309 -0.2626
11362TIP3    H255502   3.945   6.424   3.757  2.1979  1.6283 -1.2137
11363TIP3   OH255503   5.560   3.878  13.233  0.6151  0.0132 -0.1804
11363TIP3    H155504   5.544   3.784  13.235  0.4073  0.0599  1.7976
11363TIP3    H255505   5.588   3.895  13.143 -1.4202 -1.5741 -1.2222
11364TIP3   OH255506   3.059   1.320   4.194  0.5267  0.3410  0.5063
11364TIP3    H155507   3.069   1.244   4.136 -0.6600 -0.5994  1.4812
11364TIP3    H255508   3.149   1.347   4.213  1.0024 -1.1837  0.5793
11365TIP3   OH255509   3.394   4.556   0.856 -0.0862  0.0333 -0.4584
11365TIP3    H155510   3.429   4.604   0.931  1.4872  0.5716 -1.5036
11365TIP3    H255511   3.339   4.620   0.810 -0.6810 -0.1662 -0.0437
11366TIP3   OH255512   5.270   3.933   1.713 -0.4590  0.0002 -0.1812
11366TIP3    H155513   5.286   3.968   1.625  1.7145  0.0732  0.1907
11366TIP3    H255514   5.244   4.009   1.765 -1.1450  0.0581 -0.5865
11367TIP3   OH255515   1.390   3.775  14.060  0.0421 -0.1095 -0.1624
11367TIP3    H155516   1.302   3.808  14.078 -0.5934 -1.6153 -0.3540
11367TIP3    H255517   1.405   3.795  13.968 -0.1609  0.0058 -0.1711
11368TIP3   OH255518   0.908   2.288  14.934 -0.0801 -0.4283 -0.0566
11368TIP3    H155519   0.895   2.362  14.874 -1.3984 -0.1447  0.5515
11368TIP3    H255520   0.933   2.215  14.876  1.0319  0.4068 -0.6829
11369TIP3   OH255521   2.477   4.088   5.729 -0.4206 -0.3229  0.1341
11369TIP3    H155522   2.498   4.181   5.723  1.1393 -0.7280 -1.6366
11369TIP3    H255523   2.402   4.084   5.788 -1.3385  2.1808 -0.7358
11370TIP3   OH255524   3.941   0.933   0.785  0.3289 -0.3499 -0.0632
11370TIP3    H155525   3.955   0.987   0.862  0.6475 -0.7402  0.1541
11370TIP3    H255526   4.018   0.950   0.729  0.4854 -0.6607  0.0558
11371TIP3   OH255527   3.015   4.593   4.013  0.0345  0.3586 -0.0413
11371TIP3    H155528   3.097   4.612   4.059  1.8866 -0.4970 -2.7271
11371TIP3    H255529   3.022   4.640   3.930 -0.2954 -2.7393 -2.0168
11372TIP3   OH255530   2.675   3.815  16.749  0.2483 -0.5889  0.3229
11372TIP3    H155531   2.650   3.723  16.740  1.6297 -1.3431  3.1861
11372TIP3    H255532   2.594   3.859  16.774  0.1575 -1.6401  2.0475
11373TIP3   OH255533   0.186   6.680   4.585  0.5243  0.0186 -0.1228
11373TIP3    H155534   0.160   6.758   4.634  0.8331 -0.3042  0.5604
11373TIP3    H255535   0.110   6.622   4.589  0.5421  0.0009 -0.0484
11374TIP3   OH255536   1.905   5.806   0.394  0.2767 -0.2468  0.2014
11374TIP3    H155537   1.839   5.789   0.327  0.8135 -1.4281 -0.0616
11374TIP3    H255538   1.854   5.818   0.475 -0.3607  0.9997 -0.3652
11375TIP3   OH255539   5.575   3.615  17.268 -0.0885  0.1237  0.2351
11375TIP3    H155540   5.635   3.668  17.215 -1.2170 -0.5901 -1.8759
11375TIP3    H255541   5.504   3.675  17.291  0.6875  0.5946  1.5427
11376TIP3   OH255542   2.033   6.428   6.050  0.5157  0.5852  0.2308
11376TIP3    H155543   1.946   6.447   6.013  0.7548  1.6032  0.1604
11376TIP3    H255544   2.024   6.340   6.087 -0.2913  0.3233 -0.5429
11377TIP3   OH255545   5.698   4.769   3.953  0.0306  0.5410 -0.0796
11377TIP3    H155546   5.634   4.732   3.892  0.9104  0.5706 -1.0414
11377TIP3    H255547   5.683   4.722   4.035 -0.2386 -0.4908 -0.7074
11378TIP3   OH255548   4.656   6.640  13.963  0.1795 -0.2333 -0.0897
11378TIP3    H155549   4.640   6.728  13.998  0.6679 -0.1059 -0.1786
11378TIP3    H255550   4.751   6.636  13.950  0.1663 -0.8019 -0.0219
11379TIP3   OH255551   3.794   2.230  15.747 -0.4673  0.0069  0.3793
11379TIP3    H155552   3.740   2.204  15.821 -0.1433  0.0551  0.6357
11379TIP3    H255553   3.781   2.324  15.740 -1.6010 -0.1869 -0.5157
11380TIP3   OH255554   5.064   2.755   1.058 -0.4689  0.0649  0.5277
11380TIP3    H155555   5.022   2.715   0.982  1.5406 -1.3797  0.0773
11380TIP3    H255556   4.997   2.811   1.096 -1.7692  0.3113 -1.9094
11381TIP3   OH255557   1.342   3.032  15.267 -0.1528 -0.4724 -0.3530
11381TIP3    H155558   1.295   3.043  15.350 -0.3619 -1.5532 -0.3234
11381TIP3    H255559   1.424   2.989  15.291  0.3789  0.4077 -0.5517
11382TIP3   OH255560   4.847   4.733  16.030  0.1981  0.3849  0.4955
11382TIP3    H155561   4.846   4.670  15.957  0.8009  1.0044 -0.0562
11382TIP3    H255562   4.890   4.810  15.995  0.8913  0.5402  1.6504
11383TIP3   OH255563   6.005   6.470  16.953  0.2862 -0.4356  0.3561
11383TIP3    H155564   5.948   6.547  16.960 -0.4867 -1.0829  1.4017
11383TIP3    H255565   6.054   6.469  17.035  1.0988 -0.4556 -0.1166
11384TIP3   OH255566   0.166   3.080  14.258  0.9801 -0.5233 -0.2427
11384TIP3    H155567   0.125   3.054  14.176 -0.3469  0.5506  0.0586
11384TIP3    H255568   0.094   3.090  14.319  2.0159 -2.4864  1.4502
11385TIP3   OH255569   2.839   0.439   5.056  0.4532  0.0816 -0.3216
11385TIP3    H155570   2.835   0.484   4.971  1.1057  0.0468 -0.3724
11385TIP3    H255571   2.920   0.470   5.096  0.3888 -0.2711  0.0842
11386TIP3   OH255572   2.957   0.117   4.236  0.4678  0.1979  0.0235
11386TIP3    H155573   2.947   0.192   4.295  0.2502  0.3349 -0.1865
11386TIP3    H255574   2.874   0.112   4.189  0.1819 -0.6817  0.6210
11387TIP3   OH255575   4.644   1.629   3.721 -0.0007  0.5374  0.1489
11387TIP3    H155576   4.733   1.634   3.686 -0.1634 -1.0887 -0.5956
11387TIP3    H255577   4.589   1.612   3.644 -0.6756 -0.7281  0.8838
11388TIP3   OH255578   5.860   4.083   3.332 -0.6190  0.5003 -0.1905
11388TIP3    H155579   5.803   4.133   3.391 -1.5925 -1.7959  0.9069
11388TIP3    H255580   5.815   4.000   3.319  0.8048 -0.0327 -2.2127
11389TIP3   OH255581   0.978   2.204   5.002  0.3189  0.7050  0.3007
11389TIP3    H155582   1.056   2.258   5.016 -0.5711  1.9809  0.4195
11389TIP3    H255583   0.913   2.238   5.063 -0.3067 -0.4269  0.2890
11390TIP3   OH255584   4.957   6.077   0.239 -0.4351 -0.2340 -0.7127
11390TIP3    H155585   4.989   5.995   0.276 -1.1244  0.5118  1.7391
11390TIP3    H255586   4.908   6.050   0.161  0.2648 -2.0284 -0.5855
11391TIP3   OH255587   1.895   2.332   1.492  0.0720  0.2928  0.5798
11391TIP3    H155588   1.980   2.292   1.510  0.4240  0.4853 -0.5737
11391TIP3    H255589   1.880   2.316   1.399 -0.7599  0.9958  0.5801
11392TIP3   OH255590   5.714   0.264   5.091 -0.6045 -0.2175 -0.0404
11392TIP3    H155591   5.689   0.233   5.004 -1.2586  0.5427 -0.1391
11392TIP3    H255592   5.804   0.295   5.080 -0.4127 -0.8348 -0.2546
11393TIP3   OH255593   4.980   3.962   0.469 -0.6757  0.5619 -0.4184
11393TIP3    H155594   4.916   4.014   0.419 -0.6161  0.4708 -0.5871
11393TIP3    H255595   5.064   4.001   0.448 -0.6879  0.8007 -0.0526
11394TIP3   OH255596   2.061   2.706  13.865 -0.2893  0.2831 -0.1214
11394TIP3    H155597   2.091   2.636  13.807  2.5778  1.0902  0.2280
11394TIP3    H255598   2.097   2.682  13.951 -1.0458  1.1437  0.4524
11395TIP3   OH255599   5.903   0.167  15.845 -0.4732 -0.2695  0.0479
11395TIP3    H155600   5.994   0.145  15.825 -0.8761 -0.9074 -1.1563
11395TIP3    H255601   5.907   0.258  15.873  0.5210 -0.2507 -0.0991
11396TIP3   OH255602   5.549   3.769   1.652  0.2882 -0.7768 -0.1001
11396TIP3    H155603   5.576   3.701   1.713  2.3682  0.7948  0.8428
11396TIP3    H255604   5.454   3.777   1.665  0.2560 -2.3841  0.8832
11397TIP3   OH255605   5.809   6.215  16.252  0.5276 -0.2403  0.2433
11397TIP3    H155606   5.851   6.152  16.311 -0.0990 -1.0362 -0.1455
11397TIP3    H255607   5.812   6.173  16.166  0.1939  0.3075 -0.0426
11398TIP3   OH255608   4.205   5.649   2.328 -0.0175 -0.2016  0.1750
11398TIP3    H155609   4.293   5.686   2.330 -0.1557  0.0893  0.9866
11398TIP3    H255610   4.176   5.650   2.419 -0.4524 -1.2851  0.0583
11399TIP3   OH255611   2.115   6.116  13.758  0.2824  0.0558 -0.6711
11399TIP3    H155612   2.188   6.155  13.805  0.8684  0.2737 -1.7396
11399TIP3    H255613   2.141   6.118  13.667 -0.2164 -1.6784 -0.8862
11400TIP3   OH255614   3.296   5.587  15.775  0.6742  0.6774 -0.0454
11400TIP3    H155615   3.262   5.538  15.850  0.4594  0.3088 -0.3800
11400TIP3    H255616   3.275   5.533  15.700 -1.5742  2.2908 -0.6813
11401TIP3   OH255617   4.451   2.150   5.422  0.7721 -0.3087  0.1396
11401TIP3    H155618   4.501   2.177   5.345 -0.4607  0.4483 -0.4297
11401TIP3    H255619   4.389   2.084   5.389 -0.9522  1.2521  0.0481
11402TIP3   OH255620   6.183   2.140  16.490 -0.3536 -0.5742 -0.4280
11402TIP3    H155621   6.117   2.107  16.430 -0.0795  0.1325 -1.1431
11402TIP3    H255622   6.156   2.109  16.576  0.0008 -2.7969 -1.0662
11403TIP3   OH255623   1.700   3.393   4.605 -0.0395 -0.1792  0.3983
11403TIP3    H155624   1.667   3.308   4.575  3.1523 -1.2819 -0.3460
11403TIP3    H255625   1.751   3.427   4.532  0.0971  1.6473  1.2717
11404TIP3   OH255626   2.795   5.301   6.415  0.3569  0.8330  0.2826
11404TIP3    H155627   2.804   5.223   6.469 -1.4373  1.1114  1.0554
11404TIP3    H255628   2.855   5.365   6.455  0.6507  0.3522  0.6141
11405TIP3   OH255629   5.400   1.090   0.261  0.3573  0.0505  0.2289
11405TIP3    H155630   5.482   1.074   0.308  0.3787 -0.2970  0.0782
11405TIP3    H255631   5.331   1.075   0.326  0.4300  1.1435  0.5792
11406TIP3   OH255632   2.203   4.937  13.227 -0.2901 -0.6175 -0.1941
11406TIP3    H155633   2.215   5.031  13.242 -0.0036 -0.8702  1.3644
11406TIP3    H255634   2.130   4.913  13.285  2.3685 -2.1061  2.8335
11407TIP3   OH255635   5.682   3.832   3.292  0.0214  0.2685  0.5061
11407TIP3    H155636   5.690   3.827   3.196  1.1058  0.0262  0.5935
11407TIP3    H255637   5.724   3.752   3.323 -1.4629 -0.2863  1.1495
11408TIP3   OH255638   2.324   1.224   0.055 -0.4777  0.2459 -1.0132
11408TIP3    H155639   2.254   1.285   0.032 -0.2015  0.3483 -1.5935
11408TIP3    H255640   2.405   1.275   0.047 -0.3270  0.1264 -0.3573
11409TIP3   OH255641   6.583   6.649  16.637  0.7363 -0.2744  0.1339
11409TIP3    H155642   6.546   6.702  16.566  0.2686 -1.5006 -0.5682
11409TIP3    H255643   6.678   6.662  16.629  0.6961 -0.4164 -0.7528
11410TIP3   OH255644   2.487   3.899   6.170 -0.0113  0.0044 -0.6232
11410TIP3    H155645   2.500   3.828   6.233  0.0438 -0.5458 -1.2416
11410TIP3    H255646   2.460   3.855   6.089 -1.0873  0.7691 -0.7028
11411TIP3   OH255647   6.162   1.084  11.938 -0.2151  0.5768  0.7363
11411TIP3    H155648   6.163   1.049  11.848  0.3615  0.8240  0.6442
11411TIP3    H255649   6.242   1.137  11.944  0.1395 -0.0490  1.6423
11412TIP3   OH255650   3.557   4.789   5.777  0.3033  0.5673 -0.1005
11412TIP3    H155651   3.554   4.809   5.683  0.5854 -0.2835 -0.3065
11412TIP3    H255652   3.497   4.851   5.817 -1.2482 -0.2383 -1.0727
11413TIP3   OH255653   0.093   6.698   2.892 -0.2363 -0.0431  0.2535
11413TIP3    H155654   0.044   6.695   2.809 -0.4994 -0.0573  0.4087
11413TIP3    H255655   0.044   6.759   2.947 -0.1027 -0.0918  0.4264
11414TIP3   OH255656   5.235   4.408  15.319 -0.4764 -0.2118 -0.4316
11414TIP3    H155657   5.253   4.376  15.407 -0.1137  2.2570  0.4937
11414TIP3    H255658   5.190   4.492  15.333 -2.1745 -0.6507 -2.6356
11415TIP3   OH255659   1.144   1.361  12.280  0.3012 -0.3985  0.2378
11415TIP3    H155660   1.222   1.312  12.304  0.7582  0.3974  0.4018
11415TIP3    H255661   1.072   1.301  12.298  0.8301 -0.9025  0.7231
11416TIP3   OH255662   3.393   2.306  14.639  0.0870 -0.1671 -0.3140
11416TIP3    H155663   3.428   2.321  14.551  2.3975 -0.9178  0.4101
11416TIP3    H255664   3.423   2.218  14.663 -0.8577 -0.1497  1.0644
11417TIP3   OH255665   5.231   2.423   3.084 -0.6259  0.3873 -0.0277
11417TIP3    H155666   5.171   2.444   3.013 -0.7133 -0.7445 -0.2969
11417TIP3    H255667   5.295   2.495   3.084  0.1604 -0.2463 -2.1159
11418TIP3   OH255668   3.645   6.633  11.376 -0.3766  0.0587  0.3085
11418TIP3    H155669   3.739   6.641  11.392 -0.4912 -1.0886  1.7660
11418TIP3    H255670   3.627   6.694  11.305  1.5517 -0.0393 -0.3053
11419TIP3   OH255671   5.209   2.852  13.693 -0.2577  0.2576 -0.4874
11419TIP3    H155672   5.183   2.774  13.742  2.0633 -1.4760 -1.7658
11419TIP3    H255673   5.152   2.853  13.617 -1.7057  1.0868  0.5689
11420TIP3   OH255674   5.003   2.921   0.467  0.0526 -0.5290 -0.5747
11420TIP3    H155675   5.058   2.999   0.470 -0.6640 -0.0304 -0.0084
11420TIP3    H255676   5.015   2.880   0.553  0.6101 -1.1827 -0.9524
11421TIP3   OH255677   0.307   2.725   2.353  0.3018  1.2660 -0.0677
11421TIP3    H155678   0.234   2.783   2.332  0.6305  0.9167 -2.5348
11421TIP3    H255679   0.364   2.776   2.410  0.1502  3.1061 -1.4611
11422TIP3   OH255680   4.049   5.698  16.103 -0.0983  0.3300  0.1524
11422TIP3    H155681   4.011   5.633  16.163 -0.6848 -0.5744 -1.1498
11422TIP3    H255682   3.989   5.699  16.028  1.9922 -0.5872 -1.6346
11423TIP3   OH255683   1.892   0.034   0.600 -0.1261  0.2523 -0.1320
11423TIP3    H155684   1.890  -0.037   0.535 -0.2253 -0.9439  1.1229
11423TIP3    H255685   1.804   0.032   0.639  0.0936  0.6113  0.3862
11424TIP3   OH255686   0.006   0.970   0.012 -0.3637  0.5630  0.3053
11424TIP3    H155687  -0.015   1.056  -0.025 -1.2990  0.1996 -0.0440
11424TIP3    H255688   0.007   0.985   0.107  1.5034  1.3825  0.2054
11425TIP3   OH255689   3.436   6.453  11.856  0.8473  0.3563  0.2504
11425TIP3    H155690   3.511   6.513  11.859 -0.7092  2.4082  0.0800
11425TIP3    H255691   3.409   6.444  11.948  0.3259  0.9215  0.1545
11426TIP3   OH255692   1.628   3.544  12.281 -0.4588 -0.4979 -0.9707
11426TIP3    H155693   1.628   3.601  12.358  1.8151  0.9913 -1.9434
11426TIP3    H255694   1.652   3.458  12.314 -2.2727 -0.5740  0.3008
11427TIP3   OH255695   3.079   0.015  12.596  0.7005 -0.1452 -0.1549
11427TIP3    H155696   3.085   0.069  12.674  1.8731  0.3312 -0.5571
11427TIP3    H255697   3.001   0.047  12.551  0.5876  0.2516  0.3157
11428TIP3   OH255698   4.785   0.485  10.470 -0.5642  0.0567  0.2364
11428TIP3    H155699   4.759   0.532  10.549 -0.1329  1.0510 -0.1999
11428TIP3    H255700   4.703   0.453  10.433 -0.9016  0.7399  0.3777
11429TIP3   OH255701   2.320   3.408  14.167 -0.4918 -0.6321  0.0304
11429TIP3    H155702   2.270   3.489  14.160  0.1409 -0.1508  0.8447
11429TIP3    H255703   2.409   3.437  14.189 -0.0708 -1.5107 -0.4691
11430TIP3   OH255704   4.874   2.599  14.749  0.0037 -0.1725  0.7131
11430TIP3    H155705   4.826   2.532  14.700 -0.4014  0.4723  0.2257
11430TIP3    H255706   4.904   2.553  14.828  1.1017 -1.3799 -0.3344
11431TIP3   OH255707   2.708   0.968  14.154 -0.1385 -0.4361  0.4104
11431TIP3    H155708   2.654   1.035  14.111  0.2553 -0.2187  0.2457
11431TIP3    H255709   2.647   0.898  14.176 -0.4399 -0.3212 -0.0434
11432TIP3   OH255710   0.705   1.762  11.790 -0.0162 -0.0338  0.3391
11432TIP3    H155711   0.783   1.710  11.811  1.7550  2.4956  0.4369
11432TIP3    H255712   0.689   1.744  11.697  0.0787 -1.3176  0.5589
11433TIP3   OH255713   3.274   2.090   2.170  0.5882  0.3315 -0.5118
11433TIP3    H155714   3.228   2.062   2.090 -0.1878 -1.3181  0.4514
11433TIP3    H255715   3.338   2.021   2.186  0.8604  0.7400  0.1944
11434TIP3   OH255716   6.528   5.810  12.472  0.3987 -0.5345 -0.2689
11434TIP3    H155717   6.509   5.808  12.378 -0.7131 -0.3370 -0.0581
11434TIP3    H255718   6.442   5.809  12.514  0.8662  0.2461  0.7385
11435TIP3   OH255719   4.787   6.560   5.364 -0.3364 -0.6045 -0.4692
11435TIP3    H155720   4.702   6.575   5.405 -0.1134  0.9370 -0.5196
11435TIP3    H255721   4.850   6.596   5.426  0.0305  1.5051 -1.9784
11436TIP3   OH255722   4.300   0.280  15.763  0.1747  0.2128 -0.0581
11436TIP3    H155723   4.205   0.270  15.769  0.0641 -1.1958 -2.7593
11436TIP3    H255724   4.313   0.367  15.726  0.0068  0.6176  0.7977
11437TIP3   OH255725   2.139   5.723   2.905  0.2734 -0.2489 -0.4529
11437TIP3    H155726   2.178   5.777   2.836  0.7629  1.3026  0.9735
11437TIP3    H255727   2.188   5.746   2.984 -3.0319  1.2890  1.3047
11438TIP3   OH255728   3.213   1.011   4.678 -1.0071  0.3738 -0.5961
11438TIP3    H155729   3.255   1.096   4.669  0.5767 -0.2932  0.0160
11438TIP3    H255730   3.127   1.029   4.715 -0.1283  1.5919  0.9204
11439TIP3   OH255731   6.188   2.950  16.929 -0.0853  0.5020  0.2933
11439TIP3    H155732   6.193   2.885  16.859 -0.8028  2.3676 -1.5827
11439TIP3    H255733   6.260   3.010  16.912 -0.5187  1.2156  0.8977
11440TIP3   OH255734   1.063   6.108   5.689  0.5813 -0.2408 -0.2327
11440TIP3    H155735   1.023   6.115   5.776 -1.4832 -1.8714 -0.9597
11440TIP3    H255736   1.148   6.150   5.699 -0.2707  1.1707  2.1176
11441TIP3   OH255737   0.709   3.987  12.876  0.3858  0.0272 -0.1771
11441TIP3    H155738   0.632   3.970  12.820 -0.3872 -1.4221  1.2294
11441TIP3    H255739   0.782   3.949  12.828 -0.1366 -0.5097 -0.5689
11442TIP3   OH255740   6.154   4.625  13.823 -0.0806 -0.1362 -0.1066
11442TIP3    H155741   6.212   4.554  13.795 -1.8512 -1.3539 -0.8123
11442TIP3    H255742   6.158   4.689  13.752  1.6973  0.6489  0.6337
11443TIP3   OH255743   5.766   2.695   1.335 -0.6901 -0.0282 -0.2064
11443TIP3    H155744   5.777   2.790   1.337  0.0372 -0.1077  1.4090
11443TIP3    H255745   5.818   2.667   1.260 -0.2218  0.7853 -0.2084
11444TIP3   OH255746   4.603   5.678   4.867 -0.0164  0.1158  0.7128
11444TIP3    H155747   4.623   5.682   4.774 -1.4497 -0.8889  0.3305
11444TIP3    H255748   4.555   5.596   4.878  1.9227 -0.8525  2.7192
11445TIP3   OH255749   0.361   5.221   0.440 -0.0505 -0.0195 -0.0627
11445TIP3    H155750   0.307   5.268   0.503 -0.1341 -1.3192  0.8789
11445TIP3    H255751   0.331   5.131   0.445  0.6322 -0.3370 -1.2385
11446TIP3   OH255752   0.441   2.922  16.041  0.0453 -0.0081 -0.1046
11446TIP3    H155753   0.410   2.993  16.097 -1.8454 -1.5347  0.9082
11446TIP3    H255754   0.372   2.912  15.975  0.9983  0.0403 -1.1339
11447TIP3   OH255755   1.578   1.643  13.452  0.1223  0.2665  0.1465
11447TIP3    H155756   1.596   1.553  13.426 -0.6707  0.4552 -1.1534
11447TIP3    H255757   1.489   1.640  13.486  0.4017  0.4180  0.9109
11448TIP3   OH255758   4.821   0.530  12.192  0.0680 -0.0392  0.4792
11448TIP3    H155759   4.729   0.543  12.170  0.5779  1.1236 -1.1614
11448TIP3    H255760   4.830   0.436  12.206 -1.0819 -0.3756 -0.8291
11449TIP3   OH255761   4.038   5.254   0.945 -0.1158 -0.5000 -0.4621
11449TIP3    H155762   3.976   5.310   0.992 -0.1000 -0.6153 -0.3020
11449TIP3    H255763   4.122   5.299   0.954  0.1174 -1.1214  0.6553
11450TIP3   OH255764   5.868   4.999  12.116  0.6422 -0.0241 -0.1850
11450TIP3    H155765   5.910   5.074  12.074 -1.8135  2.0620  0.8283
11450TIP3    H255766   5.840   5.031  12.202 -1.5848 -1.7163 -0.1763
11451TIP3   OH255767   1.031   2.420  12.242 -0.2536 -0.1675  0.0084
11451TIP3    H155768   1.011   2.347  12.300  0.1364 -1.7508 -1.7672
11451TIP3    H255769   0.950   2.436  12.194 -0.8189  1.6636  1.4384
11452TIP3   OH255770   0.707   2.863  17.591  0.5072  0.0042 -0.0726
11452TIP3    H155771   0.721   2.770  17.575 -3.1934 -1.2782  2.7518
11452TIP3    H255772   0.678   2.898  17.507  0.6592 -1.6826 -0.8682
11453TIP3   OH255773   3.103   5.387   4.342  0.2930 -0.5402  0.0768
11453TIP3    H155774   3.042   5.433   4.399 -0.2149 -0.6237 -0.3856
11453TIP3    H255775   3.190   5.416   4.370 -0.0350  1.3535 -0.7271
11454TIP3   OH255776   4.376   4.114  16.380 -0.7186  0.5744 -0.2613
11454TIP3    H155777   4.315   4.110  16.307  0.3357  1.1505 -1.1927
11454TIP3    H255778   4.324   4.148  16.453 -1.4990  1.0907 -1.0427
11455TIP3   OH255779   6.073   1.538   2.158 -0.0986  0.3873  0.4989
11455TIP3    H155780   6.034   1.452   2.174  0.5865 -0.0902 -0.3179
11455TIP3    H255781   6.013   1.579   2.096  1.5920 -1.1384 -2.3890
11456TIP3   OH255782   0.677   1.464  14.371 -0.3290 -0.3852 -0.4007
11456TIP3    H155783   0.744   1.531  14.391 -0.1846 -0.3156 -1.0872
11456TIP3    H255784   0.605   1.514  14.332 -1.3891 -0.2642  1.5757
11457TIP3   OH255785   5.423   1.664   2.583  0.2859 -0.0780  0.0045
11457TIP3    H155786   5.450   1.573   2.597  1.6159  0.4685  1.1982
11457TIP3    H255787   5.453   1.710   2.661 -2.5825  0.9685  0.6158
11458TIP3   OH255788   4.066   4.585   4.823  1.0558  0.3380 -0.3614
11458TIP3    H155789   4.102   4.497   4.819  0.3462 -0.2862  3.3993
11458TIP3    H255790   3.984   4.580   4.774  0.6902 -1.3221  0.3722
11459TIP3   OH255791   4.899   6.185  12.578  0.2519  0.3240  0.2889
11459TIP3    H155792   4.972   6.246  12.587  1.1621 -0.8920  1.6665
11459TIP3    H255793   4.849   6.196  12.658 -1.0735  1.0962 -0.6192
11460TIP3   OH255794   5.505   2.244   4.919  0.5325 -0.0847 -0.0483
11460TIP3    H155795   5.585   2.232   4.970 -0.1876  1.2644  1.4702
11460TIP3    H255796   5.440   2.272   4.982 -1.1414 -0.9912 -1.2852
11461TIP3   OH255797   2.175   1.739   5.242 -0.0284 -0.7484  0.0350
11461TIP3    H155798   2.105   1.695   5.194 -0.9165  0.7986 -0.1580
11461TIP3    H255799   2.164   1.710   5.333  0.4406 -2.1643 -0.3357
11462TIP3   OH255800   2.187   5.061  16.455  0.3610  0.3663 -0.0240
11462TIP3    H155801   2.235   5.119  16.515  0.2809  0.4914 -0.0806
11462TIP3    H255802   2.222   4.974  16.473 -0.2464  0.2801  0.8060
11463TIP3   OH255803   3.680   0.710   2.169  0.2087  0.5172  0.1415
11463TIP3    H155804   3.728   0.790   2.144  0.6923  0.4142  0.7308
11463TIP3    H255805   3.614   0.741   2.231  0.3224  0.4682  0.2843
11464TIP3   OH255806   4.695   6.005   0.569  0.3461 -0.1313 -0.2743
11464TIP3    H155807   4.716   5.916   0.539  0.5079 -0.3158  0.3479
11464TIP3    H255808   4.719   6.004   0.662 -1.4235 -0.0231  0.2227
11465TIP3   OH255809   2.436   2.348   3.963  0.1971  0.2673 -0.5333
11465TIP3    H155810   2.470   2.287   3.897  0.8158 -0.5120  0.4809
11465TIP3    H255811   2.346   2.319   3.978  1.1487 -1.9104  1.5858
11466TIP3   OH255812   5.433   1.454  13.275 -0.2873 -0.2765 -0.0475
11466TIP3    H155813   5.365   1.497  13.223  0.0445 -1.0226 -1.1431
11466TIP3    H255814   5.501   1.432  13.211  1.4811  1.3464  1.1371
11467TIP3   OH255815   4.832   4.763   4.979  0.1398  0.0635 -0.1593
11467TIP3    H155816   4.874   4.809   5.051 -1.1183  0.8279  0.1160
11467TIP3    H255817   4.857   4.813   4.901 -0.9114  1.0428  0.0977
11468TIP3   OH255818   5.115   0.145  13.853  0.2898 -0.0154 -0.2175
11468TIP3    H155819   5.059   0.215  13.886  1.4648  0.7115  0.3254
11468TIP3    H255820   5.150   0.103  13.932  2.7287  1.4123 -0.4452
11469TIP3   OH255821   5.264   2.264   3.594 -0.2541  0.3085 -0.2843
11469TIP3    H155822   5.263   2.212   3.674 -1.3711  0.0909 -0.4322
11469TIP3    H255823   5.352   2.302   3.592  0.3538 -0.9950  0.1944
11470TIP3   OH255824   4.003   6.431  14.589  0.3723 -0.7091 -0.1946
11470TIP3    H155825   3.924   6.486  14.591  0.2422 -0.8567 -1.2042
11470TIP3    H255826   4.000   6.383  14.672 -0.1930 -0.1436  0.1193
11471TIP3   OH255827   0.071   0.919   1.926 -0.4266 -0.1603  0.3120
11471TIP3    H155828   0.127   0.942   2.001 -1.4919  0.5078  0.9221
11471TIP3    H255829  -0.018   0.932   1.958 -0.9099 -0.1377 -0.9964
11472TIP3   OH255830   1.984   1.912  12.648 -0.0008  0.4051  0.3786
11472TIP3    H155831   1.890   1.900  12.658  0.2272 -1.0238  1.0264
11472TIP3    H255832   2.009   1.970  12.720 -0.3964  0.9529  0.0869
11473TIP3   OH255833   1.279   3.099  15.537 -0.1730 -0.6132 -0.4041
11473TIP3    H155834   1.249   3.027  15.593  0.0873  0.6323  1.4391
11473TIP3    H255835   1.365   3.123  15.573  0.4711 -0.4107 -1.9997
11474TIP3   OH255836   0.057   3.199   3.729  0.4170 -0.4565 -0.3416
11474TIP3    H155837   0.058   3.262   3.657 -0.6437  0.3194  0.2727
11474TIP3    H255838  -0.001   3.130   3.699  0.7200 -0.6014 -0.5961
11475TIP3   OH255839   5.179   3.129   5.973 -0.0053 -0.1803  0.3492
11475TIP3    H155840   5.159   3.198   5.910 -1.9826 -0.5489  0.5288
11475TIP3    H255841   5.150   3.048   5.931  0.4936 -0.6864  0.9434
11476TIP3   OH255842   1.277   1.939   1.562  0.1364  0.2725  0.5318
11476TIP3    H155843   1.197   1.949   1.512  0.4059  0.2571  0.0959
11476TIP3    H255844   1.323   2.022   1.551  0.7222 -0.1327 -0.1834
11477TIP3   OH255845   0.924   1.766   1.825  0.0808 -0.4415  0.5850
11477TIP3    H155846   0.856   1.745   1.890  0.3814 -0.8575  0.7699
11477TIP3    H255847   0.967   1.682   1.807 -1.6685 -0.8895 -2.1111
11478TIP3   OH255848   3.958   1.664   3.654 -0.2275  0.4494 -0.5115
11478TIP3    H155849   4.008   1.592   3.691 -1.9391  0.2356  1.5407
11478TIP3    H255850   3.879   1.624   3.620 -0.7526  1.2374 -0.2401
11479TIP3   OH255851   5.750   1.023   4.301  0.4487 -0.9775 -0.3951
11479TIP3    H155852   5.779   1.066   4.221  1.6774  1.2538  1.1351
11479TIP3    H255853   5.810   1.055   4.368 -1.8661 -0.9763  1.8387
11480TIP3   OH255854   5.606   1.638   0.737 -0.0761 -0.0673  0.5383
11480TIP3    H155855   5.589   1.732   0.746 -2.1973 -0.4064  0.4024
11480TIP3    H255856   5.525   1.602   0.701  1.2700 -1.7186 -1.0299
11481TIP3   OH255857   3.517   5.268   4.390 -0.1820  0.5012 -0.0357
11481TIP3    H155858   3.525   5.177   4.361 -0.1282  0.2524  0.7253
11481TIP3    H255859   3.487   5.316   4.313  0.8082  0.0215 -0.7410
11482TIP3   OH255860   4.502   4.085   2.480 -0.4619 -0.5486 -0.0264
11482TIP3    H155861   4.525   4.142   2.553  2.9914 -1.4307 -0.2768
11482TIP3    H255862   4.555   4.118   2.407 -2.3917 -0.8772 -1.6538
11483TIP3   OH255863   1.401   5.944  14.391 -0.1794  0.4632  0.0241
11483TIP3    H155864   1.488   5.965  14.424 -0.5887  1.7278  0.3582
11483TIP3    H255865   1.382   6.012  14.327 -0.3223 -0.6766 -1.1821
11484TIP3   OH255866   0.741   5.664  13.487 -0.2830  0.3298 -0.4793
11484TIP3    H155867   0.707   5.650  13.399 -1.0445 -0.7826 -0.0255
11484TIP3    H255868   0.817   5.606  13.494  0.2675  1.0164 -0.6678
11485TIP3   OH255869   5.770   2.048   3.048 -0.1237  0.1507  0.3412
11485TIP3    H155870   5.743   2.068   2.959  3.0215 -1.2579 -1.0756
11485TIP3    H255871   5.801   2.132   3.083  1.5391  0.1917 -1.0887
11486TIP3   OH255872   5.767   2.270   0.326 -0.1284 -0.3134 -0.3606
11486TIP3    H155873   5.817   2.314   0.395 -1.3095  0.3370  0.1144
11486TIP3    H255874   5.775   2.328   0.250 -2.7528  1.5242  0.6275
11487TIP3   OH255875   5.808   5.868   6.012  0.2351 -0.5913  0.6638
11487TIP3    H155876   5.782   5.865   5.920 -0.2186  1.4460  0.6577
11487TIP3    H255877   5.857   5.788   6.027  0.7453 -0.7212 -1.4849
11488TIP3   OH255878   1.679   1.766   1.486  0.3332 -0.0989 -0.2662
11488TIP3    H155879   1.584   1.758   1.495  0.1631  0.5997 -1.2605
11488TIP3    H255880   1.705   1.688   1.436  0.2102 -0.0260 -0.4444
11489TIP3   OH255881   2.411   1.295   2.045 -0.2688  0.4088 -0.1512
11489TIP3    H155882   2.366   1.247   1.976 -1.6467  1.1301  0.2220
11489TIP3    H255883   2.493   1.247   2.057 -0.8270 -0.8154 -0.9909
11490TIP3   OH255884   2.285   0.329   3.707 -0.2052  0.3665 -0.7377
11490TIP3    H155885   2.242   0.374   3.634  1.2647  1.3096 -1.0641
11490TIP3    H255886   2.378   0.339   3.690  0.1947 -1.7142 -0.1200
11491TIP3   OH255887   0.683   6.467  16.613  0.2576 -0.2505 -0.8320
11491TIP3    H155888   0.637   6.494  16.692  1.1512 -2.0427  0.3567
11491TIP3    H255889   0.623   6.488  16.542 -2.1117 -1.8099  0.5893
11492TIP3   OH255890   1.092   6.090   5.375  0.5004 -0.4234 -0.2296
11492TIP3    H155891   1.106   6.043   5.457  0.1811  1.2374  0.8019
11492TIP3    H255892   1.166   6.150   5.368 -0.3834  0.6850 -0.2560
11493TIP3   OH255893   1.831   2.599  14.837  0.2641 -0.1532  0.8704
11493TIP3    H155894   1.880   2.665  14.788  1.3964 -0.0586  2.0389
11493TIP3    H255895   1.749   2.589  14.790  0.1116  1.9880  0.5619
11494TIP3   OH255896   4.949   3.580   0.268  0.3456  0.7480  0.4919
11494TIP3    H155897   4.922   3.653   0.212  0.0937  1.1853  1.1590
11494TIP3    H255898   4.907   3.599   0.352  0.2589 -0.1869  0.6654
11495TIP3   OH255899   4.464   4.644   3.548  0.3890  0.0556 -0.1601
11495TIP3    H155900   4.549   4.629   3.506 -0.1388  0.9122 -1.6329
11495TIP3    H255901   4.422   4.558   3.549 -0.3990  0.2771 -3.3978
11496TIP3   OH255902   4.441   4.353   4.946  0.2732  0.0728 -0.1143
11496TIP3    H155903   4.378   4.358   4.874 -0.0419  0.4195  0.1839
11496TIP3    H255904   4.524   4.330   4.903 -0.0186 -0.2445 -0.5269
11497TIP3   OH255905   5.448   4.793  11.420  0.0369  0.2813  0.4953
11497TIP3    H155906   5.469   4.704  11.392 -1.1962 -0.6693  2.4426
11497TIP3    H255907   5.352   4.796  11.420  0.0407  2.0251 -0.6812
11498TIP3   OH255908   3.295   1.562  12.226 -0.4222  0.2734 -0.1170
11498TIP3    H155909   3.343   1.485  12.195 -0.4687  0.3123 -0.2838
11498TIP3    H255910   3.362   1.631  12.233 -0.0488 -0.2088  1.5990
11499TIP3   OH255911   3.270   0.049   0.835 -0.5983 -0.7798  0.0712
11499TIP3    H155912   3.302  -0.041   0.827 -0.3844 -0.6431 -0.7527
11499TIP3    H255913   3.319   0.097   0.768 -0.2022  0.0986  0.9729
11500TIP3   OH255914   0.194   2.166   5.198 -0.1339 -0.3654  0.2661
11500TIP3    H155915   0.258   2.159   5.126  1.3037  1.0739  1.3323
11500TIP3    H255916   0.114   2.198   5.155  0.3523 -0.5767 -0.8497
11501TIP3   OH255917   2.867   4.707   5.189  0.2939 -0.0209 -0.3630
11501TIP3    H155918   2.898   4.784   5.142  3.9167 -0.8412  0.3760
11501TIP3    H255919   2.852   4.642   5.120  1.2489  0.1366 -0.7356
11502TIP3   OH255920   0.586   3.891  12.086 -0.4466 -0.4881 -0.1530
11502TIP3    H155921   0.537   3.965  12.120  1.3485  0.2437  0.9846
11502TIP3    H255922   0.554   3.816  12.135 -1.5621 -0.3285 -0.5995
11503TIP3   OH255923   2.908   5.966  13.525 -0.6197 -0.3998 -0.5766
11503TIP3    H155924   2.974   5.989  13.459  0.1992 -1.0981 -0.0289
11503TIP3    H255925   2.922   5.873  13.541 -2.6252 -0.9028 -1.3811
11504TIP3   OH255926   5.524   3.651   3.617  0.3863  0.0338  0.8965
11504TIP3    H155927   5.592   3.715   3.637  0.9841 -0.3902  0.2646
11504TIP3    H255928   5.559   3.601   3.543 -0.6966 -0.0593  0.4351
11505TIP3   OH255929   2.595   3.200  11.973 -0.4587 -0.1863  0.3220
11505TIP3    H155930   2.663   3.160  12.027  0.0541 -2.4305 -1.7822
11505TIP3    H255931   2.539   3.246  12.035  2.6007  1.2910  2.2012
11506TIP3   OH255932   4.007   5.370  16.120  0.2498  0.3001  0.3552
11506TIP3    H155933   3.925   5.396  16.079  0.1306 -1.0987 -0.3776
11506TIP3    H255934   3.980   5.325  16.200  0.3758  0.9315  0.7614
11507TIP3   OH255935   0.873   3.026  14.856 -0.7289  0.7028  0.9414
11507TIP3    H155936   0.840   3.111  14.884 -0.2251  0.9415  0.8212
11507TIP3    H255937   0.963   3.043  14.827 -0.9782  0.3334 -0.1236
11508TIP3   OH255938   1.501   5.283  17.140 -0.3345  0.4130  0.0260
11508TIP3    H155939   1.572   5.308  17.080  0.3164  1.6200  1.2265
11508TIP3    H255940   1.431   5.252  17.083  0.8205  0.0537 -1.2607
11509TIP3   OH255941   2.780   5.272   4.445  0.0461 -0.0309  0.2446
11509TIP3    H155942   2.817   5.197   4.399 -0.8332  0.1565 -0.8064
11509TIP3    H255943   2.825   5.273   4.529  1.7355 -0.3641 -0.6142
11510TIP3   OH255944   3.255   2.003  13.987 -0.2731 -0.1756  0.5308
11510TIP3    H155945   3.214   1.926  14.026 -0.3198 -0.1957  0.4430
11510TIP3    H255946   3.188   2.072  13.993 -1.7688 -1.1099 -2.8774
11511TIP3   OH255947   4.507   0.414  13.108 -0.4853 -0.4489 -0.2672
11511TIP3    H155948   4.413   0.398  13.114 -0.5447 -0.5181 -1.1853
11511TIP3    H255949   4.514   0.505  13.078 -0.2419 -0.2726  0.3033
11512TIP3   OH255950   2.588   2.130  16.926 -0.5623 -0.7115 -0.3588
11512TIP3    H155951   2.670   2.095  16.892 -0.9378 -0.4966 -1.5504
11512TIP3    H255952   2.521   2.094  16.868 -1.1841  0.0629 -0.1397
11513TIP3   OH255953   2.620   4.635   1.489  0.1797  0.5739 -0.0186
11513TIP3    H155954   2.589   4.660   1.402  3.2455  2.8067 -0.6656
11513TIP3    H255955   2.709   4.604   1.474  0.5579  0.3864  2.2783
11514TIP3   OH255956   5.539   2.111   1.034  0.1460  0.0603  0.7502
11514TIP3    H155957   5.448   2.100   1.063  0.6870 -1.2194  2.0818
11514TIP3    H255958   5.540   2.196   0.990 -1.4485  0.5817  1.6396
11515TIP3   OH255959   6.489   4.647   0.639 -0.3666 -0.3851 -0.5978
11515TIP3    H155960   6.554   4.598   0.589  0.3485 -0.2036  0.1348
11515TIP3    H255961   6.422   4.582   0.661  0.2547 -0.8920 -0.1813
11516TIP3   OH255962   5.664   1.703  13.149 -0.3287 -0.1407 -0.2936
11516TIP3    H155963   5.717   1.632  13.184 -0.5260 -0.6658 -1.0420
11516TIP3    H255964   5.636   1.752  13.226  0.2363 -0.5696  0.1911
11517TIP3   OH255965   0.165   6.666  14.950 -0.1321  0.1733  0.2413
11517TIP3    H155966   0.157   6.733  14.882 -1.5883  0.1203  0.3281
11517TIP3    H255967   0.247   6.687  14.995  2.9484 -1.9363 -3.7453
11518TIP3   OH255968   5.049   3.198   1.954 -0.6112 -0.3220 -0.6768
11518TIP3    H155969   4.992   3.167   1.883  1.1787 -1.5973 -1.6503
11518TIP3    H255970   5.047   3.128   2.019 -1.3994  0.3630  0.0563
11519TIP3   OH255971   6.683   4.789   0.244  0.5167  0.3969 -0.0209
11519TIP3    H155972   6.618   4.721   0.262  1.1193 -0.0592  0.4834
11519TIP3    H255973   6.756   4.767   0.302  0.2645  2.1394  1.0139
11520TIP3   OH255974   3.460   2.757  13.181  0.0694 -0.2153  0.3923
11520TIP3    H155975   3.540   2.796  13.147  0.0211  1.7093  2.2864
11520TIP3    H255976   3.422   2.712  13.106  2.9895 -1.4047 -0.5133
11521TIP3   OH255977   4.799   5.320  13.659 -0.4241  0.2187  0.0479
11521TIP3    H155978   4.781   5.385  13.591 -0.5120 -0.6532 -0.7753
11521TIP3    H255979   4.761   5.359  13.738 -1.5859  0.6348 -0.6736
11522TIP3   OH255980   6.314   3.886   0.635  0.4939  0.2071  0.0621
11522TIP3    H155981   6.256   3.958   0.612  0.2646  0.0834  0.2446
11522TIP3    H255982   6.401   3.926   0.641  0.3143  0.5422  0.5180
11523TIP3   OH255983   2.473   0.313  11.335  0.0250 -0.4087  0.0224
11523TIP3    H155984   2.433   0.400  11.331 -0.9873 -0.8763 -0.3210
11523TIP3    H255985   2.430   0.269  11.408 -0.6731 -1.1874 -0.8339
11524TIP3   OH255986   4.147   6.269   6.659  0.0870  0.4565 -0.3758
11524TIP3    H155987   4.075   6.207   6.646  0.8443 -0.8400  1.2928
11524TIP3    H255988   4.112   6.333   6.721  0.3997 -0.3286  0.6527
11525TIP3   OH255989   0.953   1.660  17.457  0.0597  0.0285 -0.1031
11525TIP3    H155990   1.008   1.639  17.382 -0.2294 -0.3918 -0.1994
11525TIP3    H255991   0.882   1.595  17.454  1.4785 -1.7653  2.1128
11526TIP3   OH255992   0.901   4.397  16.094  0.5770 -0.6429  0.2517
11526TIP3    H155993   0.807   4.405  16.080  0.7928  0.1468 -0.9550
11526TIP3    H255994   0.916   4.304  16.107 -0.2956 -0.8606 -0.2167
11527TIP3   OH255995   6.613   0.594   1.756 -0.1360 -0.3595 -0.1894
11527TIP3    H155996   6.539   0.615   1.813 -0.1766 -0.0276 -0.3631
11527TIP3    H255997   6.688   0.587   1.815 -0.3267 -0.8138  0.0018
11528TIP3   OH255998   0.702   3.504  12.908 -0.1915 -0.0808 -0.2780
11528TIP3    H155999   0.608   3.507  12.886 -0.2122 -0.4612 -0.2477
11528TIP3    H256000   0.731   3.595  12.901 -0.6946  0.1320  0.2971
11529TIP3   OH256001   0.465   5.805   2.146  0.1449  0.3030  0.1659
11529TIP3    H156002   0.514   5.759   2.214  0.6399  0.2229 -0.2415
11529TIP3    H256003   0.374   5.797   2.173  0.3083 -0.0359  0.6334
11530TIP3   OH256004   2.020   2.077  12.875  0.8856  0.7924 -0.1515
11530TIP3    H156005   2.015   2.173  12.880  1.0828  0.8063 -0.2401
11530TIP3    H256006   1.929   2.048  12.885  0.7897  1.0025 -0.4007
11531TIP3   OH256007   1.069   1.863  12.675  0.5734 -0.0504  0.1253
11531TIP3    H156008   1.019   1.795  12.631  0.1459 -0.5833  1.4011
11531TIP3    H256009   1.151   1.820  12.700  0.5492  0.0606  0.4040
11532TIP3   OH256010   1.752   3.739  14.625  0.5436 -0.3048  0.4983
11532TIP3    H156011   1.841   3.776  14.627  0.2670  0.5267 -1.0272
11532TIP3    H256012   1.718   3.763  14.539 -0.7950 -1.5196  0.6541
11533TIP3   OH256013   5.113   1.324   0.660 -0.1290  0.2839 -0.3915
11533TIP3    H156014   5.054   1.399   0.651  0.6194  1.2855  2.1562
11533TIP3    H256015   5.117   1.309   0.755  1.1033 -1.8986 -0.7418
11534TIP3   OH256016   0.291   0.538   1.675  0.4392 -0.6020 -0.1273
11534TIP3    H156017   0.246   0.454   1.664 -2.5948  0.8197  0.2310
11534TIP3    H256018   0.261   0.570   1.760  1.4773  0.8717 -0.2788
11535TIP3   OH256019   5.062   0.024   3.856 -0.6120 -0.0263  0.4337
11535TIP3    H156020   4.983  -0.001   3.904 -2.3441  2.2163 -1.0344
11535TIP3    H256021   5.046  -0.007   3.767  0.4875 -0.1180  0.2552
11536TIP3   OH256022   2.307   5.329   5.733 -0.2882 -0.1105 -0.2238
11536TIP3    H156023   2.388   5.304   5.690 -0.2694 -1.2719  0.4640
11536TIP3    H256024   2.310   5.425   5.735  0.3042 -0.0696 -1.6148
11537TIP3   OH256025   0.026   1.570  13.348  0.4195  0.1128 -0.1438
11537TIP3    H156026   0.068   1.485  13.359 -1.6817 -1.0252 -0.4781
11537TIP3    H256027   0.043   1.594  13.257  0.3805 -0.3187 -0.2668
11538TIP3   OH256028   5.968   6.141   4.704 -0.7214  0.5929  0.3672
11538TIP3    H156029   6.010   6.189   4.776  0.4033  0.7209 -0.3691
11538TIP3    H256030   6.038   6.091   4.663 -1.3892  0.3579 -0.5228
11539TIP3   OH256031   5.611   3.857  17.454  0.5389  0.3369  0.3240
11539TIP3    H156032   5.678   3.820  17.512  0.6557 -0.7704 -0.4871
11539TIP3    H256033   5.657   3.877  17.373  0.2830  1.4738  0.4382
11540TIP3   OH256034   2.750   0.710   2.535 -0.1790 -0.0818 -0.1317
11540TIP3    H156035   2.733   0.803   2.550 -0.5874 -0.2396  0.4286
11540TIP3    H256036   2.751   0.701   2.440  1.5614  0.7905 -0.2212
11541TIP3   OH256037   4.885   3.783   4.834 -0.5169 -0.1071 -0.1661
11541TIP3    H156038   4.803   3.793   4.883  0.4709 -0.6432  1.6538
11541TIP3    H256039   4.857   3.750   4.748 -2.1240 -1.4133  0.8036
11542TIP3   OH256040   0.093   4.822  13.893 -0.5234  0.1546  0.4425
11542TIP3    H156041   0.166   4.814  13.954  0.5951  2.4050 -0.4673
11542TIP3    H256042   0.126   4.790  13.810 -0.4902  1.2476  0.0090
11543TIP3   OH256043   6.048   0.510  14.668  0.4105 -0.0910  0.1602
11543TIP3    H156044   5.989   0.435  14.658  0.1348  0.2689 -1.1887
11543TIP3    H256045   6.089   0.520  14.582 -0.1468  1.7664  0.0471
11544TIP3   OH256046   6.344   5.952  16.783 -0.0153  0.0261  0.6356
11544TIP3    H156047   6.412   5.944  16.717 -0.8004 -1.8716 -0.0059
11544TIP3    H256048   6.263   5.966  16.734 -0.2587  1.4231  1.3571
11545TIP3   OH256049   6.706   0.224  11.883 -0.4189 -0.1735  0.5082
11545TIP3    H156050   6.704   0.138  11.842 -0.4146  0.3240 -0.5621
11545TIP3    H256051   6.753   0.280  11.821 -1.8267  0.9771  0.4252
11546TIP3   OH256052   1.998   3.149   2.423 -0.0449 -0.7382  0.1720
11546TIP3    H156053   1.903   3.151   2.438  0.1340 -1.7573  1.6296
11546TIP3    H256054   2.028   3.237   2.449 -0.4546 -0.7672  0.7559
11547TIP3   OH256055   1.676   0.486   1.563  0.9721 -0.5270  0.1139
11547TIP3    H156056   1.616   0.560   1.552  0.8936 -0.4063  1.2076
11547TIP3    H256057   1.753   0.524   1.606  0.8611 -1.1137  0.8389
11548TIP3   OH256058   4.199   3.933  13.187 -0.9334  0.0075 -0.6986
11548TIP3    H156059   4.247   3.942  13.105 -0.3422  0.7775 -0.2799
11548TIP3    H256060   4.108   3.920  13.160 -0.6472 -0.4234 -1.4826
11549TIP3   OH256061   4.380   0.207  12.047 -0.4505 -0.0229 -0.0697
11549TIP3    H156062   4.475   0.218  12.057 -0.2753 -0.6831 -0.9091
11549TIP3    H256063   4.344   0.244  12.127  0.4765  0.8048 -0.0136
11550TIP3   OH256064   3.532   5.496  15.949  0.4178  0.0825  0.1430
11550TIP3    H156065   3.500   5.495  15.859 -1.2454  0.2683  0.6827
11550TIP3    H256066   3.529   5.405  15.977 -0.0133  0.1404  0.3006
11551TIP3   OH256067   5.261   4.636   4.597  0.2789 -0.8533 -0.1813
11551TIP3    H156068   5.336   4.690   4.573 -0.8037  2.3179  2.7880
11551TIP3    H256069   5.300   4.556   4.633  2.5009  1.4756  3.1066
11552TIP3   OH256070   6.394   6.349   1.508  0.3048  0.5768 -0.1123
11552TIP3    H156071   6.385   6.437   1.471 -2.6140  0.6272  0.4552
11552TIP3    H256072   6.348   6.353   1.592  0.3923 -1.3963  0.0836
11553TIP3   OH256073   4.620   1.850   3.874 -0.1638 -0.3552  0.2111
11553TIP3    H156074   4.527   1.873   3.872  0.4414  2.4068 -1.7694
11553TIP3    H256075   4.623   1.761   3.839 -2.1343 -1.1342  1.8197
11554TIP3   OH256076   6.462   0.350   3.062  0.3771  0.0176 -0.6862
11554TIP3    H156077   6.422   0.378   2.980  0.3609  0.5795 -0.4857
11554TIP3    H256078   6.394   0.300   3.106  0.1256  0.3939 -0.6520
11555TIP3   OH256079   0.027   5.891   1.571 -0.2793  0.1592 -0.9618
11555TIP3    H156080   0.068   5.977   1.571 -0.1575  0.1768  1.8922
11555TIP3    H256081  -0.025   5.889   1.490 -0.5608  3.0329 -0.9299
11556TIP3   OH256082   3.338   3.728   3.713  0.5223  0.6537 -0.0810
11556TIP3    H156083   3.327   3.792   3.643 -1.6394  0.5891  0.1373
11556TIP3    H256084   3.303   3.647   3.677  1.6872 -0.0199  0.2392
11557TIP3   OH256085   2.420   6.445  17.126 -0.2296 -0.5596 -0.2902
11557TIP3    H156086   2.371   6.468  17.206 -0.4535 -1.5495 -0.1319
11557TIP3    H256087   2.358   6.395  17.073  0.4151 -1.3057 -0.3605
11558TIP3   OH256088   4.900   6.587   3.211  0.2852  0.4221 -0.5392
11558TIP3    H156089   4.891   6.492   3.207 -0.0768  0.4564 -0.5664
11558TIP3    H256090   4.811   6.619   3.226  0.4685  0.7300 -0.0738
11559TIP3   OH256091   3.787   6.216   6.704 -0.2273 -0.2510  0.5543
11559TIP3    H156092   3.769   6.243   6.794 -2.2189 -0.6273  0.3007
11559TIP3    H256093   3.781   6.297   6.653 -2.7248 -0.5246  0.2942
11560TIP3   OH256094   1.299   6.471   1.803  0.2362  0.8867  0.4215
11560TIP3    H156095   1.300   6.563   1.830  2.1918  0.9560  0.2670
11560TIP3    H256096   1.362   6.428   1.862  0.8872  0.0636 -0.8285
11561TIP3   OH256097   4.711   5.079   0.454  0.5419  0.0334  0.7274
11561TIP3    H156098   4.656   5.101   0.529  1.7882 -1.9590  2.3591
11561TIP3    H256099   4.781   5.026   0.491  0.8636 -1.6152 -1.9644
11562TIP3   OH256100   5.387   0.268   0.395  0.0204  0.8798 -0.2266
11562TIP3    H156101   5.463   0.239   0.447 -0.7208  1.5186  1.2832
11562TIP3    H256102   5.419   0.272   0.305  1.6133  0.5523  0.2996
11563TIP3   OH256103   3.720   5.377   6.532 -0.2764 -0.2087  0.3968
11563TIP3    H156104   3.767   5.412   6.457 -3.1937 -0.4150 -1.7130
11563TIP3    H256105   3.692   5.454   6.581 -1.1734  0.1371 -0.6226
11564TIP3   OH256106   0.094   3.756  13.987 -0.1114  0.1381  0.4974
11564TIP3    H156107   0.145   3.837  13.989 -1.6570  1.1341  0.7414
11564TIP3    H256108   0.123   3.713  13.906  0.1344  1.3350 -0.0829
11565TIP3   OH256109   1.459   0.770  14.893 -0.4029 -0.0727 -0.1674
11565TIP3    H156110   1.460   0.681  14.928  0.1125  0.1528  0.4227
11565TIP3    H256111   1.439   0.759  14.800  1.5553 -0.9784 -0.5390
11566TIP3   OH256112   0.265   2.212   1.243  0.0756  0.2972  0.5613
11566TIP3    H156113   0.201   2.276   1.212 -1.4533 -1.7744 -0.8566
11566TIP3    H256114   0.343   2.228   1.191  0.0216  1.5459  0.8451
11567TIP3   OH256115   0.460   5.667   1.465 -0.1141  0.0708 -0.7782
11567TIP3    H156116   0.439   5.681   1.372  1.8666  0.2442 -1.2534
11567TIP3    H256117   0.546   5.709   1.476 -0.3350  0.0818  1.1554
11568TIP3   OH256118   1.965   6.535  15.263 -0.2692 -0.2098 -0.2531
11568TIP3    H156119   1.942   6.563  15.175 -1.9393 -0.9654 -0.0905
11568TIP3    H256120   2.055   6.502  15.255  0.1870  1.1853 -1.3081
11569TIP3   OH256121   6.640   6.065   0.346 -0.2991  0.1879 -0.6200
11569TIP3    H156122   6.614   6.029   0.261 -0.2234 -2.2336  0.3214
11569TIP3    H256123   6.557   6.081   0.392 -0.3229 -1.4616 -0.0265
11570TIP3   OH256124   0.858   1.956  15.004 -0.2696  0.6591  0.2768
11570TIP3    H156125   0.896   1.872  15.030 -0.4956  0.6597  0.6140
11570TIP3    H256126   0.907   2.021  15.054 -0.9599  0.6336  1.0085
11571TIP3   OH256127   6.712   2.892   4.817  0.0709  0.0486 -0.3637
11571TIP3    H156128   6.629   2.853   4.791 -0.3326  0.8288 -0.2771
11571TIP3    H256129   6.776   2.822   4.806 -0.7566 -0.8883  0.5542
11572TIP3   OH256130   1.162   2.579  13.635  0.1303  0.0324 -0.6799
11572TIP3    H156131   1.173   2.492  13.597  2.2729  0.5033 -1.2796
11572TIP3    H256132   1.185   2.569  13.727 -0.7563 -0.2353 -0.4758
11573TIP3   OH256133   4.421   0.893   1.652  0.0605  1.0662 -0.2940
11573TIP3    H156134   4.508   0.891   1.692  0.1701 -0.9167 -0.5001
11573TIP3    H256135   4.434   0.937   1.568  1.1393 -0.2032 -0.8266
11574TIP3   OH256136   6.511   1.685   5.360 -0.0557  0.1610 -0.0207
11574TIP3    H156137   6.448   1.744   5.402 -1.6009  0.1154 -2.1129
11574TIP3    H256138   6.477   1.673   5.271  0.3404 -3.6164  0.1624
11575TIP3   OH256139   6.070   4.007   5.724  0.1627 -0.3730  0.3354
11575TIP3    H156140   6.133   4.061   5.772 -1.0582 -0.8123  2.5623
11575TIP3    H256141   6.053   3.933   5.782 -0.9712 -1.2474 -1.0581
11576TIP3   OH256142   5.427   0.305   2.824 -1.1101  0.7732 -0.7994
11576TIP3    H156143   5.482   0.231   2.850 -0.3483  1.4315 -0.5060
11576TIP3    H256144   5.337   0.275   2.841 -0.8963 -0.5081 -1.7868
11577TIP3   OH256145   2.639   1.229   0.400  0.0404  0.0480  0.5936
11577TIP3    H156146   2.678   1.228   0.312  1.5806 -0.9486  1.2586
11577TIP3    H256147   2.665   1.146   0.439 -0.8262  0.3723  1.9181
11578TIP3   OH256148   5.327   4.714   6.047  0.0054  0.0028  0.1385
11578TIP3    H156149   5.325   4.755   6.134  3.3960 -0.3514  0.5070
11578TIP3    H256150   5.407   4.662   6.047 -1.7142 -2.9197 -2.0014
11579TIP3   OH256151   0.839   3.329  14.683 -0.2615 -0.0128  0.1664
11579TIP3    H156152   0.750   3.318  14.651 -0.7459  0.2543  1.3737
11579TIP3    H256153   0.832   3.394  14.753  0.6007 -1.0985  1.3290
11580TIP3   OH256154   0.541   3.130  11.734  0.2553  0.7264 -0.3946
11580TIP3    H156155   0.611   3.069  11.712 -0.3286  0.5752 -1.9810
11580TIP3    H256156   0.576   3.184  11.805  1.7618  0.3010 -0.7978
11581TIP3   OH256157   5.635   5.926  15.857 -0.0636 -0.0761  0.1004
11581TIP3    H156158   5.575   5.880  15.798 -0.8247  0.1236  0.7052
11581TIP3    H256159   5.719   5.927  15.810 -0.1978 -1.4697 -0.2087
11582TIP3   OH256160   3.417   5.083  16.829  0.0142  0.2844 -0.2012
11582TIP3    H156161   3.326   5.102  16.805  0.3225  1.7807 -0.2732
11582TIP3    H256162   3.410   5.040  16.914 -0.7179  1.6324  0.4653
11583TIP3   OH256163   2.270   0.881   1.810  0.8418  0.3095 -0.2887
11583TIP3    H156164   2.212   0.828   1.756  0.3226  0.1896  0.3728
11583TIP3    H256165   2.353   0.832   1.812  0.5512 -0.1805 -0.1681
11584TIP3   OH256166   1.006   4.665  14.439  0.2143 -0.0458  0.2593
11584TIP3    H156167   1.068   4.597  14.413  0.9485  0.3115  1.0244
11584TIP3    H256168   0.959   4.627  14.514  0.2571  0.0942  0.3567
11585TIP3   OH256169   4.420   4.978  12.217  0.1957 -0.5771 -0.1472
11585TIP3    H156170   4.359   4.925  12.268 -1.8775  0.1312 -1.7511
11585TIP3    H256171   4.444   5.050  12.275  1.2750 -1.9747  1.2491
11586TIP3   OH256172   6.109   1.935   0.195  0.2701 -0.4725 -0.0725
11586TIP3    H156173   6.071   2.021   0.212  0.7195 -0.0709 -1.0230
11586TIP3    H256174   6.053   1.874   0.242  0.4085  0.4024  1.2931
11587TIP3   OH256175   2.925   4.309   2.490  0.0115  0.2574 -0.1201
11587TIP3    H156176   2.954   4.239   2.549  0.0397  0.7339  0.4455
11587TIP3    H256177   2.992   4.376   2.497  0.4391 -0.0213 -1.3429
11588TIP3   OH256178   3.997   1.678  11.783 -0.2085  0.6357  0.1044
11588TIP3    H156179   3.930   1.678  11.715  0.2822  0.4456 -0.3830
11588TIP3    H256180   4.015   1.770  11.800 -0.5524  0.6873  0.2019
11589TIP3   OH256181   3.049   5.378  12.947  0.4887  0.0138  0.0622
11589TIP3    H156182   3.004   5.302  12.984 -0.4651  0.1628 -0.7319
11589TIP3    H256183   3.141   5.366  12.971  0.1336 -0.6188  1.2198
11590TIP3   OH256184   4.914   4.791   6.154  0.1406 -0.0815  0.1949
11590TIP3    H156185   4.864   4.743   6.219 -0.2599  0.4905  0.3190
11590TIP3    H256186   4.856   4.862   6.126 -0.0193 -0.8239 -1.4232
11591TIP3   OH256187   3.120   0.840  11.930 -0.2888 -0.3046  0.3397
11591TIP3    H156188   3.087   0.849  11.840 -0.3786  0.4524  0.4408
11591TIP3    H256189   3.124   0.745  11.944  0.0178 -0.4431 -0.5726
11592TIP3   OH256190   6.292   4.217  13.831  0.3435  0.2418 -0.3836
11592TIP3    H156191   6.335   4.135  13.805 -2.0622 -1.3839  0.4260
11592TIP3    H256192   6.209   4.217  13.783 -1.4928  0.1536  2.5533
11593TIP3   OH256193   5.177   3.703   5.479 -0.1915  0.2741  0.1358
11593TIP3    H156194   5.254   3.759   5.490 -0.5819  0.9565 -0.5410
11593TIP3    H256195   5.162   3.700   5.385 -1.9014  1.4452  0.3032
11594TIP3   OH256196   5.800   5.860   0.342  0.2647  0.1284 -0.5322
11594TIP3    H156197   5.878   5.882   0.291 -0.2667  0.9755 -1.0008
11594TIP3    H256198   5.733   5.921   0.311 -0.8009 -1.0769 -0.6848
11595TIP3   OH256199   5.563   3.296  14.806 -0.8207  0.1637 -0.0908
11595TIP3    H156200   5.643   3.243  14.808  0.3267  1.8169  1.8660
11595TIP3    H256201   5.514   3.262  14.731  0.9864 -1.9368 -0.4347
11596TIP3   OH256202   2.553   4.582   5.345  0.0244  0.1495 -0.0183
11596TIP3    H156203   2.601   4.555   5.423 -0.9595  0.7168  0.8153
11596TIP3    H256204   2.575   4.675   5.335  0.7122 -0.0947 -0.8507
11597TIP3   OH256205   0.406   6.187  15.720 -0.2816 -0.0858  0.4982
11597TIP3    H156206   0.419   6.275  15.757 -0.7296  0.7902 -1.2688
11597TIP3    H256207   0.494   6.157  15.699 -0.0371 -0.5198  2.0192
11598TIP3   OH256208   2.561   5.418   2.854  0.0698 -0.2486 -0.0805
11598TIP3    H156209   2.532   5.337   2.813 -0.9282  0.8304 -1.6422
11598TIP3    H256210   2.620   5.458   2.789 -2.7432  2.2453 -1.3402
11599TIP3   OH256211   1.236   6.199  12.895 -0.4441  0.5201 -0.0183
11599TIP3    H156212   1.254   6.150  12.815  0.5002  1.9008 -0.6890
11599TIP3    H256213   1.242   6.134  12.965 -1.0721 -0.6615 -1.0295
11600TIP3   OH256214   6.110   3.465   1.055  0.3255  0.1871  0.0588
11600TIP3    H156215   6.203   3.487   1.051  0.2186  0.5228 -0.6800
11600TIP3    H256216   6.066   3.538   1.012 -0.0900 -1.0340 -1.7181
11601TIP3   OH256217   3.503   4.084  13.417  0.4665  0.5270  0.2537
11601TIP3    H156218   3.497   4.022  13.490  1.0194  2.1859  1.7750
11601TIP3    H256219   3.593   4.076  13.387  1.3094  2.2118  2.0560
11602TIP3   OH256220   4.550   2.194  14.585  0.2029  0.7395 -0.1120
11602TIP3    H156221   4.504   2.159  14.662  0.7716  2.2741  0.9475
11602TIP3    H256222   4.615   2.127  14.564  1.0925  0.9712  1.7148
11603TIP3   OH256223   6.664   4.913  15.510  0.4291  0.4281  0.4260
11603TIP3    H156224   6.629   4.960  15.585  1.5947 -1.2398  2.0890
11603TIP3    H256225   6.593   4.914  15.446 -1.0880  0.7651  2.0255
11604TIP3   OH256226   4.918   0.349  13.704 -0.0172  0.2545  0.1937
11604TIP3    H156227   4.825   0.324  13.698  0.3684 -0.9704 -1.7790
11604TIP3    H256228   4.957   0.313  13.624  2.5332 -0.7576  1.7798
11605TIP3   OH256229   3.563   6.166  14.826 -0.3830  0.1294 -0.1422
11605TIP3    H156230   3.609   6.143  14.907 -0.3568  1.4062  0.2345
11605TIP3    H256231   3.633   6.191  14.766 -0.3609 -1.3349 -0.7699
11606TIP3   OH256232   0.554   4.302   4.243  0.2044 -0.2198 -0.3973
11606TIP3    H156233   0.577   4.231   4.302 -0.0549  0.7105  0.8652
11606TIP3    H256234   0.580   4.381   4.289  0.1953  0.5392 -1.6323
11607TIP3   OH256235   4.696   2.830   3.562  0.0525 -0.3680 -0.0758
11607TIP3    H156236   4.759   2.817   3.492  0.7112 -0.2344  0.4716
11607TIP3    H256237   4.632   2.892   3.526  0.9982  0.5804 -0.1983
11608TIP3   OH256238   4.533   0.163  15.994 -0.5845  0.2194  0.3119
11608TIP3    H156239   4.578   0.120  15.922  0.7777 -0.1493  1.3341
11608TIP3    H256240   4.531   0.256  15.970 -0.3701  0.0617 -0.3185
11609TIP3   OH256241   6.249   6.677   4.352  0.9693 -0.5190  0.6444
11609TIP3    H156242   6.181   6.608   4.351  0.8254 -0.3860  1.2285
11609TIP3    H256243   6.207   6.752   4.311  0.2336  0.0468  2.3507
11610TIP3   OH256244   2.922   2.903   0.873  0.3555 -0.2947 -0.2803
11610TIP3    H156245   2.913   2.975   0.935  0.1241  0.0832 -0.7467
11610TIP3    H256246   2.886   2.827   0.918  0.6621 -0.1355  0.2409
11611TIP3   OH256247   3.355   4.268  13.299  0.2116 -0.4299 -0.2287
11611TIP3    H156248   3.310   4.260  13.215 -2.0023  0.1583  0.8231
11611TIP3    H256249   3.408   4.189  13.306  0.0758 -0.7014 -1.9674
11612TIP3   OH256250   5.242   6.527   1.987 -0.4224  0.6853 -0.4771
11612TIP3    H156251   5.208   6.456   2.041 -1.6587  0.6635 -1.2466
11612TIP3    H256252   5.308   6.486   1.932 -0.8466  0.2129 -0.6402
11613TIP3   OH256253   2.821   2.917  11.243  0.2166  0.2416  0.6699
11613TIP3    H156254   2.774   2.959  11.316 -0.8328  0.2273  0.0265
11613TIP3    H256255   2.857   2.990  11.193  0.0031  0.2937  0.5933
11614TIP3   OH256256   1.759   0.231   5.208 -0.4355 -0.2054 -0.5887
11614TIP3    H156257   1.768   0.318   5.168 -0.0654 -0.1510 -0.3991
11614TIP3    H256258   1.691   0.243   5.275  0.2068  0.1643  0.0203
11615TIP3   OH256259   1.215   3.052   0.391  0.0998  0.2775 -0.1190
11615TIP3    H156260   1.149   2.992   0.426  0.3227 -0.6273 -1.2099
11615TIP3    H256261   1.177   3.085   0.309  0.5798  0.5373 -0.2405
11616TIP3   OH256262   2.068   6.569  17.475  0.3271 -0.2037  0.6636
11616TIP3    H156263   2.050   6.525  17.558 -0.8865 -2.0600 -0.5123
11616TIP3    H256264   2.020   6.518  17.410  1.0123  1.3613 -1.1586
11617TIP3   OH256265   6.505   3.695   2.286 -0.1946 -0.2874 -0.0154
11617TIP3    H156266   6.575   3.647   2.330 -0.7905 -1.7713 -0.6119
11617TIP3    H256267   6.526   3.787   2.300  2.3898 -0.6648 -0.9507
11618TIP3   OH256268   0.843   3.773   5.771  0.0296 -0.0478  0.1239
11618TIP3    H156269   0.760   3.738   5.802 -0.3899 -0.1653 -1.1124
11618TIP3    H256270   0.819   3.850   5.720  0.9300  2.2229  2.8819
11619TIP3   OH256271   0.581   1.140  15.348 -0.6257 -0.6096  0.6178
11619TIP3    H156272   0.580   1.049  15.378 -0.6738 -0.5234  0.8826
11619TIP3    H256273   0.489   1.162  15.335 -0.5945 -0.6957  0.2565
11620TIP3   OH256274   3.732   1.523  16.590  0.0842  0.1814 -0.0023
11620TIP3    H156275   3.723   1.438  16.547 -1.0645  0.7849 -1.0239
11620TIP3    H256276   3.785   1.575  16.529  0.9142  0.1551  0.6908
11621TIP3   OH256277   6.546   1.857   3.483 -0.5487 -0.0967 -0.2885
11621TIP3    H156278   6.471   1.916   3.478  0.3839  1.0459 -2.5211
11621TIP3    H256279   6.512   1.778   3.524 -3.7019 -0.5884 -3.3310
11622TIP3   OH256280   0.143   6.204  13.054  0.0141 -0.0890  0.3573
11622TIP3    H156281   0.076   6.246  13.001 -0.2822 -0.2468  0.6012
11622TIP3    H256282   0.107   6.118  13.075  0.5651 -0.4238 -0.0428
11623TIP3   OH256283   0.190   6.308   5.483 -0.4996  0.0180  0.8204
11623TIP3    H156284   0.131   6.249   5.436  0.2563 -1.0009  1.1072
11623TIP3    H256285   0.222   6.368   5.416  1.3232 -2.0116 -0.2755
11624TIP3   OH256286   5.717   2.918   5.591 -0.3354 -0.6128  0.5436
11624TIP3    H156287   5.775   2.845   5.612 -1.8378 -2.0200  0.0017
11624TIP3    H256288   5.680   2.896   5.506 -0.1749  1.2455 -0.0594
11625TIP3   OH256289   2.055   6.154  14.408 -0.5016 -0.0777 -0.1968
11625TIP3    H156290   1.962   6.173  14.411 -0.8141 -1.3963 -0.6305
11625TIP3    H256291   2.060   6.058  14.415  0.9750  0.0971  3.0356
11626TIP3   OH256292   4.599   4.182   3.656 -0.2567 -0.0198 -0.1463
11626TIP3    H156293   4.598   4.193   3.561  0.1328  0.9268 -0.0525
11626TIP3    H256294   4.511   4.204   3.685 -0.1662  0.4338 -0.2155
11627TIP3   OH256295   6.225   6.476   2.571 -0.3121  0.2798 -0.3302
11627TIP3    H156296   6.134   6.472   2.599 -1.1134 -0.3574 -2.7846
11627TIP3    H256297   6.266   6.400   2.613 -1.6805 -1.1792 -1.4842
11628TIP3   OH256298   1.626   4.682   0.519 -0.0882 -0.5377  0.2579
11628TIP3    H156299   1.570   4.751   0.554 -1.9915 -2.4687  1.3261
11628TIP3    H256300   1.614   4.688   0.424  0.6778  1.2363  0.2319
11629TIP3   OH256301   0.244   4.556   2.158 -0.1899  0.1285 -0.2830
11629TIP3    H156302   0.300   4.580   2.085 -0.8211  0.0760 -0.7903
11629TIP3    H256303   0.166   4.517   2.118 -0.8195  0.6571  0.3801
11630TIP3   OH256304   4.346   3.428   3.398 -0.1698 -0.0625 -0.0321
11630TIP3    H156305   4.389   3.509   3.372  0.5889 -0.6815 -0.7354
11630TIP3    H256306   4.256   3.437   3.365  0.3988 -0.2534 -1.6679
11631TIP3   OH256307   1.560   1.100  15.729 -0.1522  0.3899  0.2653
11631TIP3    H156308   1.540   1.045  15.653 -0.3795 -0.6247  1.0329
11631TIP3    H256309   1.653   1.119  15.720  0.1260 -0.7934  0.3696
11632TIP3   OH256310   6.337   3.356   4.670 -0.2215 -0.3513  0.1632
11632TIP3    H156311   6.243   3.346   4.654 -0.0113  0.3424 -1.7286
11632TIP3    H256312   6.378   3.340   4.586  1.2440  0.8260  0.6094
11633TIP3   OH256313   5.039   3.219   3.670 -0.6167  0.1113 -0.5063
11633TIP3    H156314   5.104   3.262   3.614 -1.4116 -0.2116 -1.7175
11633TIP3    H256315   4.989   3.164   3.610 -1.9017  0.2323  0.4188
11634TIP3   OH256316   0.965   5.344  16.056 -0.0781  0.1459 -0.5835
11634TIP3    H156317   0.982   5.332  16.149  0.6321 -0.9138 -0.8356
11634TIP3    H256318   1.037   5.400  16.026 -0.0769  0.1459 -0.5808
11635TIP3   OH256319   0.307   6.216  13.498 -0.4044 -0.4878 -0.1057
11635TIP3    H156320   0.343   6.269  13.427 -0.3579 -0.5920 -0.1600
11635TIP3    H256321   0.368   6.143  13.507 -1.4955 -1.6210 -1.3619
11636TIP3   OH256322   5.809   1.311  16.114 -0.4692 -0.0003  0.1361
11636TIP3    H156323   5.728   1.356  16.139 -0.7234  0.6185 -1.7126
11636TIP3    H256324   5.865   1.318  16.192 -2.3765 -0.9864  1.7011
11637TIP3   OH256325   5.925   0.707  13.245  0.9564 -0.6294  0.4354
11637TIP3    H156326   5.870   0.686  13.169  0.6571 -3.7223  1.3795
11637TIP3    H256327   6.011   0.725  13.208 -0.1552  2.6153 -0.9343
11638TIP3   OH256328   5.066   2.529  15.907 -0.2958  0.0630 -0.2595
11638TIP3    H156329   5.038   2.481  15.985  0.1494  0.2811  0.0348
11638TIP3    H256330   5.040   2.473  15.834 -1.8953  0.4495 -0.0273
11639TIP3   OH256331   5.518   2.696  17.194  0.4910  0.1301  0.9028
11639TIP3    H156332   5.566   2.643  17.129  0.0138  2.8405 -1.9138
11639TIP3    H256333   5.426   2.675  17.179  0.4397 -0.4092  1.8925
11640TIP3   OH256334   3.203   1.963  15.209 -0.6758 -0.3400 -0.5657
11640TIP3    H156335   3.266   1.923  15.269 -0.9349  0.2912  0.1434
11640TIP3    H256336   3.250   1.967  15.125 -0.3340 -1.2959 -0.4402
11641TIP3   OH256337   2.648   3.963   3.836  0.3571  0.2697  0.1938
11641TIP3    H156338   2.554   3.947   3.845  0.6044 -0.2785  2.3762
11641TIP3    H256339   2.653   4.056   3.814 -0.6969  0.2569 -0.1988
11642TIP3   OH256340   1.931   3.335   5.815 -0.1348 -0.2233  0.3063
11642TIP3    H156341   1.863   3.400   5.795 -0.6902 -0.3766  1.5521
11642TIP3    H256342   1.892   3.281   5.884  1.5871  0.2770  1.7531
11643TIP3   OH256343   3.989   3.564   0.181 -0.5394  0.2400  0.6198
11643TIP3    H156344   3.953   3.491   0.232  0.1494 -0.5481  0.0060
11643TIP3    H256345   3.914   3.619   0.162 -1.0625 -0.2717  1.1566
11644TIP3   OH256346   6.031   2.731   1.815  0.0850  0.8772 -0.5264
11644TIP3    H156347   5.962   2.695   1.761  0.6223  0.4934 -0.9690
11644TIP3    H256348   6.008   2.823   1.827 -0.3056  0.8348 -0.9742
11645TIP3   OH256349   1.510   6.705  15.251 -0.0960  0.2329 -0.4975
11645TIP3    H156350   1.497   6.688  15.158  0.9269 -0.3750 -0.5468
11645TIP3    H256351   1.562   6.786  15.254 -1.3691  1.0892 -0.3835
11646TIP3   OH256352   4.742   1.546  16.019 -0.5653 -0.4935  0.0117
11646TIP3    H156353   4.783   1.620  16.064 -1.7375 -0.1663  0.5740
11646TIP3    H256354   4.715   1.487  16.089 -3.3010  0.4759 -0.1070
11647TIP3   OH256355   3.319   5.364   0.345  0.0862 -0.4764  0.2920
11647TIP3    H156356   3.288   5.396   0.261  0.8055  1.1192  0.5932
11647TIP3    H256357   3.378   5.292   0.323  1.8068  1.1637 -0.7447
11648TIP3   OH256358   3.452   0.444  16.888 -0.1044  0.5689  0.0444
11648TIP3    H156359   3.443   0.351  16.870 -0.4997  0.4003  1.0544
11648TIP3    H256360   3.365   0.473  16.914  0.0309  1.2072 -0.1808
11649TIP3   OH256361   6.120   0.056   0.428  0.1433 -0.1342  0.2126
11649TIP3    H156362   6.177  -0.021   0.438 -1.7812 -1.7564 -0.6919
11649TIP3    H256363   6.056   0.047   0.498 -1.4155 -0.6192 -1.2228
11650TIP3   OH256364   1.948   4.897  17.368 -0.0196 -0.0072 -0.0815
11650TIP3    H156365   1.909   4.969  17.417  2.9016  0.2203  2.2309
11650TIP3    H256366   1.936   4.920  17.276 -1.8352  1.8530  0.5557
11651TIP3   OH256367   6.405   4.299   0.030  0.5518  0.1766 -0.1336
11651TIP3    H156368   6.317   4.299  -0.008  0.8306  0.0676 -0.7955
11651TIP3    H256369   6.453   4.234  -0.022  0.8495 -0.2393  0.6380
11652TIP3   OH256370   2.218   4.773  16.456 -0.2545 -0.2592 -0.6063
11652TIP3    H156371   2.166   4.716  16.512  0.0847  2.3357  2.7104
11652TIP3    H256372   2.309   4.746  16.472 -0.2126 -0.2691 -0.8549
11653TIP3   OH256373   4.893   4.226   0.094  0.4661  0.2268  0.0149
11653TIP3    H156374   4.811   4.228   0.044  0.0998 -1.2737  0.4962
11653TIP3    H256375   4.866   4.242   0.184  0.6278 -0.6407  0.2314
11654TIP3   OH256376   2.553   5.074  15.616 -0.4169  0.1208  0.5112
11654TIP3    H156377   2.629   5.075  15.557  0.9088  1.2979  2.1312
11654TIP3    H256378   2.483   5.116  15.566  0.4539  0.4464 -0.4777
11655TIP3   OH256379   5.423   6.617   6.604  0.2350  0.4106  0.2637
11655TIP3    H156380   5.510   6.578   6.602  0.2095  0.1500  2.2937
11655TIP3    H256381   5.366   6.548   6.638 -0.3106  1.3328  1.2793
11656TIP3   OH256382   5.640   1.439  12.882  0.0610 -0.4770  0.2414
11656TIP3    H156383   5.655   1.364  12.940  0.8162 -0.1878  0.4337
11656TIP3    H256384   5.722   1.488  12.884  0.0527 -0.3888 -0.9823
11657TIP3   OH256385   1.802   4.431   3.911  0.4119 -0.4137 -0.3160
11657TIP3    H156386   1.722   4.403   3.865 -0.9557  0.5057  1.3915
11657TIP3    H256387   1.782   4.417   4.004  2.3870 -0.4531  0.1468
11658TIP3   OH256388   3.889   1.551  15.511  0.2039  0.3241  0.1002
11658TIP3    H156389   3.847   1.635  15.493  0.3641  0.8157  1.8142
11658TIP3    H256390   3.882   1.502  15.429  0.7822  2.2761 -1.1934
11659TIP3   OH256391   2.327   6.565   3.581 -0.9071  0.0502  0.0383
11659TIP3    H156392   2.298   6.630   3.645 -1.5914  0.9512 -1.1527
11659TIP3    H256393   2.416   6.542   3.609 -1.2862  0.2065  1.4539
11660TIP3   OH256394   2.845   3.410   2.171 -0.3666  0.1715  0.3703
11660TIP3    H156395   2.847   3.495   2.127 -0.9970  0.0613  0.1167
11660TIP3    H256396   2.863   3.346   2.102 -0.9175  0.0299  0.3509
11661TIP3   OH256397   1.171   5.851  17.349  0.2207  0.1211  0.3310
11661TIP3    H156398   1.208   5.787  17.410  1.0653 -0.0636 -0.3527
11661TIP3    H256399   1.215   5.833  17.266 -2.5615 -1.2284 -1.0100
11662TIP3   OH256400   1.702   0.083   5.962  0.4923 -0.2520  0.2998
11662TIP3    H156401   1.678  -0.001   6.002 -1.3039 -0.4872 -1.1518
11662TIP3    H256402   1.669   0.149   6.023 -0.9682 -0.6082 -0.0875
11663TIP3   OH256403   5.289   4.459  12.325  0.1866 -0.6163  0.2730
11663TIP3    H156404   5.202   4.499  12.324  0.7927  0.7385 -0.1464
11663TIP3    H256405   5.339   4.506  12.258  1.0814 -1.7802  0.0740
11664TIP3   OH256406   5.658   3.071   2.977 -0.0335 -0.1039 -0.0485
11664TIP3    H156407   5.687   3.102   2.891 -1.9071  1.3601 -0.2221
11664TIP3    H256408   5.725   3.100   3.038 -0.9511  3.1073 -0.4211
11665TIP3   OH256409   0.020   1.093   0.855  0.0118  0.2360 -0.2028
11665TIP3    H156410  -0.032   1.151   0.799 -0.4450  0.7956  0.7609
11665TIP3    H256411   0.059   1.029   0.795  0.0273  1.1694 -1.2234
11666TIP3   OH256412   1.562   0.784   6.120 -0.0645  0.6926  0.1415
11666TIP3    H156413   1.545   0.807   6.211  1.4677  1.7308  0.1992
11666TIP3    H256414   1.644   0.829   6.098  1.0605 -1.6710 -0.9352
11667TIP3   OH256415   5.356   5.429  13.709  0.3915 -0.5984 -0.1247
11667TIP3    H156416   5.430   5.487  13.728  0.2598 -0.2938 -0.5397
11667TIP3    H256417   5.359   5.364  13.779  0.9473 -0.4845 -0.0329
11668TIP3   OH256418   1.328   4.519  12.611 -0.2400  0.0708 -0.2256
11668TIP3    H156419   1.263   4.506  12.680  0.2405 -2.5924 -0.1896
11668TIP3    H256420   1.292   4.473  12.535  0.8097  0.0531 -0.7252
11669TIP3   OH256421   5.501   3.903   4.312  0.1067 -0.4199  0.0523
11669TIP3    H156422   5.447   3.954   4.253  0.4250 -0.4997 -0.3106
11669TIP3    H256423   5.484   3.812   4.288  1.3883 -0.4184 -0.9642
11670TIP3   OH256424   2.528   0.966  14.695 -0.2511 -0.1206 -0.1242
11670TIP3    H156425   2.583   0.974  14.773  0.5394 -1.5087 -0.5135
11670TIP3    H256426   2.590   0.962  14.622 -0.9926  1.8316 -0.9356
11671TIP3   OH256427   5.418   1.473   3.269  0.1381 -0.4418 -0.3043
11671TIP3    H156428   5.364   1.399   3.240 -0.3475 -0.7850  1.3163
11671TIP3    H256429   5.405   1.541   3.204 -2.0510 -0.6266 -0.1158
11672TIP3   OH256430   3.539   6.188   5.997  0.0321  0.0713 -0.1303
11672TIP3    H156431   3.634   6.183   5.986  0.3332  2.4746  0.6509
11672TIP3    H256432   3.518   6.118   6.059  2.3290  3.0904  4.6387
11673TIP3   OH256433   1.227   2.016   5.376 -0.0353  0.2840 -0.2466
11673TIP3    H156434   1.156   2.026   5.439 -1.8126  0.1331 -2.0910
11673TIP3    H256435   1.184   1.977   5.299  2.3246 -1.0523 -0.9855
11674TIP3   OH256436   2.526   3.423  17.288  0.5773  0.4108  0.3015
11674TIP3    H156437   2.510   3.340  17.334 -4.0230  0.4847 -0.6665
11674TIP3    H256438   2.583   3.400  17.215  0.1834 -1.6959  0.6024
11675TIP3   OH256439   3.918   5.283  14.568 -0.0289  0.0592 -0.0874
11675TIP3    H156440   3.853   5.214  14.575  0.1923  0.0081  1.7872
11675TIP3    H256441   3.974   5.272  14.644  1.6276  0.6866 -1.1543
11676TIP3   OH256442   6.546   2.331  17.050 -0.5456  0.4707  0.1519
11676TIP3    H156443   6.545   2.302  17.141  0.5218  1.1658  0.3967
11676TIP3    H256444   6.599   2.266  17.005 -1.2776 -0.0106 -0.0376
11677TIP3   OH256445   3.608   3.756   5.313 -0.3108  0.3467 -0.2991
11677TIP3    H156446   3.544   3.737   5.381 -1.1433 -0.0816 -1.1625
11677TIP3    H256447   3.671   3.684   5.319 -1.8773 -1.2570 -1.6865
11678TIP3   OH256448   0.314   2.818   0.017 -0.0792 -0.3878  0.4740
11678TIP3    H156449   0.292   2.737   0.062 -3.3477  1.1282  1.9780
11678TIP3    H256450   0.288   2.804  -0.074 -0.6010 -1.0193  0.7197
11679TIP3   OH256451   4.847   3.919  16.637 -0.8015  0.3155  0.0892
11679TIP3    H156452   4.791   3.862  16.690 -0.2520 -0.7667 -0.4530
11679TIP3    H256453   4.800   3.928  16.554  0.0346 -1.0298 -0.5607
11680TIP3   OH256454   1.855   6.096  13.280  0.0088  0.4729  0.1671
11680TIP3    H156455   1.800   6.071  13.206  0.3089  1.5233 -0.4279
11680TIP3    H256456   1.823   6.043  13.353 -1.9168  1.1913 -0.1040
11681TIP3   OH256457   5.125   6.660   4.760  0.0870 -0.7649 -0.6376
11681TIP3    H156458   5.215   6.690   4.771  1.2121 -4.0746  0.3702
11681TIP3    H256459   5.080   6.693   4.838  0.7296 -0.1105 -0.5323
11682TIP3   OH256460   5.696   4.689   4.809 -0.4516 -0.1688  0.4164
11682TIP3    H156461   5.661   4.762   4.859  0.9040  0.6694  0.1963
11682TIP3    H256462   5.652   4.695   4.724  0.7457  1.3716 -0.1499
11683TIP3   OH256463   1.699   0.797  13.824  0.4682  0.3430 -0.0249
11683TIP3    H156464   1.670   0.882  13.791  0.5594 -0.0434 -1.1488
11683TIP3    H256465   1.784   0.783  13.782  0.4262 -0.3381  0.1060
11684TIP3   OH256466   5.874   6.559   4.574  0.2447 -0.3625  0.2428
11684TIP3    H156467   5.838   6.643   4.603  0.7259 -0.0298 -0.1063
11684TIP3    H256468   5.801   6.498   4.581  0.2406 -0.2281  1.8150
11685TIP3   OH256469   0.416   3.633  16.169  0.4080 -0.7065 -0.5163
11685TIP3    H156470   0.393   3.642  16.076  0.5946  0.3701 -0.4675
11685TIP3    H256471   0.333   3.649  16.215  0.6969  0.6260 -0.4358
11686TIP3   OH256472   6.551   3.362  14.024 -0.1292  0.1319 -1.0431
11686TIP3    H156473   6.576   3.445  14.063 -1.1754 -0.0767  0.1453
11686TIP3    H256474   6.527   3.384  13.934 -0.6012  1.1577 -0.6822
11687TIP3   OH256475   4.017   5.630  13.158  0.3250 -0.4938  0.2044
11687TIP3    H156476   3.991   5.680  13.081  1.1467  1.3973  1.0976
11687TIP3    H256477   3.985   5.541  13.141  0.4859 -0.1452 -2.2946
11688TIP3   OH256478   6.330   2.157   2.983  0.0579 -0.0461 -0.0604
11688TIP3    H156479   6.363   2.097   3.051 -1.1856 -0.1926  0.4371
11688TIP3    H256480   6.409   2.189   2.940  0.8961 -0.0241  1.3987
11689TIP3   OH256481   6.319   6.348  16.330  0.0126 -0.0125  0.3407
11689TIP3    H156482   6.301   6.431  16.373  2.7254  0.7669  0.2011
11689TIP3    H256483   6.315   6.283  16.400 -0.2470  0.5218  0.8296
11690TIP3   OH256484   5.936   0.636   6.319 -0.0916  0.0876  0.8278
11690TIP3    H156485   5.847   0.667   6.307  0.8589  2.6230 -0.5042
11690TIP3    H256486   5.962   0.601   6.234  1.0218  1.9358  0.3540
11691TIP3   OH256487   4.899   1.085   4.227 -0.4408 -0.4632 -0.4476
11691TIP3    H156488   4.930   0.994   4.227 -0.3802 -0.4419 -0.4872
11691TIP3    H256489   4.836   1.088   4.156 -1.4799 -0.8378  0.4212
11692TIP3   OH256490   1.807   4.175   0.240  0.2925  0.2008  0.3474
11692TIP3    H156491   1.884   4.231   0.244  0.6497 -0.2883  0.4180
11692TIP3    H256492   1.752   4.205   0.313  0.2694  0.7555  0.1063
11693TIP3   OH256493   3.910   3.386   0.732 -0.3174  0.3057 -0.4283
11693TIP3    H156494   3.837   3.447   0.744  0.5191  1.1521  0.6516
11693TIP3    H256495   3.988   3.441   0.744  0.4790 -0.7201 -0.8130
11694TIP3   OH256496   3.700   2.813  12.977 -0.7110  1.0844  0.0117
11694TIP3    H156497   3.611   2.809  12.941 -0.2285 -1.4087 -1.1278
11694TIP3    H256498   3.730   2.901  12.957 -1.9978  1.1327 -2.0303
11695TIP3   OH256499   3.490   0.837   4.020  0.0738 -0.0731  0.0243
11695TIP3    H156500   3.486   0.891   3.941 -2.4584 -1.4978 -0.9409
11695TIP3    H256501   3.423   0.875   4.078  1.8404  0.8999  1.5305
11696TIP3   OH256502   4.526   5.585  12.845  0.3942 -0.3194 -0.1113
11696TIP3    H156503   4.549   5.661  12.791  1.5735 -1.2044 -0.8943
11696TIP3    H256504   4.606   5.532  12.848  0.1514 -0.6525  1.9429
11697TIP3   OH256505   3.553   5.055   1.222  0.5857  0.8625 -0.0606
11697TIP3    H156506   3.498   4.989   1.178  1.4738  0.0064  0.0726
11697TIP3    H256507   3.490   5.112   1.266 -0.2091  0.0427 -0.0929
11698TIP3   OH256508   6.367   2.637  13.191 -0.5275 -0.4560  0.3935
11698TIP3    H156509   6.309   2.676  13.125 -2.2383 -1.7902  1.0368
11698TIP3    H256510   6.329   2.664  13.274  1.0578  0.4141  0.8596
11699TIP3   OH256511   4.606   6.530   1.613  0.0969 -0.2211 -0.5112
11699TIP3    H156512   4.554   6.451   1.602 -1.7614  0.7431  0.6709
11699TIP3    H256513   4.688   6.512   1.568 -0.6307 -2.4432 -1.0706
11700TIP3   OH256514   6.416   3.366  16.338  0.2227 -0.5629 -0.0384
11700TIP3    H156515   6.492   3.401  16.384  1.4460 -0.5771 -1.9134
11700TIP3    H256516   6.452   3.334  16.255 -1.7908 -0.8785 -0.8321
11701TIP3   OH256517   2.377   3.734  14.297 -0.1488 -0.2378  0.0687
11701TIP3    H156518   2.301   3.722  14.240 -0.3602 -0.2728  0.3525
11701TIP3    H256519   2.441   3.780  14.243 -0.9901  1.2798  0.2990
11702TIP3   OH256520   2.958   2.904   2.296  0.0226  0.6888 -0.2179
11702TIP3    H156521   2.955   2.931   2.388 -0.7155  1.8586 -0.5593
11702TIP3    H256522   3.041   2.857   2.287 -0.0797  0.2048  1.1340
11703TIP3   OH256523   6.469   2.361  14.593  0.4484 -0.0118  0.0285
11703TIP3    H156524   6.535   2.326  14.533 -0.2106 -0.4023 -0.4904
11703TIP3    H256525   6.385   2.336  14.553 -0.0226 -1.5976  1.8394
11704TIP3   OH256526   3.287   2.594  12.993 -0.3352 -0.4594  0.2722
11704TIP3    H156527   3.373   2.575  12.954  0.4048 -0.8934  2.0260
11704TIP3    H256528   3.232   2.520  12.965 -0.1414 -0.2184 -0.7999
11705TIP3   OH256529   4.500   2.807  14.920  0.4623 -0.3111  0.0776
11705TIP3    H156530   4.528   2.869  14.988 -0.8925  1.0692 -0.5817
11705TIP3    H256531   4.532   2.845  14.838 -1.4569  0.2144 -0.4718
11706TIP3   OH256532   3.275   5.079   3.438  0.1889  0.6283  0.1899
11706TIP3    H156533   3.357   5.120   3.410  1.4398 -0.1706  2.4510
11706TIP3    H256534   3.285   5.067   3.532 -2.8936  1.2454  0.7131
11707TIP3   OH256535   3.748   1.292  11.127  0.0841  0.3821  0.3902
11707TIP3    H156536   3.768   1.386  11.121 -0.1596  0.4109 -0.0306
11707TIP3    H256537   3.807   1.251  11.063  0.5914  0.1849  0.9813
11708TIP3   OH256538   4.652   3.429  12.626 -0.3135 -0.1163  0.4243
11708TIP3    H156539   4.746   3.410  12.635 -0.6217 -1.3761  1.1547
11708TIP3    H256540   4.636   3.426  12.531  0.4515  0.5004  0.2645
11709TIP3   OH256541   2.182   1.849   0.279 -0.2757 -0.2467 -0.2475
11709TIP3    H156542   2.264   1.803   0.259  1.4108  2.1568  0.7033
11709TIP3    H256543   2.182   1.924   0.220 -1.2388  0.3942  0.5403
11710TIP3   OH256544   4.202   3.414   4.398  0.5496  0.2948  0.0090
11710TIP3    H156545   4.140   3.482   4.423 -0.4377 -1.3627  2.4440
11710TIP3    H256546   4.149   3.351   4.348  0.1280 -1.1607  2.1542
11711TIP3   OH256547   4.675   5.368  13.922  0.4369  0.1834  0.1510
11711TIP3    H156548   4.712   5.367  14.010  0.7562  1.5195  0.0520
11711TIP3    H256549   4.580   5.364  13.936  0.4993  0.0532  0.5435
11712TIP3   OH256550   5.706   4.594   5.990 -0.1733 -0.1024 -0.5249
11712TIP3    H156551   5.656   4.550   6.059  0.5547 -0.1180  0.0017
11712TIP3    H256552   5.756   4.662   6.036  0.7811 -0.5079 -0.9464
11713TIP3   OH256553   0.943   6.200  11.893 -0.8376 -0.6506  0.8758
11713TIP3    H156554   0.927   6.133  11.826 -1.0711  0.3803 -0.1401
11713TIP3    H256555   0.957   6.280  11.843  2.7394 -0.4964  1.8918
11714TIP3   OH256556   2.493   2.086   5.872 -0.0770 -0.3012  0.5805
11714TIP3    H156557   2.551   2.162   5.881  0.2928 -0.5218  0.0997
11714TIP3    H256558   2.528   2.038   5.797 -0.2673 -0.9852  0.9230
11715TIP3   OH256559   4.016   2.356  13.731 -0.3915 -0.1560  0.1765
11715TIP3    H156560   3.931   2.323  13.702 -0.6347  0.3271  0.3331
11715TIP3    H256561   4.074   2.342  13.656 -0.6025 -0.4908  0.0699
11716TIP3   OH256562   1.221   1.835  13.325  0.4938 -0.2131 -0.6044
11716TIP3    H156563   1.175   1.753  13.306 -0.1656 -0.2938  1.1791
11716TIP3    H256564   1.314   1.810  13.327  0.6159 -0.2653 -3.0748
11717TIP3   OH256565   2.902   4.813   4.227  0.0979 -0.2890 -0.3903
11717TIP3    H156566   2.869   4.727   4.204  1.9895 -0.7828 -1.5029
11717TIP3    H256567   2.923   4.854   4.143 -0.5425  1.1770  0.1294
11718TIP3   OH256568   2.918   4.530  14.782 -0.5041  0.1414 -0.1684
11718TIP3    H156569   2.980   4.507  14.714 -0.1429 -0.0681  0.2258
11718TIP3    H256570   2.921   4.625  14.787  0.7081  0.0829  0.6842
11719TIP3   OH256571   6.692   2.613  13.992 -0.7523  0.4625  0.4855
11719TIP3    H156572   6.706   2.590  13.900 -1.9265 -0.6784  0.5654
11719TIP3    H256573   6.605   2.652  13.994 -0.9643 -0.0271  1.1952
11720TIP3   OH256574   0.398   6.286  17.385  0.2681  0.2390 -0.5164
11720TIP3    H156575   0.367   6.196  17.380 -0.3104  0.3716  0.4218
11720TIP3    H256576   0.358   6.329  17.309  1.3713 -0.5175 -1.5500
11721TIP3   OH256577   0.659   1.840   1.564 -0.3709 -0.0648 -0.3591
11721TIP3    H156578   0.700   1.763   1.525 -0.4808 -0.8721  1.0660
11721TIP3    H256579   0.696   1.914   1.515  0.5240 -0.9499 -1.0668
11722TIP3   OH256580   5.982   5.948   0.150 -0.4673 -0.1366  0.2820
11722TIP3    H156581   6.045   5.886   0.115 -1.3546 -0.7256 -0.3204
11722TIP3    H256582   6.025   6.033   0.141 -0.2083 -0.4002 -1.1999
11723TIP3   OH256583   1.882   3.038  14.202 -0.5605 -0.1255  0.2031
11723TIP3    H156584   1.804   3.042  14.146  0.8756 -2.5294 -2.2633
11723TIP3    H256585   1.951   3.078  14.149  0.6629 -1.5692  0.6520
11724TIP3   OH256586   6.189   4.570  14.462  0.0093  0.3186  0.1275
11724TIP3    H156587   6.106   4.611  14.441  0.6330  0.6831 -1.9162
11724TIP3    H256588   6.183   4.482  14.424  0.4818  0.2846  0.1197
11725TIP3   OH256589   2.635   2.104   3.366 -0.4792  0.3086 -0.3307
11725TIP3    H156590   2.656   2.142   3.452 -0.5326  0.2520 -0.2924
11725TIP3    H256591   2.552   2.058   3.380 -1.2620  1.5267 -0.7758
11726TIP3   OH256592   6.084   6.013   0.625 -0.3446  0.0781 -0.3952
11726TIP3    H156593   5.991   5.995   0.613 -0.6822  1.6312 -0.3390
11726TIP3    H256594   6.100   5.998   0.718 -0.2112 -1.4686 -0.6415
11727TIP3   OH256595   3.668   3.890   6.756 -0.2716 -0.1570  0.3836
11727TIP3    H156596   3.637   3.981   6.760 -2.2165 -0.6877 -1.0907
11727TIP3    H256597   3.727   3.888   6.681  1.8360  0.3629  1.9080
11728TIP3   OH256598   1.171   2.618  14.857  0.3947  0.7242 -0.1975
11728TIP3    H156599   1.202   2.575  14.937  1.8573 -1.7809 -1.9911
11728TIP3    H256600   1.216   2.703  14.857  2.3618 -0.2457  0.4438
11729TIP3   OH256601   4.180   3.015  15.388  0.2211  0.1386  0.1372
11729TIP3    H156602   4.190   2.942  15.448  0.4130  0.1881  0.1648
11729TIP3    H256603   4.097   3.056  15.413  1.0817  1.1605  1.4598
11730TIP3   OH256604   2.807   5.049   5.336 -0.0109  0.1585 -0.4283
11730TIP3    H156605   2.879   5.068   5.275  0.8640 -0.6268  0.3252
11730TIP3    H256606   2.736   5.018   5.280  1.4726 -2.6201 -0.9591
11731TIP3   OH256607   1.705   6.068   5.535 -0.2550 -0.2765  0.2062
11731TIP3    H156608   1.746   6.000   5.590 -1.7909 -1.3239  0.1250
11731TIP3    H256609   1.628   6.025   5.498  0.3765  0.5959 -2.2918
11732TIP3   OH256610   6.188   4.105  13.460 -0.5635 -0.0260 -0.1862
11732TIP3    H156611   6.160   4.131  13.373 -2.2746 -1.2064 -0.0387
11732TIP3    H256612   6.127   4.148  13.519  0.7558  1.0012  0.4917
11733TIP3   OH256613   0.472   2.976   4.891  0.4333  0.1641 -0.1197
11733TIP3    H156614   0.438   2.894   4.855  0.6106  0.5183 -1.1264
11733TIP3    H256615   0.396   3.034   4.894  0.3004 -0.0388  0.6259
11734TIP3   OH256616   0.389   4.817   1.243  0.0819  0.0571  0.4198
11734TIP3    H156617   0.329   4.842   1.173 -0.5293 -1.9423  0.1663
11734TIP3    H256618   0.333   4.800   1.319  0.5756  0.5127  0.9027
11735TIP3   OH256619   4.012   1.375   6.069 -0.2158  0.2102  0.2528
11735TIP3    H156620   4.079   1.395   6.134 -0.5538  1.0961  0.3438
11735TIP3    H256621   3.930   1.399   6.111 -0.5720 -0.6138  0.0433
11736TIP3   OH256622   4.588   0.543   1.448 -0.2635  0.1061 -0.3623
11736TIP3    H156623   4.501   0.546   1.408  0.5946 -1.0048 -2.5158
11736TIP3    H256624   4.648   0.564   1.376  1.3874 -1.8866  0.3171
11737TIP3   OH256625   1.592   3.155   3.993  0.0958  0.0606  0.1802
11737TIP3    H156626   1.503   3.123   4.007  0.1416 -0.0437  0.2304
11737TIP3    H256627   1.587   3.207   3.912  0.0500 -0.1741  0.0319
11738TIP3   OH256628   0.073   6.029   2.271  0.8042 -0.6374 -0.1643
11738TIP3    H156629   0.141   6.076   2.224  1.9675 -0.8201  1.2698
11738TIP3    H256630   0.078   6.061   2.361 -1.9388  0.3410 -0.2650
11739TIP3   OH256631   4.727   3.667   3.855 -0.4414 -0.1985  0.0506
11739TIP3    H156632   4.664   3.595   3.865 -0.9029  0.3108  0.9758
11739TIP3    H256633   4.808   3.633   3.894 -0.2420 -0.7222 -0.8055
11740TIP3   OH256634   4.186   4.742   3.298  0.2431 -0.3776  0.2125
11740TIP3    H156635   4.107   4.711   3.343 -0.5279 -1.1560 -1.6087
11740TIP3    H256636   4.163   4.741   3.206  1.9837  0.6258 -0.2664
11741TIP3   OH256637   0.621   3.697  15.713  0.2546  0.5624 -0.3122
11741TIP3    H156638   0.681   3.750  15.766  0.3385 -0.2610  0.4392
11741TIP3    H256639   0.674   3.624  15.683 -0.3593 -0.1849  0.3742
11742TIP3   OH256640   3.735   0.198  16.076 -0.1987  0.1021  0.0141
11742TIP3    H156641   3.825   0.232  16.081 -0.3097  0.3547  0.3153
11742TIP3    H256642   3.717   0.165  16.164 -0.4306  0.1275 -0.0239
11743TIP3   OH256643   3.387   5.847  14.584 -0.0719 -0.6182 -0.0174
11743TIP3    H156644   3.429   5.932  14.570 -1.6720  0.2636  0.2719
11743TIP3    H256645   3.348   5.854  14.671 -1.4228 -1.1080 -0.5576
11744TIP3   OH256646   2.382   2.505   4.785 -0.1192 -0.1303 -0.3077
11744TIP3    H156647   2.402   2.580   4.728 -0.3625 -0.0632 -0.3058
11744TIP3    H256648   2.441   2.516   4.860  0.1193 -0.1540 -0.4909
11745TIP3   OH256649   1.432   2.683   5.300 -0.3171  0.1579 -0.7334
11745TIP3    H156650   1.393   2.723   5.223  1.2704  0.3139 -1.5156
11745TIP3    H256651   1.510   2.737   5.318 -1.5409  1.1883  2.0592
11746TIP3   OH256652   0.248   4.996  15.692  0.1750  0.2756 -0.0714
11746TIP3    H156653   0.307   5.048  15.637 -0.1383 -0.2168 -0.8975
11746TIP3    H256654   0.217   5.058  15.759 -0.2751  1.1935 -1.0885
11747TIP3   OH256655   5.382   2.703  13.460  0.3497  0.5029  0.4642
11747TIP3    H156656   5.401   2.680  13.551  1.0618  0.6056  0.3466
11747TIP3    H256657   5.398   2.622  13.411 -0.4658  0.3244  0.4808
11748TIP3   OH256658   3.838   4.793   5.583  0.5161  0.2833 -0.8137
11748TIP3    H156659   3.762   4.823   5.632 -0.3083 -0.1948 -1.7740
11748TIP3    H256660   3.903   4.863   5.595  0.5784 -0.0642  1.4049
11749TIP3   OH256661   0.849   4.872   0.571  0.0003  0.2050  0.3076
11749TIP3    H156662   0.905   4.864   0.494  0.6889  0.4050  0.7781
11749TIP3    H256663   0.888   4.812   0.634 -0.5150  0.1018  0.5283
11750TIP3   OH256664   5.549   3.284  11.962 -0.2168 -0.2178  0.0707
11750TIP3    H156665   5.613   3.246  11.902  0.3891 -0.2139  0.6997
11750TIP3    H256666   5.474   3.305  11.906  0.2253 -0.4583 -0.6364
11751TIP3   OH256667   2.963   1.572  12.756 -0.2392 -0.2844  0.5067
11751TIP3    H156668   3.057   1.590  12.753 -0.3094 -0.0517 -1.0919
11751TIP3    H256669   2.922   1.657  12.744 -0.6133 -0.6806 -1.2270
11752TIP3   OH256670   1.258   0.896   1.442 -0.3989  0.0997 -0.3240
11752TIP3    H156671   1.246   0.929   1.354  0.0623  0.3175 -0.3069
11752TIP3    H256672   1.240   0.802   1.435  1.7934 -0.3033 -1.1155
11753TIP3   OH256673   1.926   1.161  11.400 -0.6862  0.0284 -0.1704
11753TIP3    H156674   1.960   1.148  11.311  1.3007  1.0821  0.3717
11753TIP3    H256675   1.940   1.077  11.444 -0.8220 -0.2132 -0.5832
11754TIP3   OH256676   5.365   5.924  12.380  0.1649 -0.6225  0.4271
11754TIP3    H156677   5.295   5.981  12.408 -0.2567 -1.1109  0.3822
11754TIP3    H256678   5.357   5.921  12.285  1.3522  0.7246  0.2479
11755TIP3   OH256679   6.684   5.150   0.580  0.2062  0.0348 -0.2138
11755TIP3    H156680   6.722   5.185   0.661  2.3583  0.7419 -1.4567
11755TIP3    H256681   6.677   5.226   0.522 -2.4670 -0.2245 -0.3498
11756TIP3   OH256682   2.736   5.968  13.212  0.7436  0.1521  0.0445
11756TIP3    H156683   2.765   5.887  13.252 -0.8482 -0.5683 -0.1833
11756TIP3    H256684   2.651   5.986  13.252  1.0131  1.6656  0.0234
11757TIP3   OH256685   0.367   5.304  13.535 -0.3546 -0.3530 -0.1544
11757TIP3    H156686   0.364   5.393  13.572  0.4529 -0.3764  0.0004
11757TIP3    H256687   0.342   5.247  13.607  0.8620 -0.3711  0.2811
11758TIP3   OH256688   0.874   1.684  16.335 -0.2775 -0.1160  0.9752
11758TIP3    H156689   0.881   1.713  16.426  0.4311  0.1042  0.8525
11758TIP3    H256690   0.837   1.596  16.341 -0.4510 -0.0141  1.4628
11759TIP3   OH256691   2.250   0.748  15.913 -0.8261  0.0833  0.3680
11759TIP3    H156692   2.315   0.762  15.982  0.5827 -0.0835 -0.8677
11759TIP3    H256693   2.234   0.654  15.914 -1.0749  0.1278  0.6929
11760TIP3   OH256694   2.523   5.665  13.964  0.3707 -0.3177  0.2601
11760TIP3    H156695   2.610   5.656  13.925 -0.2885  0.5210 -1.5402
11760TIP3    H256696   2.536   5.725  14.038  0.8971  2.5269 -1.9373
11761TIP3   OH256697   2.319   4.079  15.212  0.4609  0.4361 -0.1001
11761TIP3    H156698   2.398   4.046  15.169  0.0805  0.0049 -0.4720
11761TIP3    H256699   2.351   4.116  15.294  1.0581  0.3182 -0.2712
11762TIP3   OH256700   4.003   2.357  13.122 -0.0864  0.4486  0.4499
11762TIP3    H156701   3.958   2.417  13.182  0.2133 -0.4486  1.6221
11762TIP3    H256702   3.934   2.325  13.064 -0.0740  2.6652 -0.8951
11763TIP3   OH256703   2.632   6.114  15.215  0.3289 -0.2511  0.5345
11763TIP3    H156704   2.567   6.179  15.241 -1.7203 -1.7977 -0.5129
11763TIP3    H256705   2.604   6.033  15.257  0.0341 -1.5477 -1.9888
11764TIP3   OH256706   5.498   0.929   3.247  0.6064 -0.2432 -0.2396
11764TIP3    H156707   5.562   0.940   3.176 -0.6463 -0.5817 -1.4658
11764TIP3    H256708   5.525   0.849   3.292  1.2847 -0.1484 -0.4665
11765TIP3   OH256709   1.180   6.127  15.660  0.1236 -0.1257 -0.1297
11765TIP3    H156710   1.109   6.092  15.607 -1.8693 -0.5703  2.6085
11765TIP3    H256711   1.140   6.199  15.709  1.7080 -0.0498  1.1337
11766TIP3   OH256712   1.028   2.185  15.223  0.4106  0.4169  0.6622
11766TIP3    H156713   1.055   2.171  15.132  0.2471 -2.3377  0.9405
11766TIP3    H256714   0.973   2.263  15.220  1.3639  1.0725 -1.3836
11767TIP3   OH256715   4.344   4.057   4.860  0.1125 -0.2310 -0.2312
11767TIP3    H156716   4.318   3.982   4.912  2.1570 -0.4893  0.5244
11767TIP3    H256717   4.427   4.085   4.899  0.1588  1.4715 -1.4520
11768TIP3   OH256718   1.835   4.443  11.273  0.0323  0.1521  0.1318
11768TIP3    H156719   1.759   4.386  11.255  0.2916 -0.5629  1.1696
11768TIP3    H256720   1.801   4.509  11.333  0.4080 -0.7209  1.3569
11769TIP3   OH256721   5.756   3.481  14.730  0.4195  0.1436 -0.4183
11769TIP3    H156722   5.830   3.439  14.775  1.4051 -1.4356 -3.2401
11769TIP3    H256723   5.687   3.414  14.731 -0.7124  1.2647  1.3758
11770TIP3   OH256724   1.215   1.888   2.982  0.5311 -0.2356 -0.1465
11770TIP3    H156725   1.276   1.893   3.056  0.6304  0.2393 -0.2556
11770TIP3    H256726   1.152   1.958   2.998 -0.0013 -0.7332 -0.0273
11771TIP3   OH256727   4.250   2.173   3.340  0.0353  0.6768  0.1301
11771TIP3    H156728   4.273   2.240   3.403 -1.0956  1.8108 -0.6186
11771TIP3    H256729   4.210   2.221   3.267  1.6182 -0.5394 -1.6194
11772TIP3   OH256730   1.094   1.965   4.804 -0.2947 -0.2293  0.5383
11772TIP3    H156731   1.042   2.038   4.837 -1.5187 -1.1911  0.7850
11772TIP3    H256732   1.157   1.947   4.873 -0.1436  0.4253  0.5791
11773TIP3   OH256733   2.586   3.958  15.127 -0.7566 -0.2780  0.3259
11773TIP3    H156734   2.561   3.889  15.189 -0.8817  0.2977  0.9337
11773TIP3    H256735   2.677   3.977  15.150 -0.3229 -1.0929 -0.6620
11774TIP3   OH256736   5.033   0.235  16.944 -0.1008 -0.2508  0.3228
11774TIP3    H156737   5.014   0.161  16.886  0.0629 -1.4742  1.7993
11774TIP3    H256738   5.128   0.246  16.940  0.1453 -1.5932  1.8147
11775TIP3   OH256739   5.971   0.793  12.175 -0.0451  0.6915 -0.3670
11775TIP3    H156740   5.885   0.758  12.197 -0.7248  1.8776 -1.0611
11775TIP3    H256741   6.033   0.726  12.205 -0.9246  1.3978  3.6070
11776TIP3   OH256742   3.152   2.052  14.857  0.2835  0.4143 -0.4844
11776TIP3    H156743   3.164   1.959  14.877 -2.1669 -0.6152 -3.0393
11776TIP3    H256744   3.075   2.078  14.908  0.0038  0.5742 -0.9803
11777TIP3   OH256745   5.496   3.944   3.789  0.1991 -0.6647 -0.1876
11777TIP3    H156746   5.481   3.943   3.694 -1.1020 -0.2280 -0.0002
11777TIP3    H256747   5.409   3.944   3.827  0.6980 -1.7442  1.0420
11778TIP3   OH256748   6.361   4.536  12.501 -0.2432 -0.2885  0.1649
11778TIP3    H156749   6.439   4.541  12.445 -0.2056  0.7134  0.2934
11778TIP3    H256750   6.369   4.610  12.561 -2.0285  0.7343 -0.7767
11779TIP3   OH256751   0.535   4.526  13.858 -0.2079 -0.6438  0.2084
11779TIP3    H156752   0.535   4.448  13.913  1.0816 -0.8160  0.0082
11779TIP3    H256753   0.454   4.521  13.809 -0.4569 -1.5080  0.6845
11780TIP3   OH256754   6.262   4.810  13.626 -0.0634  0.3460  0.1011
11780TIP3    H156755   6.328   4.810  13.557 -0.4165  0.7005 -0.2413
11780TIP3    H256756   6.205   4.884  13.604 -0.7844 -0.1822  0.1923
11781TIP3   OH256757   2.881   1.134  14.529  0.2481  0.4217  0.5599
11781TIP3    H156758   2.821   1.087  14.470  1.0712  1.4655 -1.2040
11781TIP3    H256759   2.876   1.087  14.612 -1.9721 -0.3167  0.0543
11782TIP3   OH256760   2.899   3.459   3.669  0.1231  0.0721 -0.2152
11782TIP3    H156761   2.978   3.468   3.722  1.0797  0.8562 -1.7248
11782TIP3    H256762   2.927   3.413   3.590 -1.0788 -0.2513 -0.4814
11783TIP3   OH256763   1.327   5.912   0.163 -0.0613  0.1421 -0.9514
11783TIP3    H156764   1.422   5.903   0.165 -0.1318 -0.7023  1.1085
11783TIP3    H256765   1.295   5.824   0.185 -1.1678  1.3306  2.9928
11784TIP3   OH256766   5.902   2.359  16.582  0.5095 -0.2375 -0.0354
11784TIP3    H156767   5.994   2.364  16.559  0.7293  0.6654  0.9755
11784TIP3    H256768   5.896   2.399  16.669 -1.0181  0.8865 -0.5995
11785TIP3   OH256769   4.510   6.354  15.180  0.1939  0.1079 -0.1657
11785TIP3    H156770   4.574   6.349  15.110  1.3050  0.5351  0.7985
11785TIP3    H256771   4.516   6.269  15.224  0.1282  0.1673 -0.0421
11786TIP3   OH256772   2.507   1.525  15.043 -0.0015  0.3489 -0.0217
11786TIP3    H156773   2.420   1.546  15.078 -0.6181  0.1670 -1.3618
11786TIP3    H256774   2.566   1.587  15.085 -0.9162  1.0209  0.3045
11787TIP3   OH256775   0.315   1.275   0.384  0.1797  0.2853 -0.3561
11787TIP3    H156776   0.404   1.310   0.395 -0.5315  1.8529  0.9125
11787TIP3    H256777   0.262   1.326   0.445 -1.3188 -1.7596  0.1630
11788TIP3   OH256778   5.021   3.663  15.901  0.4906 -0.5703 -0.4880
11788TIP3    H156779   5.032   3.638  15.809 -1.2259  0.5738 -1.0476
11788TIP3    H256780   4.944   3.719  15.902  2.2843  2.1253  1.1405
11789TIP3   OH256781   5.578   0.038   0.120 -0.0944  0.2576  0.1060
11789TIP3    H156782   5.556   0.131   0.125  1.1185  0.5424  0.6271
11789TIP3    H256783   5.542   0.009   0.036 -1.0412  1.0342  0.2253
11790TIP3   OH256784   2.473   1.065  15.943 -0.8151  0.3868  0.3342
11790TIP3    H156785   2.560   1.103  15.932 -0.3887 -1.0937 -2.2471
11790TIP3    H256786   2.487   0.987  15.997 -0.1570 -0.7429 -1.3556
11791TIP3   OH256787   4.808   1.486   5.300 -0.1000  0.3879  0.1086
11791TIP3    H156788   4.831   1.555   5.237 -0.7518  1.5105  1.0569
11791TIP3    H256789   4.886   1.432   5.305  0.5240  1.1943 -0.4919
11792TIP3   OH256790   0.741   0.356   5.568 -0.3405  0.7566  0.4044
11792TIP3    H156791   0.733   0.402   5.651  0.8563  0.7763  0.5246
11792TIP3    H256792   0.685   0.279   5.577 -0.1808  0.7343  1.2387
11793TIP3   OH256793   0.794   3.139   6.264 -0.4136  0.1961 -0.3875
11793TIP3    H156794   0.749   3.216   6.228 -0.4136  0.6929  0.6533
11793TIP3    H256795   0.728   3.097   6.319 -0.7013 -1.0689 -1.6209
11794TIP3   OH256796   1.321   5.614   1.288  0.4109  0.0997 -0.7733
11794TIP3    H156797   1.232   5.607   1.324 -0.0195  1.1915 -1.5622
11794TIP3    H256798   1.331   5.536   1.234 -0.1706  0.0924 -0.8755
11795TIP3   OH256799   5.395   3.524   0.874  0.2265  0.2287 -0.3060
11795TIP3    H156800   5.486   3.550   0.887  0.8990 -1.1927 -1.7967
11795TIP3    H256801   5.383   3.448   0.931 -0.1551  0.6462  0.1781
11796TIP3   OH256802   2.702   4.493  17.543  0.1361 -0.1925 -0.7709
11796TIP3    H156803   2.725   4.557  17.475  2.6480 -1.5892 -1.3461
11796TIP3    H256804   2.691   4.411  17.496  0.6084 -0.9138  0.3413
11797TIP3   OH256805   2.388   5.512   2.341  0.4258  0.2214  0.7015
11797TIP3    H156806   2.441   5.566   2.283  0.1976  0.0657  0.3430
11797TIP3    H256807   2.340   5.454   2.282 -1.0148  1.1299  0.9263
11798TIP3   OH256808   4.718   0.303   2.722  0.5001 -0.5758 -0.2444
11798TIP3    H156809   4.630   0.340   2.732  0.6386 -0.1736 -0.4955
11798TIP3    H256810   4.716   0.222   2.773  0.2919 -0.0567  0.5837
11799TIP3   OH256811   6.629   2.412  12.707  0.0992 -0.4368 -0.3780
11799TIP3    H156812   6.716   2.419  12.668 -0.6650  2.5473 -1.8334
11799TIP3    H256813   6.646   2.404  12.801  1.8963 -2.0824 -0.7549
11800TIP3   OH256814   2.212   3.093   2.254 -0.2119  0.1530  0.4911
11800TIP3    H156815   2.157   3.115   2.329  1.3134 -2.3396  2.5399
11800TIP3    H256816   2.248   3.177   2.225 -1.4005  1.2849  2.1209
11801TIP3   OH256817   2.039   1.081   3.722 -0.1940 -0.3162 -0.1201
11801TIP3    H156818   2.091   1.150   3.762  0.2563  1.0662 -2.8763
11801TIP3    H256819   2.100   1.032   3.668 -1.0545 -1.1685 -0.3623
11802TIP3   OH256820   4.057   4.043  11.996 -0.2257  0.0311  0.3134
11802TIP3    H156821   4.032   3.956  11.965  0.5326 -1.2822  3.0526
11802TIP3    H256822   3.977   4.080  12.034 -0.0521 -0.4743  1.2009
11803TIP3   OH256823   5.215   2.004  14.242 -0.0200  0.1198 -0.0837
11803TIP3    H156824   5.173   1.953  14.173 -0.3366 -0.1419  0.2949
11803TIP3    H256825   5.271   2.067  14.196 -0.0892 -0.1733 -0.5670
11804TIP3   OH256826   1.659   0.701  15.586 -0.1816 -0.1685  0.0818
11804TIP3    H156827   1.627   0.691  15.676  1.5766  1.6149  0.9977
11804TIP3    H256828   1.717   0.625  15.574  0.0287 -0.1144  0.6824
11805TIP3   OH256829   1.418   3.130  13.406  0.6188  0.1471  0.4592
11805TIP3    H156830   1.402   3.180  13.486 -1.0920  0.5679 -0.0915
11805TIP3    H256831   1.510   3.144  13.386  0.8578  0.7280  1.8937
11806TIP3   OH256832   5.600   2.950  12.148 -0.3560 -0.1680  0.2404
11806TIP3    H156833   5.600   2.859  12.179  0.9769 -0.8641 -1.5904
11806TIP3    H256834   5.607   2.942  12.053 -0.9847  1.8694 -0.0067
11807TIP3   OH256835   4.481   6.219   1.279  0.1295 -0.0435 -0.1390
11807TIP3    H156836   4.557   6.264   1.314  0.2101 -0.0928 -0.2488
11807TIP3    H256837   4.407   6.278   1.295 -0.1118 -0.7830  1.6407
11808TIP3   OH256838   1.717   6.204  12.856  0.3869  0.3065 -0.0066
11808TIP3    H156839   1.694   6.149  12.781 -1.1215  0.2149  0.4891
11808TIP3    H256840   1.638   6.254  12.875  0.3739 -0.3808  2.1235
11809TIP3   OH256841   5.671   0.977   2.994  0.0614 -0.2452  0.7526
11809TIP3    H156842   5.632   0.901   2.951 -0.8199  0.9176 -0.5945
11809TIP3    H256843   5.761   0.980   2.961 -0.4138  0.2570 -0.5476
11810TIP3   OH256844   6.600   5.360  16.997 -0.1086 -0.1957  0.2680
11810TIP3    H156845   6.517   5.376  17.041 -0.5635 -0.2721 -0.5464
11810TIP3    H256846   6.630   5.276  17.033 -1.2450 -1.0399 -0.6911
11811TIP3   OH256847   3.976   2.173  13.956  0.1420  0.4881  0.2344
11811TIP3    H156848   4.034   2.101  13.933 -0.5469  0.6505 -2.2481
11811TIP3    H256849   3.989   2.238  13.887 -0.8127  1.8238  1.2495
11812TIP3   OH256850   5.395   0.251   4.219  0.3736  0.1162 -0.1167
11812TIP3    H156851   5.332   0.320   4.241 -0.7979 -0.7805 -0.5883
11812TIP3    H256852   5.402   0.198   4.298  1.5255  0.9325  0.3568
11813TIP3   OH256853   2.920   4.803  14.784  0.0700  0.4767 -0.3451
11813TIP3    H156854   2.914   4.895  14.811  3.1691  1.0000 -0.9904
11813TIP3    H256855   2.938   4.807  14.690 -0.7510 -0.8580 -0.5723
11814TIP3   OH256856   2.549   6.133  17.106  0.4944 -0.1238  0.5546
11814TIP3    H156857   2.626   6.139  17.050 -0.8747  0.0199 -1.3846
11814TIP3    H256858   2.488   6.197  17.071 -1.1697 -1.4082  0.9844
11815TIP3   OH256859   3.310   4.800  12.304 -0.4764 -0.5138 -0.3496
11815TIP3    H156860   3.264   4.732  12.254 -1.4003  1.2211 -1.9916
11815TIP3    H256861   3.285   4.882  12.261  2.3695  0.7174  0.1411
11816TIP3   OH256862   4.983   5.275  12.367  0.1989  0.3568 -0.1765
11816TIP3    H156863   5.056   5.310  12.315  1.9447 -0.9562  1.2632
11816TIP3    H256864   4.979   5.332  12.444 -0.3107  0.4232 -0.2487
11817TIP3   OH256865   4.992   0.237   6.073 -0.1587 -0.8090  0.0225
11817TIP3    H156866   4.937   0.267   6.001  0.8898  0.6549 -0.2130
11817TIP3    H256867   5.073   0.287   6.064  0.4867 -1.5206  1.4818
11818TIP3   OH256868   4.522   6.549   1.297 -0.1121 -0.1432 -0.0746
11818TIP3    H156869   4.504   6.531   1.205 -0.5116 -0.8342  0.1297
11818TIP3    H256870   4.571   6.631   1.296  0.5646 -0.5353 -0.9556
11819TIP3   OH256871   3.119   5.333   2.763 -0.5449  0.2807  0.3697
11819TIP3    H156872   3.061   5.402   2.733 -1.8954 -1.1680 -0.4961
11819TIP3    H256873   3.089   5.314   2.852 -0.5599  0.4072  0.3919
11820TIP3   OH256874   0.596   3.748  13.720 -0.7795  0.1956 -0.5226
11820TIP3    H156875   0.597   3.785  13.809  0.3125 -0.3111 -0.2966
11820TIP3    H256876   0.545   3.668  13.728  2.3922 -1.9210  0.6157
11821TIP3   OH256877   5.036   4.083  12.075 -0.0977  0.2496 -0.0625
11821TIP3    H156878   4.949   4.052  12.051  0.0164 -0.1383  0.0202
11821TIP3    H256879   5.090   4.064  11.998 -0.3115  1.4770 -0.5408
11822TIP3   OH256880   2.830   3.603   4.151  0.1833 -0.4591 -0.1327
11822TIP3    H156881   2.912   3.648   4.170 -1.5408  2.4760  1.0084
11822TIP3    H256882   2.845   3.560   4.067  2.4470  1.1430 -0.6374
11823TIP3   OH256883   2.479   2.588  16.846 -0.3687 -0.1046  0.2540
11823TIP3    H156884   2.558   2.619  16.802 -0.6606 -0.0472 -0.2289
11823TIP3    H256885   2.509   2.513  16.898 -0.1758 -0.7239 -0.7177
11824TIP3   OH256886   0.248   6.441  16.052  0.4677  0.2986 -0.2933
11824TIP3    H156887   0.303   6.364  16.062  0.9741  0.6726 -0.1467
11824TIP3    H256888   0.186   6.437  16.125  0.5179  0.0585 -0.2645
11825TIP3   OH256889   3.195   5.295   1.340 -0.9255  0.1637 -0.4771
11825TIP3    H156890   3.107   5.259   1.347 -0.8327  0.0150 -0.0086
11825TIP3    H256891   3.205   5.351   1.417 -1.3010  1.7436 -1.5184
11826TIP3   OH256892   5.760   4.106  16.549  0.7725 -0.3111 -0.3825
11826TIP3    H156893   5.830   4.132  16.490  1.2876  0.2109  0.4286
11826TIP3    H256894   5.702   4.051  16.497  1.7589 -0.6964 -1.0787
11827TIP3   OH256895   0.813   1.039  16.149  0.1070  0.2223 -0.7467
11827TIP3    H156896   0.851   1.049  16.061 -0.5951 -1.6324 -1.3262
11827TIP3    H256897   0.872   0.977  16.193 -0.3795 -0.0448 -0.4617
11828TIP3   OH256898   4.749   6.096  12.794  0.1261 -0.3634  0.2698
11828TIP3    H156899   4.781   6.006  12.784  0.2732 -0.5183  1.9385
11828TIP3    H256900   4.691   6.093  12.870 -0.0222  0.9106  0.2285
11829TIP3   OH256901   6.215   3.741  13.775 -0.3288  0.0502  0.1222
11829TIP3    H156902   6.234   3.647  13.767  1.3318  0.2814  0.7557
11829TIP3    H256903   6.236   3.777  13.690 -0.2326 -0.0484  0.1032
11830TIP3   OH256904   5.387   1.295  15.410  0.1417 -0.9458  0.0580
11830TIP3    H156905   5.394   1.239  15.333  0.8624 -0.7956  0.0098
11830TIP3    H256906   5.459   1.267  15.467  1.4198  0.8629 -0.5803
11831TIP3   OH256907   1.052   6.547   0.232  0.4979 -0.3424 -0.7274
11831TIP3    H156908   0.991   6.618   0.251 -1.0357 -1.3749 -1.5986
11831TIP3    H256909   1.037   6.525   0.140  3.1229  0.1962 -1.3836
11832TIP3   OH256910   6.243   1.044  11.679 -0.0135 -0.4511 -0.3169
11832TIP3    H156911   6.207   1.057  11.591 -1.2084 -0.5519  0.1475
11832TIP3    H256912   6.337   1.063  11.669 -0.2151  0.0033 -1.5079
11833TIP3   OH256913   0.734   6.046  13.695  0.1109 -0.0549  0.3949
11833TIP3    H156914   0.813   6.007  13.658  1.6681  1.8084  1.6078
11833TIP3    H256915   0.719   6.125  13.644  0.2580  0.7004  1.5019
11834TIP3   OH256916   5.645   2.042  11.202  0.1066 -0.3348 -0.7522
11834TIP3    H156917   5.650   2.134  11.177  1.8824 -0.3254 -0.4483
11834TIP3    H256918   5.641   1.995  11.119 -3.2669  0.0469 -0.9444
11835TIP3   OH256919   0.190   3.386   6.581 -0.0684 -0.5981  0.1770
11835TIP3    H156920   0.182   3.354   6.671 -0.9200 -0.0177  0.3147
11835TIP3    H256921   0.106   3.426   6.562  0.8649  1.3780 -0.0532
11836TIP3   OH256922   1.970   3.437   5.230 -0.3402 -0.3410  0.8033
11836TIP3    H156923   2.050   3.448   5.281 -1.3908  0.4690  2.3702
11836TIP3    H256924   1.987   3.483   5.148  0.6413  0.1767  1.2846
11837TIP3   OH256925   0.253   5.471   2.504  0.4255  0.4384  0.2992
11837TIP3    H156926   0.184   5.506   2.561  0.2126 -0.2230  0.4600
11837TIP3    H256927   0.219   5.386   2.475  0.6854  0.6159 -0.5368
11838TIP3   OH256928   4.190   4.432  17.336  0.3056 -0.3505  0.2512
11838TIP3    H156929   4.272   4.479  17.355  0.5513  0.6297 -2.7404
11838TIP3    H256930   4.125   4.474  17.392  1.3583  0.6610  0.7625
11839TIP3   OH256931   2.310   6.673   1.616 -0.6351  0.0330  0.3805
11839TIP3    H156932   2.335   6.581   1.625 -2.6612 -0.6848 -0.6969
11839TIP3    H256933   2.224   6.671   1.573 -1.7732  2.3583  2.3021
11840TIP3   OH256934   6.627   6.538  17.316  0.3279  0.5618 -0.6317
11840TIP3    H156935   6.704   6.521  17.371  0.3209 -2.7380 -1.4903
11840TIP3    H256936   6.554   6.503  17.366 -0.4714  2.2740 -0.5264
11841TIP3   OH256937   5.086   4.385   5.370  0.2025 -0.1732  0.2935
11841TIP3    H156938   5.004   4.430   5.390  0.2695 -0.0236  0.2276
11841TIP3    H256939   5.097   4.396   5.276  1.4509  1.7538  0.6213
11842TIP3   OH256940   4.446   1.363   6.487 -0.1519  0.3264 -0.0047
11842TIP3    H156941   4.400   1.306   6.548  1.8176 -1.1602  0.2056
11842TIP3    H256942   4.427   1.452   6.517  1.7305 -0.3364  3.6152
11843TIP3   OH256943   1.678   1.830   2.482 -0.7655 -0.0669  0.3442
11843TIP3    H156944   1.646   1.777   2.409  0.4362 -0.4946  0.0939
11843TIP3    H256945   1.617   1.813   2.553 -0.9197 -1.0957 -0.0154
11844TIP3   OH256946   0.117   6.405   4.194  0.5298  0.1583  0.4743
11844TIP3    H156947   0.092   6.330   4.140  0.4469 -1.1683  2.2445
11844TIP3    H256948   0.118   6.480   4.134  0.3632 -1.2106 -1.2961
11845TIP3   OH256949   1.341   3.985   0.454 -0.2993  0.2877  0.4176
11845TIP3    H156950   1.307   4.004   0.366  0.0018  1.0354  0.4618
11845TIP3    H256951   1.270   3.937   0.497 -0.2851 -0.4688 -0.3782
11846TIP3   OH256952   2.657   4.217  16.624 -0.4493 -0.8917 -0.2659
11846TIP3    H156953   2.626   4.184  16.708 -0.9541  2.4837  1.0262
11846TIP3    H256954   2.742   4.255  16.642 -0.0349 -1.1365 -1.5604
11847TIP3   OH256955   5.857   2.479  15.958 -0.0172 -0.1478 -0.9067
11847TIP3    H156956   5.819   2.392  15.956  2.2917 -1.2091 -1.0364
11847TIP3    H256957   5.890   2.493  15.869 -1.9616  1.6672 -1.4276
11848TIP3   OH256958   6.303   1.351   1.694  0.1491  0.3096  0.1203
11848TIP3    H156959   6.277   1.429   1.743 -1.7522 -0.1820 -0.0290
11848TIP3    H256960   6.290   1.279   1.755  1.8873  0.0757  0.2507
11849TIP3   OH256961   2.917   6.504  16.696  0.6430 -0.0136  0.0725
11849TIP3    H156962   2.976   6.547  16.635 -0.0040 -0.1684 -0.6745
11849TIP3    H256963   2.903   6.417  16.660  0.2540 -0.1097  0.4410
11850TIP3   OH256964   2.798   6.331  15.744 -0.6819 -0.2167 -0.0192
11850TIP3    H156965   2.762   6.264  15.801 -0.9719 -0.6558 -0.7000
11850TIP3    H256966   2.870   6.288  15.698  1.5806  0.9830  2.1992
11851TIP3   OH256967   0.622   3.932  17.452 -0.0817 -0.2996 -0.2617
11851TIP3    H156968   0.659   3.872  17.517  2.4363  0.3971 -0.9438
11851TIP3    H256969   0.539   3.961  17.491  0.7028 -0.8893  2.0334
11852TIP3   OH256970   0.183   2.214  12.239 -0.4979 -0.4281  0.2598
11852TIP3    H156971   0.267   2.174  12.261 -0.7454 -0.2688  1.5649
11852TIP3    H256972   0.186   2.301  12.278 -0.9101 -0.0534 -0.5067
11853TIP3   OH256973   6.153   2.929   2.942 -0.2564 -0.1390  0.3627
11853TIP3    H156974   6.224   2.899   2.997 -1.4169  0.1842  2.1173
11853TIP3    H256975   6.106   2.994   2.995 -0.8810  0.9062 -1.3654
11854TIP3   OH256976   1.308   1.374   4.483  0.4980  0.5303 -0.3119
11854TIP3    H156977   1.305   1.290   4.530 -1.6979  0.3882 -0.5711
11854TIP3    H256978   1.336   1.350   4.395 -1.0751 -0.1562 -0.6746
11855TIP3   OH256979   4.749   5.499  15.108  0.1923  0.2159 -0.0309
11855TIP3    H156980   4.790   5.561  15.047  1.9149 -0.0995  0.7204
11855TIP3    H256981   4.655   5.514  15.099  0.4731  1.2613 -1.5999
11856TIP3   OH256982   3.484   1.966  13.836  0.0044  0.5064  0.0554
11856TIP3    H156983   3.572   1.996  13.860  0.3151 -0.5182  0.2523
11856TIP3    H256984   3.432   1.978  13.915 -0.2133  1.7443 -0.2602
11857TIP3   OH256985   4.013   1.628   1.931 -0.3695  0.4889  0.4481
11857TIP3    H156986   3.994   1.718   1.903 -2.7448 -0.4063 -1.1256
11857TIP3    H256987   3.984   1.624   2.022  0.0954  1.3807  0.6458
11858TIP3   OH256988   1.526   0.225  12.214  0.0900 -0.0049 -0.2660
11858TIP3    H156989   1.531   0.162  12.286  2.2069 -0.1589 -0.4789
11858TIP3    H256990   1.550   0.309  12.254 -0.4261  0.2348 -0.4539
11859TIP3   OH256991   4.678   0.080   7.192 -0.4613  0.2209 -0.2711
11859TIP3    H156992   4.716   0.146   7.249 -2.0696  1.4563 -0.5803
11859TIP3    H256993   4.731   0.001   7.209 -0.9297  0.4599  3.0234
11860TIP3   OH256994   2.334   2.906  13.765  0.2507  0.1270  0.5916
11860TIP3    H156995   2.389   2.832  13.786 -1.2831 -0.8223  1.4920
11860TIP3    H256996   2.352   2.970  13.834  1.9236  0.8356 -0.4535
11861TIP3   OH256997   5.356   0.571  12.859 -0.0475  0.0617  0.2887
11861TIP3    H156998   5.286   0.564  12.794 -1.1027 -1.9776  1.5152
11861TIP3    H256999   5.434   0.593  12.808 -1.0818 -0.1363 -1.4847
11862TIP3   OH257000   3.822   1.934   0.000  0.0282 -0.8427 -0.3055
11862TIP3    H157001   3.841   1.976  -0.084 -3.4375 -1.3501 -1.4966
11862TIP3    H257002   3.815   1.841  -0.020  0.7896 -1.2030  0.9364
11863TIP3   OH257003   5.168   0.705   2.385  0.0479 -0.0728  0.4485
11863TIP3    H157004   5.254   0.738   2.410  0.4741 -0.6113 -0.2661
11863TIP3    H257005   5.109   0.778   2.401  1.0039  1.1813 -1.3134
11864TIP3   OH257006   2.613   2.643   4.514 -0.3320  0.6327 -0.2245
11864TIP3    H157007   2.658   2.558   4.513  0.7607  1.1676 -1.8080
11864TIP3    H257008   2.599   2.662   4.606 -2.4828 -2.1773  0.1478
11865TIP3   OH257009   4.390   3.025  17.162 -0.1275  0.0742 -0.0946
11865TIP3    H157010   4.452   3.022  17.089  0.4028  0.7826  0.3107
11865TIP3    H257011   4.374   3.119  17.175 -1.7977 -0.0989 -0.6132
11866TIP3   OH257012   1.989   3.625  15.206  0.2004 -0.3520  0.1650
11866TIP3    H157013   1.903   3.596  15.236  0.5342 -0.6640  0.8331
11866TIP3    H257014   1.993   3.596  15.115 -2.0950  3.2986 -1.3491
11867TIP3   OH257015   1.796   0.197   2.345  0.0997 -0.0771 -0.2480
11867TIP3    H157016   1.728   0.135   2.319  0.2834 -0.4443  0.1492
11867TIP3    H257017   1.768   0.280   2.306 -0.1688 -0.3952 -0.7428
11868TIP3   OH257018   3.051   1.722   2.090 -0.2161  0.0989  0.3031
11868TIP3    H157019   2.994   1.748   2.162  0.8149 -1.7351  1.8760
11868TIP3    H257020   3.005   1.650   2.047 -0.2284  0.3310 -0.0879
11869TIP3   OH257021   0.316   1.592   2.622 -0.3455 -0.0081 -0.1947
11869TIP3    H157022   0.231   1.563   2.588 -0.3292 -0.3551  0.0505
11869TIP3    H257023   0.297   1.620   2.712 -0.2630  0.2452 -0.2550
11870TIP3   OH257024   1.961   3.298   1.865  0.0383 -0.4155 -0.1571
11870TIP3    H157025   1.894   3.366   1.853  0.7101  0.2187 -0.4112
11870TIP3    H257026   1.940   3.258   1.950  0.2834  0.8731  0.5362
11871TIP3   OH257027   4.706   6.027  14.122 -0.9502 -0.3717  0.4073
11871TIP3    H157028   4.792   5.997  14.091 -0.5029  0.4988  0.7709
11871TIP3    H257029   4.669   6.074  14.047 -0.3949  0.6668  0.7627
11872TIP3   OH257030   2.811   4.719  14.287 -0.5227  0.3672  0.0339
11872TIP3    H157031   2.850   4.690  14.205 -2.4517 -0.6450 -0.5943
11872TIP3    H257032   2.745   4.653  14.306 -0.8567  1.1671  1.8534
11873TIP3   OH257033   0.854   5.712   6.191 -0.3149 -0.2665  0.5332
11873TIP3    H157034   0.790   5.756   6.135  2.6225 -0.1300 -3.0536
11873TIP3    H257035   0.896   5.784   6.239 -1.3056 -0.1515  1.2684
11874TIP3   OH257036   1.592   4.602   1.846  0.0425  0.7843 -0.1649
11874TIP3    H157037   1.551   4.591   1.761 -0.0936  0.7596 -0.0960
11874TIP3    H257038   1.662   4.538   1.848 -0.3326  0.3745 -0.0221
11875TIP3   OH257039   6.127   4.672   5.524  0.0534  0.1371 -0.2261
11875TIP3    H157040   6.122   4.694   5.431 -1.4997  2.1239  0.2735
11875TIP3    H257041   6.064   4.601   5.535  1.1969 -1.0430 -0.8658
11876TIP3   OH257042   4.993   1.423  17.168 -0.6460 -0.1498 -0.3481
11876TIP3    H157043   4.981   1.394  17.078 -0.7287 -0.4696 -0.2386
11876TIP3    H257044   5.086   1.408  17.186 -0.2383  1.5217 -0.9195
11877TIP3   OH257045   5.910   2.017  13.848 -0.1455 -0.0396 -0.5329
11877TIP3    H157046   5.914   2.102  13.891 -1.1652  0.7647 -1.9506
11877TIP3    H257047   5.818   2.004  13.826  0.0307 -1.3851 -0.5985
11878TIP3   OH257048   3.372   3.341  14.121 -0.0709  0.8840  0.3396
11878TIP3    H157049   3.438   3.410  14.113  0.3065  0.4466 -0.5051
11878TIP3    H257050   3.372   3.298  14.036 -1.6397  1.0288  0.2402
11879TIP3   OH257051   0.162   2.220  12.892 -0.1664 -0.3289 -0.2884
11879TIP3    H157052   0.112   2.300  12.908  0.6528 -0.0239  0.9237
11879TIP3    H257053   0.136   2.161  12.963 -1.0919 -1.3245 -1.4183
11880TIP3   OH257054   3.041   2.885  15.651 -0.2977  0.1112 -0.6172
11880TIP3    H157055   3.012   2.878  15.560 -1.9249  1.5992 -0.2739
11880TIP3    H257056   3.068   2.976  15.661  1.9074 -0.5468 -0.1372
11881TIP3   OH257057   2.036   5.330  12.905  0.1291 -0.4721 -0.2676
11881TIP3    H157058   2.105   5.317  12.840  0.5092  0.1574 -0.0007
11881TIP3    H257059   2.072   5.293  12.986 -0.1207 -0.7518 -0.2808
11882TIP3   OH257060   3.678   2.878   4.488  0.0753  0.6944  0.2167
11882TIP3    H157061   3.713   2.789   4.489 -0.2581  0.5476 -0.8098
11882TIP3    H257062   3.587   2.868   4.461  0.1755  1.3966 -0.4036
11883TIP3   OH257063   3.397   6.389   0.010  0.3869 -0.3653 -0.5464
11883TIP3    H157064   3.413   6.443   0.087  1.2088 -1.0642 -0.2073
11883TIP3    H257065   3.351   6.447  -0.051 -0.9032 -0.0043  0.7226
11884TIP3   OH257066   4.360   1.556  16.855  0.3539 -0.2155 -0.2301
11884TIP3    H157067   4.326   1.628  16.802  1.1492  1.4331  1.3783
11884TIP3    H257068   4.300   1.549  16.929  0.6381 -0.7592 -0.0412
11885TIP3   OH257069   6.312   0.429   4.273  0.4436 -0.2499  0.0891
11885TIP3    H157070   6.354   0.514   4.285  1.2310 -0.3065 -1.9079
11885TIP3    H257071   6.373   0.366   4.312  1.4453 -0.1678 -1.2692
11886TIP3   OH257072   3.940   4.790  13.424 -0.4927 -0.1549 -0.5285
11886TIP3    H157073   3.982   4.874  13.403  2.0660 -1.6603 -1.9391
11886TIP3    H257074   3.919   4.751  13.340 -2.7863 -0.4977  0.1262
11887TIP3   OH257075   6.110   1.547  14.387  0.4722 -0.2910  0.2062
11887TIP3    H157076   6.055   1.534  14.309  0.5643  0.6327 -0.0290
11887TIP3    H257077   6.194   1.576  14.352  0.6314 -0.2279  0.6360
11888TIP3   OH257078   4.079   0.429  13.653  0.1733  0.7311  0.2565
11888TIP3    H157079   4.029   0.348  13.646  0.3957  0.6543 -0.4461
11888TIP3    H257080   4.135   0.430  13.576  1.1311  0.9111  0.9466
11889TIP3   OH257081   5.901   3.155  12.137  0.2965  0.2065 -0.4295
11889TIP3    H157082   5.862   3.114  12.061  1.5472 -1.1775 -0.3720
11889TIP3    H257083   5.869   3.245  12.135 -0.6402 -0.1310 -1.9032
11890TIP3   OH257084   1.732   5.679  12.618 -0.4179  0.1600 -0.4561
11890TIP3    H157085   1.794   5.623  12.665  1.4391  1.0031 -1.7506
11890TIP3    H257086   1.762   5.676  12.527 -0.2918  3.1154 -0.6036
11891TIP3   OH257087   6.233   4.805  14.002 -0.5149 -0.1443 -0.3008
11891TIP3    H157088   6.205   4.751  13.928  1.9887 -0.1928 -1.3075
11891TIP3    H257089   6.315   4.766  14.031  0.7304  2.3448 -0.2351
11892TIP3   OH257090   2.717   6.248   3.584  0.3112  0.0331  0.4464
11892TIP3    H157091   2.795   6.262   3.638  1.0232  1.8969 -0.9693
11892TIP3    H257092   2.722   6.156   3.558  1.9713  0.0802  0.5031
11893TIP3   OH257093   1.141   4.461   0.636  0.6069  0.2819  0.1585
11893TIP3    H157094   1.050   4.484   0.619  0.8207  0.8479 -0.2408
11893TIP3    H257095   1.188   4.490   0.558  0.8360 -1.8985 -0.5874
11894TIP3   OH257096   1.844   5.304  17.269  0.2349  0.7058  0.4870
11894TIP3    H157097   1.894   5.287  17.349  0.8512 -0.5967 -0.1487
11894TIP3    H257098   1.758   5.265  17.285  1.0753 -1.6501 -0.2889
11895TIP3   OH257099   0.118   5.438  14.968  0.1145  0.6778 -0.1659
11895TIP3    H157100   0.036   5.488  14.971 -1.8178 -2.1579 -0.8790
11895TIP3    H257101   0.149   5.437  15.058  0.4968  3.3989 -0.1839
11896TIP3   OH257102   5.689   1.764   4.497 -0.6860 -0.1040  0.3184
11896TIP3    H157103   5.777   1.767   4.535  0.1913 -1.4630 -1.4656
11896TIP3    H257104   5.701   1.786   4.405 -2.3065  0.1198  0.1205
11897TIP3   OH257105   5.748   2.156  15.168 -0.1502  0.4736 -0.2858
11897TIP3    H157106   5.831   2.205  15.165 -0.2145  0.5742 -0.4591
11897TIP3    H257107   5.772   2.067  15.146 -0.0551  0.4576 -0.1249
11898TIP3   OH257108   6.309   4.468   5.021 -0.4803  0.3079  0.0579
11898TIP3    H157109   6.314   4.559   5.049 -2.5653  0.6427 -0.5314
11898TIP3    H257110   6.398   4.446   4.995  0.0702  2.1589  0.2528
11899TIP3   OH257111   0.790   2.584  17.563  0.6310 -0.2650  0.2897
11899TIP3    H157112   0.848   2.509  17.557  0.7404 -0.0926 -1.5273
11899TIP3    H257113   0.716   2.562  17.506  0.1418  0.5569  0.5867
11900TIP3   OH257114   5.571   5.076   5.184 -0.0472 -0.4608 -0.1721
11900TIP3    H157115   5.583   5.171   5.180 -0.4272 -0.4472 -1.4710
11900TIP3    H257116   5.577   5.055   5.277  1.7221  0.6129 -0.0031
11901TIP3   OH257117   5.018   3.251  14.623  0.0780  0.2453  0.1354
11901TIP3    H157118   5.075   3.175  14.615 -1.3730 -0.7290 -1.7353
11901TIP3    H257119   5.078   3.326  14.616  1.3629 -0.7044  0.5523
11902TIP3   OH257120   3.309   2.709   4.058 -0.8786 -0.3399  0.3750
11902TIP3    H157121   3.273   2.633   4.103 -0.3956 -0.9684 -0.2723
11902TIP3    H257122   3.259   2.715   3.976 -1.2272  0.3235  0.6321
11903TIP3   OH257123   4.929   1.150  16.947  0.4880  0.0979  0.0086
11903TIP3    H157124   4.966   1.236  16.928 -0.5444  0.3719 -0.8575
11903TIP3    H257125   4.944   1.099  16.867 -2.9240  0.9180 -1.3199
11904TIP3   OH257126   2.099   5.240   3.687  0.3011 -0.0720  0.1113
11904TIP3    H157127   2.118   5.177   3.757 -1.3720 -1.1272 -0.3430
11904TIP3    H257128   2.005   5.255   3.694  0.4879  1.5621 -0.5005
11905TIP3   OH257129   3.520   5.655   4.600  0.3294 -0.0376  0.1606
11905TIP3    H157130   3.566   5.735   4.573 -0.4260 -0.0175 -1.1441
11905TIP3    H257131   3.476   5.680   4.682  2.6789 -0.1033  1.5150
11906TIP3   OH257132   5.263   1.085   5.957 -0.1901 -0.1689 -0.2493
11906TIP3    H157133   5.254   0.992   5.976 -3.2687 -0.5260 -2.5498
11906TIP3    H257134   5.175   1.121   5.971  0.3438  1.8889 -1.6633
11907TIP3   OH257135   3.962   5.976  12.867 -0.1897 -0.0864  0.4551
11907TIP3    H157136   4.047   6.003  12.903 -0.4912 -0.3105  1.3597
11907TIP3    H257137   3.952   5.885  12.894 -0.5558 -0.1725  0.0348
11908TIP3   OH257138   2.365   6.269  13.127 -0.6667 -0.3382  0.1139
11908TIP3    H157139   2.426   6.314  13.186  0.1449 -1.7218  0.3633
11908TIP3    H257140   2.335   6.338  13.067  1.6811  0.2733 -0.4677
11909TIP3   OH257141   4.166   2.800   6.894  0.3609 -0.0374  0.1766
11909TIP3    H157142   4.232   2.785   6.828 -0.8297 -1.2172 -0.7891
11909TIP3    H257143   4.208   2.775   6.977  0.1634 -3.9526 -0.7562
11910TIP3   OH257144   4.547   1.616   4.849 -0.1501  0.6045 -0.8577
11910TIP3    H157145   4.482   1.683   4.870 -2.4026 -1.3335 -1.3509
11910TIP3    H257146   4.497   1.543   4.813  2.1428 -1.5519  0.0084
11911TIP3   OH257147   6.350   3.594   6.193  0.0823 -0.3107 -0.3715
11911TIP3    H157148   6.389   3.611   6.278 -1.0985  0.5010  0.0360
11911TIP3    H257149   6.295   3.517   6.206 -0.2291 -0.0881 -0.3422
11912TIP3   OH257150   3.745   1.100   6.258  0.1342 -0.6486 -0.0949
11912TIP3    H157151   3.782   1.101   6.169 -0.1543 -1.2581 -0.2266
11912TIP3    H257152   3.702   1.015   6.265  1.8835 -1.4712  1.3528
11913TIP3   OH257153   6.125   5.028   2.221  0.5728  0.2306  0.0820
11913TIP3    H157154   6.190   5.098   2.217  1.3257 -0.5181 -2.4889
11913TIP3    H257155   6.062   5.058   2.287  2.1618  2.1488  0.8276
11914TIP3   OH257156   1.444   6.427  11.692  0.8305 -0.3289  0.3118
11914TIP3    H157157   1.527   6.465  11.722  1.5225 -0.4386 -1.3708
11914TIP3    H257158   1.469   6.368  11.621 -0.9357  2.5754 -3.0532
11915TIP3   OH257159   4.072   1.881   3.494  0.1260  0.0271 -0.0217
11915TIP3    H157160   4.032   1.813   3.549 -1.3906 -0.0900 -1.2080
11915TIP3    H257161   4.075   1.959   3.550  2.3751 -1.0545  1.5469
11916TIP3   OH257162   6.575   6.598   0.005 -0.2179  0.1413  0.0355
11916TIP3    H157163   6.614   6.654   0.072  0.9316 -1.8152  1.0800
11916TIP3    H257164   6.649   6.563  -0.044 -0.8845 -0.6329 -0.4571
11917TIP3   OH257165   5.418   2.188   5.535  0.1421 -0.1716  0.0418
11917TIP3    H157166   5.384   2.140   5.459  0.1261  0.1850 -0.1816
11917TIP3    H257167   5.349   2.252   5.555 -0.3725 -1.0395  1.0946
11918TIP3   OH257168   3.289   0.665   2.599  0.4096  0.0115  0.1494
11918TIP3    H157169   3.306   0.691   2.509 -2.0087 -1.3411 -0.7951
11918TIP3    H257170   3.229   0.732   2.633  0.0519 -0.3265  0.1967
11919TIP3   OH257171   5.218   3.607  16.155  0.4878  0.3088  0.0765
11919TIP3    H157172   5.199   3.679  16.094  0.9835 -0.0915 -0.5587
11919TIP3    H257173   5.203   3.645  16.242  0.0412  0.9673 -0.2795
11920TIP3   OH257174   2.220   5.150  17.000  0.3339 -0.5264 -0.2112
11920TIP3    H157175   2.289   5.085  17.011 -0.7171 -1.3738  1.8211
11920TIP3    H257176   2.265   5.234  17.006  1.0775 -1.0252  2.8562
11921TIP3   OH257177   5.615   0.086   3.531  0.3476 -0.0406 -0.6665
11921TIP3    H157178   5.706   0.114   3.530  0.1292  0.6997 -0.5896
11921TIP3    H257179   5.575   0.134   3.458 -0.2060  0.4586 -0.0543
11922TIP3   OH257180   4.718   4.082  12.226 -0.2583 -0.2212 -0.1036
11922TIP3    H157181   4.634   4.115  12.196 -0.3040 -0.3873 -0.1577
11922TIP3    H257182   4.763   4.053  12.147  0.0996  0.4265 -0.1534
11923TIP3   OH257183   4.238   6.130  16.954  0.5692 -0.0568  0.1012
11923TIP3    H157184   4.199   6.049  16.988  1.7715 -1.4270 -1.6029
11923TIP3    H257185   4.177   6.159  16.886  0.8516 -0.3323 -0.2698
11924TIP3   OH257186   3.872   0.869   1.271  0.3643  0.3678 -0.4728
11924TIP3    H157187   3.840   0.812   1.341  1.6223  1.0350  0.6690
11924TIP3    H257188   3.945   0.821   1.233  0.2426  0.4079 -0.7613
11925TIP3   OH257189   5.299   4.940   5.875  0.1551  0.3988 -0.1163
11925TIP3    H157190   5.284   4.971   5.964  2.2524 -1.4379  0.9742
11925TIP3    H257191   5.318   4.847   5.884  1.5435  0.3783 -2.3608
11926TIP3   OH257192   6.135   1.512  12.038  0.1136 -0.1234  0.2775
11926TIP3    H157193   6.111   1.533  11.948  0.6108 -1.2563 -0.1335
11926TIP3    H257194   6.230   1.503  12.036  0.0475 -0.9937  0.7306
11927TIP3   OH257195   3.966   6.004  14.552 -0.9221 -0.4648 -0.4838
11927TIP3    H157196   4.002   6.019  14.464 -1.5840 -1.8964 -1.0243
11927TIP3    H257197   3.881   5.962  14.537 -1.0149 -0.8026  0.8397
11928TIP3   OH257198   6.089   3.300   0.503 -0.6218  0.1585 -0.1955
11928TIP3    H157199   6.068   3.348   0.583 -2.4982  0.4161 -0.7866
11928TIP3    H257200   6.174   3.261   0.520 -0.6781  0.7424  1.6748
11929TIP3   OH257201   1.749   5.084   5.952 -0.3352  0.0532 -0.0856
11929TIP3    H157202   1.755   5.010   6.013  2.4511  0.4248  0.2092
11929TIP3    H257203   1.813   5.065   5.884 -0.1197  1.8082 -0.4299
11930TIP3   OH257204   0.303   3.349   0.252  0.3312  0.1960 -0.6228
11930TIP3    H157205   0.388   3.306   0.256 -0.2932 -1.6201 -3.6428
11930TIP3    H257206   0.269   3.345   0.341  3.0003  0.2666  0.5018
11931TIP3   OH257207   6.541   2.784   2.202  0.2852 -0.0734  0.0830
11931TIP3    H157208   6.450   2.785   2.170  0.5134 -0.4689 -0.6117
11931TIP3    H257209   6.593   2.765   2.124  0.8807 -0.9943  0.6834
11932TIP3   OH257210   1.635   6.467  14.601 -0.2388  0.0288  0.0133
11932TIP3    H157211   1.541   6.450  14.597  0.0792 -1.8684  0.0160
11932TIP3    H257212   1.646   6.551  14.556 -1.5294 -1.3464 -3.1570
11933TIP3   OH257213   1.584   1.954  10.846  0.3159 -0.1638  0.1655
11933TIP3    H157214   1.509   1.897  10.828  2.4805 -3.2314  0.1439
11933TIP3    H257215   1.633   1.908  10.914  1.0484  2.9083  1.9085
11934TIP3   OH257216   2.828   5.802  11.287 -0.6776  0.0271  0.0865
11934TIP3    H157217   2.890   5.807  11.215 -1.1000  2.6947 -0.1964
11934TIP3    H257218   2.744   5.782  11.246 -0.7042  0.3368 -0.0073
11935TIP3   OH257219   3.259   0.422  15.961  0.4522  0.1346  0.3009
11935TIP3    H157220   3.187   0.365  15.989  0.1539  0.7336  0.7843
11935TIP3    H257221   3.307   0.441  16.042  1.2701 -0.4051 -0.0478
11936TIP3   OH257222   3.194   5.666   6.225  0.4043 -0.4904 -0.4565
11936TIP3    H157223   3.286   5.660   6.253  0.2107 -1.7633 -0.0501
11936TIP3    H257224   3.196   5.646   6.131  0.9843  3.2599 -1.4352
11937TIP3   OH257225   6.263   6.465  17.101  0.6585 -0.2809 -1.0971
11937TIP3    H157226   6.355   6.442  17.105  1.0421  1.1530 -1.3409
11937TIP3    H257227   6.248   6.489  17.009  0.5332  1.3580 -0.6783
11938TIP3   OH257228   2.808   3.816  16.257 -0.0401  0.1777 -0.2982
11938TIP3    H157229   2.728   3.781  16.219 -1.0559 -0.8092  2.4953
11938TIP3    H257230   2.873   3.746  16.248 -0.4574 -0.2957  0.3112
11939TIP3   OH257231   4.902   5.241  15.005 -0.8377 -0.2259  0.4341
11939TIP3    H157232   4.987   5.274  15.035 -0.3027 -0.9928 -0.1976
11939TIP3    H257233   4.843   5.315  15.016  0.1660  0.7187 -0.2401
11940TIP3   OH257234   0.851   4.161  13.442 -0.5474  0.1404  0.7481
11940TIP3    H157235   0.849   4.242  13.491 -1.0404 -0.2003  1.2965
11940TIP3    H257236   0.887   4.096  13.503  0.1682  0.0086  0.2098
11941TIP3   OH257237   4.640   2.944   0.751 -0.4548 -0.4231  0.6229
11941TIP3    H157238   4.688   3.000   0.689  0.4858 -3.2213 -1.3700
11941TIP3    H257239   4.559   2.922   0.705 -1.9515  1.1192  2.3780
11942TIP3   OH257240   1.612   3.260   2.697 -0.3928  0.4642 -0.0539
11942TIP3    H157241   1.527   3.254   2.654  0.8610 -0.7596 -2.5980
11942TIP3    H257242   1.600   3.326   2.766 -3.3718  0.2681 -0.2614
11943TIP3   OH257243   1.043   1.708   0.643  0.3217  0.3980 -0.3072
11943TIP3    H157244   1.104   1.646   0.683  1.7409  2.0579  0.2296
11943TIP3    H257245   0.985   1.734   0.714  1.1594  1.3445  0.0533
11944TIP3   OH257246   3.007   5.788  15.828 -0.1960  0.2346 -0.2726
11944TIP3    H157247   3.022   5.752  15.916  1.2125  1.6861  0.1185
11944TIP3    H257248   3.013   5.712  15.770 -1.8868 -0.8712  0.9146
11945TIP3   OH257249   6.172   6.042   6.133 -0.1697 -0.2368 -0.1599
11945TIP3    H157250   6.194   5.976   6.199  2.1758 -1.5444 -2.1038
11945TIP3    H257251   6.133   5.992   6.061  0.2749  0.6998 -1.0717
11946TIP3   OH257252   5.779   4.192  12.846 -0.7741  0.3165  0.1555
11946TIP3    H157253   5.850   4.247  12.811 -0.0454  0.2887  1.5268
11946TIP3    H257254   5.721   4.178  12.771  1.1532 -0.4727 -1.2992
11947TIP3   OH257255   0.515   4.312  15.505 -0.0034 -0.0141 -0.7134
11947TIP3    H157256   0.594   4.359  15.531 -0.4740 -0.2649  1.2832
11947TIP3    H257257   0.512   4.235  15.561 -3.3122  1.6241  1.6967
11948TIP3   OH257258   1.781   1.183  11.094  0.3577 -0.2371  0.1506
11948TIP3    H157259   1.718   1.254  11.103  0.2541 -0.3325  0.1796
11948TIP3    H257260   1.829   1.204  11.013 -1.0538 -1.1948 -0.9872
11949TIP3   OH257261   2.824   6.542  13.811  0.1657  0.3872 -0.1642
11949TIP3    H157262   2.813   6.459  13.857 -0.5365  0.4148 -0.2750
11949TIP3    H257263   2.835   6.607  13.881 -0.6802  0.3953 -0.0207
11950TIP3   OH257264   1.105   1.005  13.162 -0.0299  0.2166 -0.2662
11950TIP3    H157265   1.086   1.081  13.107  0.4527  0.0810 -0.6275
11950TIP3    H257266   1.138   1.042  13.244  0.1718  0.3984 -0.4296
11951TIP3   OH257267   5.574   6.560   1.100  0.2030 -0.0471 -0.2908
11951TIP3    H157268   5.557   6.654   1.093 -1.1072 -0.0095  2.2037
11951TIP3    H257269   5.657   6.553   1.145  1.0168 -0.1504 -1.7404
11952TIP3   OH257270   2.884   0.082  16.911 -0.7418 -0.3610 -0.1064
11952TIP3    H157271   2.885   0.086  16.815  1.2342  0.8161 -0.0940
11952TIP3    H257272   2.817   0.145  16.936 -0.9951 -0.3830 -0.7066
11953TIP3   OH257273   0.452   1.710  15.409  0.2394 -0.0936  0.2188
11953TIP3    H157274   0.457   1.804  15.391 -0.4528 -0.0980 -0.0026
11953TIP3    H257275   0.538   1.688  15.446  0.8259  0.3912 -0.8176
11954TIP3   OH257276   5.096   5.429   3.572  0.8097 -0.3674  0.4027
11954TIP3    H157277   5.094   5.498   3.638  1.1626  0.2396 -0.2094
11954TIP3    H257278   5.049   5.465   3.497  1.1856 -0.7039 -0.0028
11955TIP3   OH257279   2.799   3.469  13.253  0.6591  0.3479 -0.5438
11955TIP3    H157280   2.821   3.562  13.257 -2.0602  1.0321  2.4608
11955TIP3    H257281   2.836   3.432  13.332  0.3651 -0.7775 -0.9139
11956TIP3   OH257282   3.009   4.085  16.575  0.0286  0.1498  0.4229
11956TIP3    H157283   2.981   4.016  16.636 -0.9446  2.0803  2.2987
11956TIP3    H257284   3.010   4.043  16.489  3.5816 -3.3867  1.8443
11957TIP3   OH257285   6.430   4.200  14.814 -0.0263 -0.1095  0.1854
11957TIP3    H157286   6.401   4.285  14.780  1.0549  0.2959  0.2244
11957TIP3    H257287   6.431   4.212  14.909 -2.3786 -1.0230  0.3911
11958TIP3   OH257288   1.056   3.371   3.649 -0.4045 -0.1193  0.1439
11958TIP3    H157289   1.110   3.329   3.715  1.4454  0.1491 -1.1316
11958TIP3    H257290   1.054   3.463   3.674  1.1000  0.1556 -0.6530
11959TIP3   OH257291   5.953   0.329   5.562  0.3816  0.2087  0.1439
11959TIP3    H157292   5.888   0.334   5.632  1.3440  1.7752  0.9916
11959TIP3    H257293   5.933   0.404   5.506  0.8494  0.1405 -0.1212
11960TIP3   OH257294   4.849   3.053   2.745 -0.3899 -0.5277  0.4822
11960TIP3    H157295   4.812   3.114   2.809 -0.1860  0.5876 -0.4228
11960TIP3    H257296   4.776   3.032   2.687 -0.7217 -1.9908  1.3766
11961TIP3   OH257297   6.207   5.018  17.499  0.4154 -0.0674 -0.2794
11961TIP3    H157298   6.153   5.061  17.432 -1.9254 -0.1929  1.4035
11961TIP3    H257299   6.241   5.090  17.552 -0.6063 -0.1053  0.4444
11962TIP3   OH257300   2.157   2.247  16.395 -0.0014  0.0621  0.2905
11962TIP3    H157301   2.132   2.213  16.309 -1.6456  0.1981  0.6833
11962TIP3    H257302   2.186   2.169  16.443 -1.1792 -0.3756  0.3149
11963TIP3   OH257303   5.012   6.228   3.328 -0.7685 -0.2213 -0.2106
11963TIP3    H157304   5.018   6.271   3.242  2.6866 -1.2661 -0.6631
11963TIP3    H257305   5.009   6.134   3.308 -0.0155 -0.4763  0.7660
11964TIP3   OH257306   4.459   2.586  12.708 -0.5449  0.6904  0.1830
11964TIP3    H157307   4.540   2.557  12.668 -0.8578  1.9386 -1.4612
11964TIP3    H257308   4.477   2.585  12.802  0.2607 -2.2079  0.1022
11965TIP3   OH257309   0.920   1.671   3.173  0.7991  0.3242  0.5754
11965TIP3    H157310   0.970   1.735   3.224  1.3093  1.4650 -1.2825
11965TIP3    H257311   0.964   1.667   3.089 -0.5709 -0.8107 -0.1384
11966TIP3   OH257312   2.940   5.989   3.972 -0.0966 -0.5842  0.5852
11966TIP3    H157313   2.944   6.068   4.025  0.2556 -0.4166  0.3085
11966TIP3    H257314   3.018   5.992   3.917 -0.4520 -0.7641  0.0629
11967TIP3   OH257315   0.046   6.701  15.514  0.2086  0.8886 -0.0908
11967TIP3    H157316   0.135   6.721  15.542  0.3273  0.9541 -0.5004
11967TIP3    H257317  -0.006   6.706  15.594  0.5481  0.9904  0.1274
11968TIP3   OH257318   1.207   3.517  11.151  0.0574 -0.4243  0.4270
11968TIP3    H157319   1.187   3.452  11.084  0.3674 -1.1282  1.0185
11968TIP3    H257320   1.279   3.569  11.114 -1.2827  0.6856 -0.7589
11969TIP3   OH257321   6.602   2.853   2.997 -0.5904 -0.0230  0.2983
11969TIP3    H157322   6.571   2.774   3.041  0.2374 -0.0143  0.9030
11969TIP3    H257323   6.539   2.920   3.022 -0.7660 -0.2756  0.5392
11970TIP3   OH257324   4.562   1.344   4.354 -0.1473 -0.5699  0.7240
11970TIP3    H157325   4.548   1.435   4.326  0.3035 -0.7150  0.0072
11970TIP3    H257326   4.647   1.346   4.399 -0.3484 -0.5531  1.1054
11971TIP3   OH257327   1.507   4.720  14.993  0.3516  0.4967 -0.7353
11971TIP3    H157328   1.563   4.782  14.946  0.0927  1.1010 -0.2691
11971TIP3    H257329   1.473   4.770  15.067 -0.1256 -0.1143 -0.5300
11972TIP3   OH257330   1.538   4.878   4.216 -0.2408 -0.3672 -0.0348
11972TIP3    H157331   1.456   4.903   4.174 -0.6542 -0.7462  0.5297
11972TIP3    H257332   1.536   4.783   4.217  0.4025 -0.3832 -0.3973
11973TIP3   OH257333   6.509   0.919  14.803  0.0282 -0.0114  0.3329
11973TIP3    H157334   6.569   0.892  14.872  0.3453 -2.8021 -0.8711
11973TIP3    H257335   6.565   0.928  14.725 -0.0622  4.5190  0.5541
11974TIP3   OH257336   2.878   5.696   1.439 -0.3438 -0.1274 -0.6215
11974TIP3    H157337   2.896   5.615   1.391  3.7097  1.1046 -1.5526
11974TIP3    H257338   2.904   5.766   1.380  0.4709  1.6631  1.6903
11975TIP3   OH257339   3.152   3.533  14.044 -0.6187 -0.3652 -0.0484
11975TIP3    H157340   3.225   3.471  14.051  1.3799  1.7467 -0.7345
11975TIP3    H257341   3.160   3.588  14.122 -0.7284  0.6057 -0.6970
11976TIP3   OH257342   2.619   2.986   2.774 -0.1162  0.1157 -0.3754
11976TIP3    H157343   2.623   3.075   2.740 -1.1535  0.0509 -0.6978
11976TIP3    H257344   2.653   2.931   2.704  2.0601  0.3758  0.4156
11977TIP3   OH257345   1.932   1.618  14.362  0.1990  0.1287 -0.3764
11977TIP3    H157346   1.889   1.574  14.435 -0.7279  1.5724  0.0002
11977TIP3    H257347   1.869   1.684  14.333  0.3660 -0.6642 -2.7808
11978TIP3   OH257348   5.348   3.547   5.651 -0.4855  0.0000 -0.0181
11978TIP3    H157349   5.283   3.592   5.597 -2.2911  0.7676  2.5869
11978TIP3    H257350   5.332   3.454   5.635 -2.0597  0.1839  0.2927
11979TIP3   OH257351   6.412   3.505  17.591  0.3147  0.1685  0.0790
11979TIP3    H157352   6.445   3.595  17.586 -0.5650  0.4852 -0.2917
11979TIP3    H257353   6.463   3.465  17.661  1.4030  0.6608 -0.4138
11980TIP3   OH257354   1.844   0.311  14.791  0.1916 -0.5042  0.4383
11980TIP3    H157355   1.831   0.299  14.885 -1.1616 -0.8268  0.2438
11980TIP3    H257356   1.847   0.406  14.779 -1.6891 -0.3842  0.6122
11981TIP3   OH257357   6.557   4.494  11.978 -0.0540  0.3715 -0.2058
11981TIP3    H157358   6.630   4.545  12.013  0.5072  0.5715 -1.5790
11981TIP3    H257359   6.491   4.560  11.953 -1.5455  0.1134  2.6761
11982TIP3   OH257360   3.488   6.470   1.998 -0.1390  0.1899  0.4446
11982TIP3    H157361   3.492   6.411   2.073  0.9434  0.6967  0.8077
11982TIP3    H257362   3.570   6.456   1.951 -0.0055  1.1535  0.3582
11983TIP3   OH257363   2.331   5.721   3.895  0.3579  0.6548 -0.5374
11983TIP3    H157364   2.382   5.642   3.912  0.4522  1.0523  1.2225
11983TIP3    H257365   2.251   5.689   3.853  1.6691 -0.0516 -2.6327
11984TIP3   OH257366   0.014   1.288   1.541  0.5405 -0.4239  1.1404
11984TIP3    H157367  -0.012   1.345   1.469  2.6300  0.6302  1.1415
11984TIP3    H257368   0.022   1.201   1.502 -0.7276 -0.3596  0.6917
11985TIP3   OH257369   3.157   5.105  10.811 -0.0207 -0.2256  0.5815
11985TIP3    H157370   3.168   5.150  10.728  0.1218 -3.1479 -1.1440
11985TIP3    H257371   3.065   5.118  10.833 -1.2886 -2.8255 -2.3991
11986TIP3   OH257372   0.002   3.477   5.859 -0.0271  0.2136  0.1877
11986TIP3    H157373  -0.085   3.474   5.820  0.5822  1.2186 -1.3634
11986TIP3    H257374   0.011   3.566   5.893 -0.4011 -0.5393  2.3890
11987TIP3   OH257375   2.363   2.610  11.931  0.2422  0.6979  0.2886
11987TIP3    H157376   2.365   2.600  11.836  2.1176  1.1431  0.2428
11987TIP3    H257377   2.387   2.702  11.946 -0.8760  0.8608  1.1761
11988TIP3   OH257378   2.314   5.434  17.622 -0.0773 -0.1327  0.5040
11988TIP3    H157379   2.387   5.395  17.670  0.4982  1.0071  0.5883
11988TIP3    H257380   2.349   5.517  17.589 -1.3701  0.4866  0.6487
11989TIP3   OH257381   5.348   2.419  15.890 -0.3117 -0.3064 -0.4794
11989TIP3    H157382   5.359   2.403  15.796  0.0601 -1.6588 -0.2291
11989TIP3    H257383   5.277   2.483  15.895  0.2641  0.4766 -1.7084
11990TIP3   OH257384   4.670   0.153  11.650  0.6028 -0.0070 -0.1317
11990TIP3    H157385   4.663   0.091  11.723  0.2106  1.1158  0.8261
11990TIP3    H257386   4.744   0.208  11.673  0.7839  0.0532 -0.8438
11991TIP3   OH257387   3.085   5.561  11.802 -0.0617 -0.3907 -0.1512
11991TIP3    H157388   3.076   5.549  11.708  1.8045  0.0534 -0.4241
11991TIP3    H257389   3.004   5.605  11.829 -0.2450  0.2786 -1.7050
11992TIP3   OH257390   5.525   5.191  13.052  0.4292 -0.1278  0.2220
11992TIP3    H157391   5.556   5.169  12.965  1.0751 -1.2394  0.7148
11992TIP3    H257392   5.599   5.234  13.094 -0.2337  1.4034 -0.1205
11993TIP3   OH257393   1.936   6.258  12.688  0.5875  0.2255 -0.2333
11993TIP3    H157394   1.890   6.250  12.772  0.9233  0.1567 -0.0525
11993TIP3    H257395   1.954   6.167  12.663 -1.4289  0.1115 -1.4669
11994TIP3   OH257396   5.802   2.466   1.531  0.0884 -0.0591  0.1927
11994TIP3    H157397   5.771   2.499   1.616  1.0434 -0.3100  0.6490
11994TIP3    H257398   5.770   2.531   1.468 -1.6738 -0.4897  0.5735
11995TIP3   OH257399   1.040   0.575   2.657 -0.2753 -0.1691  0.0571
11995TIP3    H157400   0.951   0.579   2.691 -0.6398  3.2173 -0.8362
11995TIP3    H257401   1.078   0.660   2.681  1.8623 -0.5607 -1.6391
11996TIP3   OH257402   0.609   5.095  14.486 -0.0325 -0.4207 -0.2525
11996TIP3    H157403   0.678   5.141  14.438 -0.3688 -0.1364 -0.4689
11996TIP3    H257404   0.534   5.095  14.426 -0.3750 -0.2960  0.1718
11997TIP3   OH257405   3.098   3.258  14.777  0.0689  0.2232 -0.0949
11997TIP3    H157406   3.103   3.353  14.779 -0.6096  0.3178 -1.4935
11997TIP3    H257407   3.055   3.234  14.859 -0.3019  1.1737 -0.0043
11998TIP3   OH257408   0.180   4.184   6.284  0.6626  0.1180  0.3117
11998TIP3    H157409   0.131   4.103   6.268  0.7536  0.3683 -1.4243
11998TIP3    H257410   0.134   4.251   6.234  0.7473  1.1127  1.5153
11999TIP3   OH257411   6.519   3.911   4.130  0.1013 -0.2770 -0.3961
11999TIP3    H157412   6.585   3.975   4.155  0.7019  0.0372 -2.6107
11999TIP3    H257413   6.569   3.831   4.114 -0.4066 -0.7739  0.4159
12000TIP3   OH257414   2.087   4.012  14.454 -0.1337 -0.4984 -0.0900
12000TIP3    H157415   2.037   4.009  14.536 -0.4944 -1.8304 -0.3414
12000TIP3    H257416   2.042   3.951  14.396  0.4252  0.0392 -1.1198
12001TIP3   OH257417   1.255   4.905   1.333  0.8765  0.1992 -0.1470
12001TIP3    H157418   1.258   4.945   1.420  2.1974  0.8248 -0.4615
12001TIP3    H257419   1.247   4.979   1.273  0.9189 -0.1696 -0.6143
12002TIP3   OH257420   1.443   2.614   5.614  0.2940 -0.4408 -0.5068
12002TIP3    H157421   1.386   2.544   5.647 -0.3296  0.7784  1.1346
12002TIP3    H257422   1.394   2.653   5.542 -0.9251  0.4457  0.7438
12003TIP3   OH257423   4.264   2.022  17.373 -0.1611  0.2148 -0.1438
12003TIP3    H157424   4.169   2.009  17.379 -0.1170  0.3080  0.9394
12003TIP3    H257425   4.299   1.980  17.452  0.7041  0.1940 -0.5219
12004TIP3   OH257426   0.411   3.347   2.888 -0.2845 -0.1922 -0.0994
12004TIP3    H157427   0.352   3.404   2.839  0.9799  0.6146 -0.7584
12004TIP3    H257428   0.499   3.379   2.866  0.3982 -1.1736  1.0456
12005TIP3   OH257429   2.243   0.954  10.741 -0.1438  0.2246  0.1212
12005TIP3    H157430   2.323   0.960  10.689  0.7575  2.6170  1.6372
12005TIP3    H257431   2.252   0.871  10.788  1.3614  0.3662  0.1338
12006TIP3   OH257432   2.168   0.523   4.728  0.0098 -0.1671 -0.0873
12006TIP3    H157433   2.229   0.453   4.705  0.9955  0.0916  1.5538
12006TIP3    H257434   2.157   0.515   4.823  0.6373  2.2315  0.2693
12007TIP3   OH257435   1.036   2.285  14.158  0.4464 -0.1048 -0.0484
12007TIP3    H157436   0.959   2.272  14.102  0.8191 -2.5802 -0.1053
12007TIP3    H257437   1.010   2.252  14.244  0.6529  1.4782  0.6725
12008TIP3   OH257438   0.845   5.117  13.610  0.0229 -0.0866 -0.0292
12008TIP3    H157439   0.801   5.189  13.565 -0.6914 -0.3651  0.2202
12008TIP3    H257440   0.813   5.038  13.567  0.8786 -0.2665 -0.3668
12009TIP3   OH257441   5.121   1.329  15.471 -0.2573 -0.5919 -0.6815
12009TIP3    H157442   5.098   1.398  15.409  1.7653 -1.0129 -1.9912
12009TIP3    H257443   5.217   1.326  15.469 -0.1098 -0.8136  2.2988
12010TIP3   OH257444   5.633   2.211  15.737  0.5889 -0.0159  0.0879
12010TIP3    H157445   5.622   2.119  15.712 -0.3378  0.4506 -1.3816
12010TIP3    H257446   5.620   2.259  15.655 -0.6978  1.5335  1.1440
12011TIP3   OH257447   0.050   5.863   3.372  0.4114  0.1629 -0.4375
12011TIP3    H157448  -0.009   5.872   3.446  1.4449  1.8716  0.2414
12011TIP3    H257449   0.036   5.942   3.320  2.0233  0.6030 -0.2731
12012TIP3   OH257450   6.345   3.035  13.318  0.4519 -0.1189  0.8636
12012TIP3    H157451   6.249   3.036  13.312  0.3753  2.9129  1.0512
12012TIP3    H257452   6.373   2.990  13.238 -1.1065 -0.0162  0.2193
12013TIP3   OH257453   0.356   1.887   3.083 -0.5416 -0.0944 -0.2616
12013TIP3    H157454   0.321   1.821   3.143 -1.3664 -0.6007 -1.2539
12013TIP3    H257455   0.402   1.949   3.139 -1.5461 -0.3765  0.9294
12014TIP3   OH257456   4.019   3.061   5.857 -0.0716  0.5344 -0.8802
12014TIP3    H157457   4.079   3.034   5.927  1.1449  0.3020 -1.9680
12014TIP3    H257458   4.015   2.985   5.799 -1.3585  0.5949 -0.8859
12015TIP3   OH257459   6.297   2.340  17.263  0.3505 -0.0841  0.4791
12015TIP3    H157460   6.238   2.350  17.338 -0.7292  0.3290 -0.4057
12015TIP3    H257461   6.382   2.319  17.303 -0.3149 -0.4330  1.7905
12016TIP3   OH257462   3.878   5.288   1.676  0.6665  0.6117 -0.3442
12016TIP3    H157463   3.801   5.320   1.627  0.0035  0.1271  0.3582
12016TIP3    H257464   3.897   5.358   1.738 -0.0955  0.1387  0.4396
12017TIP3   OH257465   1.771   3.714   2.695 -0.7569 -0.0080 -0.2071
12017TIP3    H157466   1.707   3.706   2.624 -1.6612  0.0050  0.5936
12017TIP3    H257467   1.824   3.790   2.671 -1.7642  0.6762 -0.3270
12018TIP3   OH257468   2.774   3.011   5.371  0.1861 -0.1245 -0.4402
12018TIP3    H157469   2.686   2.990   5.402 -0.8705 -0.8970 -3.6183
12018TIP3    H257470   2.760   3.078   5.304  2.2961  1.2818  0.3971
12019TIP3   OH257471   6.098   5.865   3.597  0.1566  0.3999 -0.5130
12019TIP3    H157472   6.011   5.903   3.580  0.3220  2.0059  1.8160
12019TIP3    H257473   6.081   5.771   3.604 -1.9828  0.8420  2.4659
12020TIP3   OH257474   3.748   2.611   5.993  0.5179  0.0387  0.1172
12020TIP3    H157475   3.688   2.685   5.983 -0.2744 -0.5956  0.0564
12020TIP3    H257476   3.827   2.649   6.031  0.3036  0.9958 -0.3678
12021TIP3   OH257477   0.236   3.249   5.345 -0.1592  0.0315  0.1322
12021TIP3    H157478   0.235   3.274   5.437  2.1623  0.5821  0.0816
12021TIP3    H257479   0.209   3.328   5.298  0.9400  0.5058  0.2655
12022TIP3   OH257480   4.388   4.807   4.166  0.3334  0.2648 -0.3054
12022TIP3    H157481   4.335   4.765   4.098  2.6532 -0.1120 -2.0024
12022TIP3    H257482   4.464   4.749   4.177  2.5371  2.7926 -1.1074
12023TIP3   OH257483   1.070   2.469  12.585 -0.1298 -0.0455  0.3601
12023TIP3    H157484   1.153   2.494  12.544 -1.4070 -0.7757 -2.9670
12023TIP3    H257485   1.089   2.386  12.629  0.9541 -0.0901 -0.1504
12024TIP3   OH257486   2.797   4.135   4.682  0.2451  0.0378 -0.0649
12024TIP3    H157487   2.847   4.080   4.742  1.7392  0.4253 -0.8977
12024TIP3    H257488   2.707   4.127   4.711  0.9057  0.1187  2.1379
12025TIP3   OH257489   4.917   3.061  13.174  0.6059 -0.3596 -0.7789
12025TIP3    H157490   4.886   2.979  13.136 -0.4174 -0.0429 -0.6418
12025TIP3    H257491   4.863   3.129  13.134  1.6629  0.2905 -1.1319
12026TIP3   OH257492   0.931   2.776   4.878 -0.3934  0.4441  0.1294
12026TIP3    H157493   0.958   2.850   4.823  0.1608 -0.1317 -0.3850
12026TIP3    H257494   0.980   2.788   4.960 -2.3169  2.1281  1.1339
12027TIP3   OH257495   1.651   3.187   4.262 -0.3741  0.1055 -0.4774
12027TIP3    H157496   1.707   3.109   4.264 -1.8159 -0.9722 -0.6390
12027TIP3    H257497   1.627   3.198   4.170 -1.5461 -0.2915 -0.2332
12028TIP3   OH257498   5.170   2.597  14.459 -0.0742 -0.2170 -0.1628
12028TIP3    H157499   5.140   2.515  14.418 -0.5364 -0.3074  0.3554
12028TIP3    H257500   5.177   2.576  14.552 -1.9972  0.8404  0.2639
12029TIP3   OH257501   5.162   2.268  16.485 -0.2170  0.4247  0.3744
12029TIP3    H157502   5.164   2.192  16.426 -3.7274 -0.4924  1.2137
12029TIP3    H257503   5.188   2.233  16.570  1.3632  0.9507  0.1318
12030TIP3   OH257504   0.943   5.683   2.770  0.4025  0.4471 -0.0423
12030TIP3    H157505   1.013   5.665   2.833 -0.5730  0.4072  1.0788
12030TIP3    H257506   0.878   5.614   2.785  0.8330 -0.5041 -2.2174
12031TIP3   OH257507   0.183   4.975   0.580  0.2521 -0.5683 -0.1817
12031TIP3    H157508   0.177   4.917   0.504 -1.2161 -0.4948 -0.1634
12031TIP3    H257509   0.106   5.032   0.572  0.6194  0.0907  0.8325
12032TIP3   OH257510   0.867   4.816  13.456  0.0309 -0.1837 -0.3488
12032TIP3    H157511   0.940   4.848  13.404  1.6742 -1.0124  1.3465
12032TIP3    H257512   0.907   4.763  13.525 -2.1517 -0.5017  0.7745
12033TIP3   OH257513   4.173   4.885  15.322 -0.2257  0.1014  0.0227
12033TIP3    H157514   4.250   4.839  15.355  1.6345  0.4913 -3.2994
12033TIP3    H257515   4.173   4.969  15.369 -0.8661 -1.2789  2.6702
12034TIP3   OH257516   1.518   6.669  14.928 -0.3842 -0.2452 -0.9929
12034TIP3    H157517   1.455   6.706  14.867 -1.8217  0.3663  0.7742
12034TIP3    H257518   1.599   6.662  14.877 -1.1795  1.3694 -2.6043
12035TIP3   OH257519   2.055   1.207   4.110  0.2008  0.1257  0.2533
12035TIP3    H157520   2.087   1.118   4.126 -1.5368 -0.1568  2.6523
12035TIP3    H257521   2.069   1.252   4.193 -1.5648  1.2381 -0.0128
12036TIP3   OH257522   3.406   4.343  12.125  0.6269  0.2231 -0.6901
12036TIP3    H157523   3.380   4.371  12.213 -1.9564  0.1340 -1.3328
12036TIP3    H257524   3.354   4.399  12.067  1.6534 -0.2932 -2.1465
12037TIP3   OH257525   0.806   4.006  15.781 -0.5158  0.5037  0.0412
12037TIP3    H157526   0.851   3.927  15.753  0.0517  0.0320  2.1234
12037TIP3    H257527   0.847   4.076  15.730 -0.6287 -0.4427 -1.4032
12038TIP3   OH257528   4.415   2.657  16.671 -0.3845 -0.7731  0.0237
12038TIP3    H157529   4.329   2.693  16.649  0.9911  1.1420 -2.8206
12038TIP3    H257530   4.475   2.731  16.663  1.9083 -2.6087 -0.9073
12039TIP3   OH257531   2.338   6.257   0.757 -0.9095 -0.7340 -0.0578
12039TIP3    H157532   2.299   6.307   0.685 -0.7043 -1.6165 -0.8170
12039TIP3    H257533   2.358   6.322   0.824  1.9662  0.6984 -2.1022
12040TIP3   OH257534   1.227   0.574  16.075  0.3014 -0.2420  0.0189
12040TIP3    H157535   1.297   0.614  16.023  0.3662 -2.2109 -1.5311
12040TIP3    H257536   1.274   0.526  16.144  0.2134  2.4207  2.0858
12041TIP3   OH257537   3.759   2.493  15.690  0.1875  0.4543 -0.1068
12041TIP3    H157538   3.736   2.550  15.616  0.6087  1.6647  0.6690
12041TIP3    H257539   3.700   2.520  15.760  1.8802  1.5082  0.9653
12042TIP3   OH257540   3.400   3.980  16.936  0.7545 -0.1775  0.2940
12042TIP3    H157541   3.461   3.907  16.946  0.3585 -0.5373  0.1145
12042TIP3    H257542   3.351   3.960  16.856 -0.4811 -0.5547  1.1116
12043TIP3   OH257543   6.555   0.259  16.494  0.0910 -0.0101  0.3793
12043TIP3    H157544   6.495   0.307  16.552 -0.5336  2.1691 -1.9352
12043TIP3    H257545   6.642   0.274  16.532 -0.3477  0.9718  1.0354
12044TIP3   OH257546   2.101   4.552  14.095  0.1064 -0.1245  0.5272
12044TIP3    H157547   2.099   4.482  14.030  0.8789  0.3011  0.0248
12044TIP3    H257548   2.174   4.528  14.153 -0.7421 -0.6354  1.3985
12045TIP3   OH257549   2.719   5.671  13.002 -0.0787  0.5363  0.3735
12045TIP3    H157550   2.638   5.720  12.987 -0.6171 -0.2081  0.7725
12045TIP3    H257551   2.756   5.709  13.082 -0.4753  0.3164  0.6629
12046TIP3   OH257552   0.521   6.580  14.091  0.0313  0.0594  0.1440
12046TIP3    H157553   0.609   6.608  14.068  1.3141 -0.9813  3.2478
12046TIP3    H257554   0.470   6.662  14.094  1.3279  0.9005 -0.0241
12047TIP3   OH257555   2.935   6.476  11.702 -0.1450  0.1913 -0.3200
12047TIP3    H157556   2.974   6.519  11.625  1.3662 -0.1848  0.1977
12047TIP3    H257557   2.993   6.499  11.774 -1.5566  0.5502  0.7360
12048TIP3   OH257558   3.700   0.783  15.349  0.7857 -0.3609 -0.3340
12048TIP3    H157559   3.609   0.792  15.378  0.8416  1.6971 -0.6345
12048TIP3    H257560   3.752   0.799  15.428  0.8876  1.5569 -0.7425
12049TIP3   OH257561   4.893   2.893   3.966  0.7139 -0.1611 -0.2232
12049TIP3    H157562   4.901   2.845   4.048  0.5543  0.2278  0.0258
12049TIP3    H257563   4.805   2.931   3.969  0.2777 -1.0512 -1.0777
12050TIP3   OH257564   3.744   1.020   1.113  0.2171  0.1318  0.0093
12050TIP3    H157565   3.791   0.972   1.182 -0.0922  1.4707  1.1882
12050TIP3    H257566   3.665   0.967   1.098  0.4284 -0.3316  0.4799
12051TIP3   OH257567   3.062   0.621   4.337 -0.1085  0.4752  0.3462
12051TIP3    H157568   3.054   0.574   4.420  2.6232  0.4175  0.6561
12051TIP3    H257569   3.021   0.563   4.273 -2.0530  0.4095  1.5435
12052TIP3   OH257570   1.342   2.897   4.650 -0.1920 -0.2193  0.4093
12052TIP3    H157571   1.348   2.991   4.635 -0.3321 -0.1507  0.7860
12052TIP3    H257572   1.333   2.860   4.562  1.1253  0.0121  0.1597
12053TIP3   OH257573   1.021   5.634  13.640  0.5794  0.3666 -0.4651
12053TIP3    H157574   0.989   5.606  13.726  2.8560 -1.8361 -0.2236
12053TIP3    H257575   1.116   5.638  13.650  1.0182 -1.0704 -3.1438
12054TIP3   OH257576   6.005   5.311   1.989  0.0319  0.0498  0.2423
12054TIP3    H157577   6.031   5.269   1.907  0.9423 -0.8440  0.9629
12054TIP3    H257578   5.952   5.245   2.034 -1.2095  0.8529  0.0163
12055TIP3   OH257579   5.477   3.815   5.996 -0.8821 -0.1862  0.4876
12055TIP3    H157580   5.493   3.815   6.090  0.1359 -1.6557  0.3596
12055TIP3    H257581   5.419   3.740   5.982  0.7465 -1.3637 -0.2691
12056TIP3   OH257582   5.347   5.309  17.600  0.2628 -0.5651  0.0912
12056TIP3    H157583   5.434   5.304  17.560 -0.0116  2.4414 -1.1190
12056TIP3    H257584   5.361   5.361  17.679 -0.2682 -1.0350  0.4988
12057TIP3   OH257585   4.018   0.578  14.863  0.2374  0.0143  0.0285
12057TIP3    H157586   3.997   0.613  14.950  0.8039  1.2685 -0.3209
12057TIP3    H257587   3.985   0.489  14.865 -0.9065  0.4279  1.1032
12058TIP3   OH257588   5.298   3.256   2.123 -0.2727  0.5098  0.2991
12058TIP3    H157589   5.313   3.236   2.216  0.3255 -0.3279  0.0393
12058TIP3    H257590   5.214   3.214   2.103  0.4277 -0.8335  0.0475
12059TIP3   OH257591   5.650   3.841  13.855  0.2059 -0.3754  0.0175
12059TIP3    H157592   5.669   3.751  13.829  3.8404 -0.1030  1.1656
12059TIP3    H257593   5.701   3.895  13.794  0.2493  0.7747  1.0354
12060TIP3   OH257594   4.173   5.084  14.749 -0.0663  0.4666  0.6183
12060TIP3    H157595   4.109   5.027  14.791  0.4984 -0.4503  0.2571
12060TIP3    H257596   4.153   5.172  14.782 -1.1882  0.1191  0.8862
12061TIP3   OH257597   5.575   0.837   5.580  0.0599 -0.0793  0.3072
12061TIP3    H157598   5.566   0.923   5.621  0.3095  0.1403 -0.0882
12061TIP3    H257599   5.667   0.834   5.552  0.0958 -0.5419  0.4652
12062TIP3   OH257600   5.578   0.757  15.777  0.4010  0.0150 -0.0634
12062TIP3    H157601   5.489   0.741  15.807  0.0028 -0.6160 -1.4713
12062TIP3    H257602   5.607   0.834  15.826 -1.2120  0.7073 -0.1297
12063TIP3   OH257603   6.549   4.105  11.070  0.2652  0.9023  0.1292
12063TIP3    H157604   6.586   4.037  11.125 -1.1656  0.7536  0.9475
12063TIP3    H257605   6.522   4.059  10.990  0.6402  0.7832  0.0682
12064TIP3   OH257606   0.650   4.201  13.035  0.4872  0.4371 -0.3903
12064TIP3    H157607   0.673   4.140  12.965  1.3994  0.5122 -0.1649
12064TIP3    H257608   0.670   4.154  13.116 -1.6518 -0.0994 -0.1047
12065TIP3   OH257609   1.376   3.200   5.612  0.0074  0.5033 -0.6436
12065TIP3    H157610   1.356   3.290   5.585  1.2789  1.2440  0.6983
12065TIP3    H257611   1.433   3.211   5.689  2.6375 -1.4038 -2.1517
12066TIP3   OH257612   2.799   6.548  14.110 -0.0009  0.3689  0.8209
12066TIP3    H157613   2.772   6.507  14.193  0.2483  0.5712  1.0049
12066TIP3    H257614   2.760   6.635  14.112 -0.8397  0.0236  0.2627
12067TIP3   OH257615   3.858   4.193   3.624  0.2595  0.4802 -0.2537
12067TIP3    H157616   3.764   4.200   3.638  0.0823 -1.5391 -0.1409
12067TIP3    H257617   3.886   4.126   3.686  1.5433  0.0863 -1.2240
12068TIP3   OH257618   3.921   5.990   6.542 -0.1701 -0.3428 -0.0172
12068TIP3    H157619   3.970   5.937   6.480  0.3573  1.0022 -0.7970
12068TIP3    H257620   3.956   5.965   6.628  0.5668 -0.7270 -0.4211
12069TIP3   OH257621   2.494   3.657  12.171 -0.4084  0.2402  0.0298
12069TIP3    H157622   2.454   3.669  12.086 -0.2669  0.7521  0.0372
12069TIP3    H257623   2.588   3.669  12.156 -0.3909  0.4209  0.2746
12070TIP3   OH257624   2.390   5.152   6.283  0.0783 -0.3527 -0.9358
12070TIP3    H157625   2.334   5.205   6.340  0.7112  0.5022 -1.0975
12070TIP3    H257626   2.444   5.101   6.343  0.9946  0.8087 -0.7392
12071TIP3   OH257627   3.197   4.092   4.562 -0.6210  0.1898 -0.2277
12071TIP3    H157628   3.282   4.088   4.518  1.8937  1.6348  3.8883
12071TIP3    H257629   3.167   4.182   4.547 -0.3555  0.3197  0.0036
12072TIP3   OH257630   0.836   5.033   1.253 -0.0079  0.0386 -0.5451
12072TIP3    H157631   0.863   5.121   1.279  0.6731 -0.3505  0.0906
12072TIP3    H257632   0.765   5.010   1.313  1.5355 -0.8431  1.0162
12073TIP3   OH257633   3.287   4.652   1.306 -0.5224 -0.5829  0.6351
12073TIP3    H157634   3.320   4.564   1.326  0.0173 -0.2845  1.0728
12073TIP3    H257635   3.328   4.708   1.371 -1.6952 -0.1616  1.0382
12074TIP3   OH257636   3.473   1.177  16.624 -0.2972  0.6772 -0.0374
12074TIP3    H157637   3.503   1.239  16.557 -0.4901  1.6328  0.7375
12074TIP3    H257638   3.403   1.223  16.670  0.3145  0.3357  1.2881
12075TIP3   OH257639   2.544   1.403  11.891  0.0485  0.0838 -0.1982
12075TIP3    H157640   2.558   1.418  11.984  2.0972 -2.4255  0.0128
12075TIP3    H257641   2.449   1.392  11.882 -0.2520  1.0145  1.4450
12076TIP3   OH257642   2.659   3.612  11.019 -0.3447 -0.1154 -0.6485
12076TIP3    H157643   2.687   3.525  11.047  0.2184  0.1517 -0.3659
12076TIP3    H257644   2.574   3.598  10.977 -0.4534 -0.7388 -0.2254
12077TIP3   OH257645   2.354   3.807  13.596 -0.5924  0.1855 -0.2808
12077TIP3    H157646   2.446   3.828  13.611 -0.1242 -1.7351 -0.1759
12077TIP3    H257647   2.329   3.861  13.521  0.2395  1.6306  0.4245
12078TIP3   OH257648   0.547   5.062   2.163 -0.0586 -0.5265  0.1856
12078TIP3    H157649   0.532   4.970   2.139 -3.7338 -0.0491  0.1592
12078TIP3    H257650   0.489   5.112   2.107 -2.0390  1.3601  3.5789
12079TIP3   OH257651   6.334   0.322   1.238 -0.8487  0.3803  0.5305
12079TIP3    H157652   6.318   0.415   1.256  0.3496  1.1388 -1.9123
12079TIP3    H257653   6.251   0.290   1.204 -0.9761  0.8532  0.3837
12080TIP3   OH257654   4.139   3.771   4.915  0.1154  1.1024 -0.0226
12080TIP3    H157655   4.049   3.740   4.914  0.8297 -1.1323  0.2786
12080TIP3    H257656   4.165   3.775   4.823 -0.2543  1.7258 -0.1075
12081TIP3   OH257657   3.873   6.375  15.794  0.3421 -0.8584 -0.5560
12081TIP3    H157658   3.926   6.399  15.718  0.9393 -0.3142  0.0166
12081TIP3    H257659   3.937   6.364  15.865 -0.2969 -0.1515  0.1578
12082TIP3   OH257660   4.871   0.216   5.396 -0.3671  0.7674  0.1843
12082TIP3    H157661   4.931   0.291   5.403  0.4913  0.1603 -0.3686
12082TIP3    H257662   4.895   0.175   5.313 -1.6945  0.6029 -0.1416
12083TIP3   OH257663   3.813   6.656   1.650 -0.0144  0.3314 -0.1481
12083TIP3    H157664   3.730   6.687   1.688  0.3503  1.5814 -0.3227
12083TIP3    H257665   3.880   6.693   1.707  0.4331 -0.8727  0.1325
12084TIP3   OH257666   3.681   5.557   3.225 -0.0063  0.0450 -0.5995
12084TIP3    H157667   3.681   5.638   3.276  0.3570  0.0488 -0.6027
12084TIP3    H257668   3.767   5.518   3.241  0.0284 -0.0647 -1.0332
12085TIP3   OH257669   3.318   5.522   2.183  0.2435 -0.1285  0.2519
12085TIP3    H157670   3.270   5.589   2.231  0.9231 -0.9129  2.1304
12085TIP3    H257671   3.370   5.570   2.118  2.6153  1.4814  3.1320
12086TIP3   OH257672   6.637   2.966   5.885 -0.6563 -0.3098 -0.2442
12086TIP3    H157673   6.561   3.013   5.921 -1.4200 -0.9298 -1.0041
12086TIP3    H257674   6.600   2.888   5.845  0.4380 -0.8015 -0.3241
12087TIP3   OH257675   1.752   0.205   5.719 -1.1211 -0.0201  0.1912
12087TIP3    H157676   1.846   0.194   5.705 -0.9597  1.2428  0.1300
12087TIP3    H257677   1.740   0.192   5.813 -0.7469  0.5522  0.3270
12088TIP3   OH257678   0.852   3.360  16.277  0.2617  0.6093 -0.4786
12088TIP3    H157679   0.758   3.348  16.265 -0.2056  2.3208  1.0088
12088TIP3    H257680   0.882   3.404  16.197 -0.2176  0.2260 -0.8736
12089TIP3   OH257681   5.347   4.805  16.967  0.3066 -0.8120  0.3283
12089TIP3    H157682   5.431   4.812  17.013 -0.0388 -0.4953  0.9201
12089TIP3    H257683   5.327   4.712  16.968 -0.1779 -0.7116  1.7117
12090TIP3   OH257684   0.492   6.031  14.814  0.0006  0.3428 -0.0366
12090TIP3    H157685   0.506   6.119  14.777 -1.4275  1.0546  1.0251
12090TIP3    H257686   0.494   5.973  14.738  1.9224  1.1463 -0.6593
12091TIP3   OH257687   0.249   0.481  13.502  0.3515  0.3243  0.1937
12091TIP3    H157688   0.266   0.401  13.451  0.8373 -0.0999  0.9922
12091TIP3    H257689   0.280   0.459  13.590  0.0293  1.2324  0.5357
12092TIP3   OH257690   5.928   0.731  16.381  0.2300  0.2028  0.9457
12092TIP3    H157691   5.945   0.656  16.324  1.2537  1.2011 -0.0939
12092TIP3    H257692   5.844   0.766  16.351  1.0424  1.0806 -0.3863
12093TIP3   OH257693   3.568   4.242   4.757  0.5067  0.3003  0.1738
12093TIP3    H157694   3.582   4.242   4.851  0.4629  3.2809  0.2560
12093TIP3    H257695   3.474   4.261   4.746  0.2387 -1.2059 -0.5229
12094TIP3   OH257696   2.428   2.635  14.499  0.0075  0.1905 -0.0419
12094TIP3    H157697   2.407   2.718  14.456  0.1886  0.6243  0.6927
12094TIP3    H257698   2.375   2.570  14.452 -0.5580  0.7984 -0.2632
12095TIP3   OH257699   2.429   2.440  13.638  0.2229 -0.4200  1.4115
12095TIP3    H157700   2.382   2.479  13.564 -0.7739 -2.0066  1.1745
12095TIP3    H257701   2.471   2.515  13.681  1.8539  0.4476 -1.4177
12096TIP3   OH257702   4.692   1.967  12.444  0.5307 -0.5154  0.0147
12096TIP3    H157703   4.649   1.886  12.416  0.7057  0.1100 -2.3394
12096TIP3    H257704   4.623   2.019  12.485  0.0847 -1.2998  0.2563
12097TIP3   OH257705   2.213   4.560  14.560  0.0759  0.1053 -0.4145
12097TIP3    H157706   2.129   4.581  14.518 -0.2125 -0.2821 -0.0468
12097TIP3    H257707   2.206   4.596  14.648  0.5935  0.7189 -0.6179
12098TIP3   OH257708   6.338   4.871  14.807 -0.2289 -0.2544 -0.1725
12098TIP3    H157709   6.244   4.887  14.807 -0.1046  0.8266 -2.2121
12098TIP3    H257710   6.376   4.953  14.839  0.1399  1.2209 -3.9877
12099TIP3   OH257711   5.570   0.434  16.780 -0.2478 -0.4667 -0.4204
12099TIP3    H157712   5.521   0.516  16.776  0.1370 -0.1676  0.5798
12099TIP3    H257713   5.661   0.462  16.792 -0.0204 -1.0344 -0.7739
12100TIP3   OH257714   3.474   4.008   1.620  0.7654  0.1923 -0.7515
12100TIP3    H157715   3.380   4.000   1.600  0.9546  0.0716 -1.6299
12100TIP3    H257716   3.494   3.930   1.671  1.1461 -1.7143 -3.6086
12101TIP3   OH257717   1.096   4.329  14.385  0.2921 -0.4301 -0.2755
12101TIP3    H157718   1.126   4.249  14.340  1.5681 -0.7570  1.0961
12101TIP3    H257719   1.140   4.327  14.469 -0.7410  1.0487  0.3348
12102TIP3   OH257720   0.618   5.331   0.321  0.2363 -0.5645 -0.0004
12102TIP3    H157721   0.617   5.285   0.238  1.0729 -1.4307  0.4507
12102TIP3    H257722   0.543   5.296   0.369  0.3144 -0.7616 -0.0225
12103TIP3   OH257723   2.035   4.987  15.355  0.2145 -0.6701  0.0600
12103TIP3    H157724   2.050   4.895  15.376  1.7964 -0.4435  0.0555
12103TIP3    H257725   2.073   5.035  15.428 -2.7533  0.0203  1.3180
12104TIP3   OH257726   0.009   3.173  13.365 -0.3445 -0.0682 -0.2233
12104TIP3    H157727   0.101   3.192  13.348 -0.6391  1.5585 -0.1720
12104TIP3    H257728  -0.029   3.159  13.279 -0.2636  0.3525 -0.3297
12105TIP3   OH257729   0.510   2.821  11.833 -0.1049  0.2253 -0.2253
12105TIP3    H157730   0.519   2.834  11.927  0.8320  0.1553 -0.2977
12105TIP3    H257731   0.599   2.829  11.799 -0.0817 -1.9509 -0.8271
12106TIP3   OH257732   3.995   0.250  16.050  0.1737 -0.2024 -0.0715
12106TIP3    H157733   4.059   0.220  16.114 -0.3019  0.1937  0.6080
12106TIP3    H257734   4.012   0.198  15.972  1.2812 -0.1427  0.1178
12107TIP3   OH257735   1.602   1.037   1.604  0.2530 -0.2906  0.7159
12107TIP3    H157736   1.560   1.022   1.689 -0.0547  1.1855  0.8445
12107TIP3    H257737   1.649   1.120   1.614  1.1812 -0.6770 -0.2041
12108TIP3   OH257738   0.917   2.830   6.609 -0.3456 -0.5426  0.2715
12108TIP3    H157739   0.897   2.750   6.658  1.2253 -0.7624  0.5951
12108TIP3    H257740   0.831   2.862   6.581 -1.0692 -1.9028  0.8086
12109TIP3   OH257741   0.801   3.188  13.357 -0.4160  0.0079 -0.2814
12109TIP3    H157742   0.708   3.168  13.370 -0.6091  0.1282 -1.3871
12109TIP3    H257743   0.811   3.195  13.262  0.8899 -0.7599 -0.2270
12110TIP3   OH257744   3.165   1.729  17.277  0.1889 -0.1572  0.3079
12110TIP3    H157745   3.110   1.654  17.254  0.1752  0.3341 -1.3729
12110TIP3    H257746   3.118   1.771  17.349  0.8602 -2.4423  2.2170
12111TIP3   OH257747   4.102   4.903  14.129  0.0819 -0.6521  0.2755
12111TIP3    H157748   4.010   4.916  14.109  0.6485  1.8065 -1.1214
12111TIP3    H257749   4.126   4.824  14.081 -1.1291 -0.9052  0.0677
12112TIP3   OH257750   5.391   3.846   0.124  0.3071 -0.1042 -0.1146
12112TIP3    H157751   5.416   3.772   0.070  2.7141  0.4135  0.1736
12112TIP3    H257752   5.389   3.812   0.213  0.9479  0.0409 -0.0368
12113TIP3   OH257753   0.412   2.044  12.206 -0.3330 -0.0398  0.0055
12113TIP3    H157754   0.503   2.032  12.179 -0.1025 -1.9735  1.4737
12113TIP3    H257755   0.379   1.956  12.222 -2.2614  0.6675  0.2255
12114TIP3   OH257756   3.359   6.012  10.770 -0.1338 -0.1450 -0.1827
12114TIP3    H157757   3.330   5.965  10.849  0.3680  0.3445  0.3068
12114TIP3    H257758   3.410   5.948  10.721 -0.6857 -0.5375 -0.2534
12115TIP3   OH257759   1.424   4.521   0.994  1.1295  0.2744  0.1610
12115TIP3    H157760   1.456   4.537   0.905  1.6837 -1.1516  0.0734
12115TIP3    H257761   1.479   4.449   1.027 -0.6760 -0.9344  0.7282
12116TIP3   OH257762   6.184   0.053   1.547 -0.2656 -0.0127 -0.0789
12116TIP3    H157763   6.229   0.085   1.625 -0.8841  1.0645 -0.1399
12116TIP3    H257764   6.250   0.001   1.500  0.0685 -0.7834  1.2134
12117TIP3   OH257765   2.442   2.034  12.155  0.5339  0.7475 -0.4923
12117TIP3    H157766   2.506   2.062  12.090  0.1779 -1.6945 -1.9916
12117TIP3    H257767   2.471   1.947  12.182 -0.6113  0.7622  0.9049
12118TIP3   OH257768   3.553   3.462   1.080 -0.2915 -0.5850  0.1590
12118TIP3    H157769   3.527   3.429   1.166 -0.4467  0.7646  0.6482
12118TIP3    H257770   3.470   3.486   1.038 -0.0669  3.3494  1.5647
12119TIP3   OH257771   0.903   4.888   5.960 -0.0943  0.0348  0.5298
12119TIP3    H157772   0.980   4.944   5.953  0.2415 -0.5753 -1.0701
12119TIP3    H257773   0.915   4.842   6.043  0.2939  1.3187  1.2135
12120TIP3   OH257774   5.474   1.147  11.985  0.5023 -0.1935 -0.0905
12120TIP3    H157775   5.483   1.183  12.073  0.8637  0.3065 -0.3259
12120TIP3    H257776   5.482   1.223  11.927  1.0335 -0.6205 -0.5901
12121TIP3   OH257777   6.562   6.702  14.723  0.3327  0.4404  0.3625
12121TIP3    H157778   6.472   6.672  14.729 -0.3295  1.8301 -1.8121
12121TIP3    H257779   6.600   6.680  14.809 -2.7691  2.1696  2.3594
12122TIP3   OH257780   3.696   2.189  17.354 -0.2429  0.1140  0.3651
12122TIP3    H157781   3.754   2.251  17.312 -1.5863  1.2637  0.1273
12122TIP3    H257782   3.666   2.233  17.434 -0.1585 -0.7795  0.9036
12123TIP3   OH257783   1.781   4.731  13.406 -0.3190 -0.1410 -0.7439
12123TIP3    H157784   1.809   4.803  13.349  0.8699  0.2508  0.2830
12123TIP3    H257785   1.854   4.670  13.406 -0.3926 -0.2478  0.1615
12124TIP3   OH257786   3.295   0.883   4.905  0.7328 -0.4701  0.8305
12124TIP3    H157787   3.223   0.910   4.848 -1.2538 -0.3087  3.2271
12124TIP3    H257788   3.358   0.955   4.900 -0.5116  0.6345  0.6471
12125TIP3   OH257789   1.079   5.178   4.411  0.0529 -0.2692 -0.3726
12125TIP3    H157790   1.138   5.253   4.423  1.4613 -1.2664 -0.8196
12125TIP3    H257791   0.996   5.206   4.450  1.2748  0.6034  1.7532
12126TIP3   OH257792   2.770   4.578   4.140 -0.7589  0.1335 -0.0901
12126TIP3    H157793   2.847   4.575   4.083 -0.1820  2.0106  0.5284
12126TIP3    H257794   2.696   4.564   4.081 -0.0209 -0.8092 -0.8271
12127TIP3   OH257795   5.651   5.586   4.955  0.2061 -0.8508 -0.2167
12127TIP3    H157796   5.695   5.651   4.900  0.8237 -0.1338  1.0791
12127TIP3    H257797   5.716   5.517   4.968 -0.3353 -1.5984 -1.3120
12128TIP3   OH257798   3.372   4.386  13.756 -0.5763  1.2123 -0.0462
12128TIP3    H157799   3.286   4.346  13.740  0.1649 -0.2496 -0.5792
12128TIP3    H257800   3.387   4.373  13.849 -0.5346  0.5925 -0.1307
12129TIP3   OH257801   4.209   3.578   6.644  0.2476 -0.1306  0.2754
12129TIP3    H157802   4.171   3.666   6.643 -0.9594 -0.6178  0.5615
12129TIP3    H257803   4.262   3.576   6.724 -1.0405 -0.1646  1.1648
12130TIP3   OH257804   6.327   5.984   5.664 -0.2609  0.1854 -0.4403
12130TIP3    H157805   6.382   6.028   5.728  1.1395  1.4650 -2.3822
12130TIP3    H257806   6.292   5.907   5.709  0.9731  0.8090  1.6697
12131TIP3   OH257807   0.543   4.855  15.716 -0.1524 -0.1772 -0.4968
12131TIP3    H157808   0.506   4.899  15.639 -1.2569 -0.9778 -0.4508
12131TIP3    H257809   0.525   4.915  15.789  0.3003  0.2765 -0.7502
12132TIP3   OH257810   1.711   0.891  11.901 -0.5436  0.4565 -0.4304
12132TIP3    H157811   1.704   0.807  11.946  1.7512  0.4567  0.0661
12132TIP3    H257812   1.622   0.912  11.875 -1.3024 -1.7031  0.2049
12133TIP3   OH257813   4.235   0.721  14.716 -0.1471 -0.0163 -0.2067
12133TIP3    H157814   4.195   0.805  14.696 -0.0591  0.3086  0.9253
12133TIP3    H257815   4.186   0.687  14.790  0.6485 -0.3473  0.1866
12134TIP3   OH257816   3.785   3.945   2.065 -0.0461  0.1199 -0.3066
12134TIP3    H157817   3.862   3.933   2.120 -0.4007 -1.5014 -0.1050
12134TIP3    H257818   3.759   4.036   2.079  1.9289  0.7528 -0.5386
12135TIP3   OH257819   1.881   5.989  15.550  0.0317  0.0891 -0.0051
12135TIP3    H157820   1.833   6.015  15.629 -0.9167 -0.2272 -0.4533
12135TIP3    H257821   1.923   5.906  15.575  0.9790  0.7389  0.6245
12136TIP3   OH257822   2.475   1.722   0.831 -0.2532  0.1699 -0.4090
12136TIP3    H157823   2.532   1.655   0.868  0.5050  0.5679 -0.8440
12136TIP3    H257824   2.464   1.696   0.740 -0.5554  0.2384 -0.3926
12137TIP3   OH257825   4.656   5.527  17.275 -0.2254 -0.0766 -0.3798
12137TIP3    H157826   4.744   5.545  17.308 -0.6165  1.1187  0.0468
12137TIP3    H257827   4.628   5.608  17.233 -0.9017 -0.6320 -1.0285
12138TIP3   OH257828   5.828   4.792  12.890 -0.1592 -0.6115  0.5206
12138TIP3    H157829   5.839   4.715  12.946 -1.8833  0.0047  1.8002
12138TIP3    H257830   5.821   4.866  12.952  0.1474  0.3970 -0.6121
12139TIP3   OH257831   4.074   3.923  14.860  0.1194 -0.0198  0.8079
12139TIP3    H157832   4.122   3.974  14.794 -1.4094  0.4933  0.0224
12139TIP3    H257833   4.141   3.875  14.907  1.2556 -1.0724 -1.6883
12140TIP3   OH257834   3.653   1.897   4.007 -0.4931 -0.2469 -0.2181
12140TIP3    H157835   3.570   1.927   3.970 -1.7337 -0.6801  1.9933
12140TIP3    H257836   3.692   1.976   4.044  0.2211 -0.0065 -1.4344
12141TIP3   OH257837   6.670   4.044   6.402 -0.1264 -0.3014 -0.2220
12141TIP3    H157838   6.594   3.991   6.426  0.2476 -0.3893  0.7933
12141TIP3    H257839   6.721   4.051   6.482  0.2039  0.9902 -0.5310
12142TIP3   OH257840   4.539   6.389  17.598 -0.4240  0.2448 -0.2380
12142TIP3    H157841   4.550   6.375  17.692  1.3874 -0.0065 -0.4473
12142TIP3    H257842   4.497   6.309  17.566 -1.0164  0.3188  0.3436
12143TIP3   OH257843   5.120   4.533  13.035  0.0281 -0.3797 -0.3238
12143TIP3    H157844   5.193   4.593  13.054 -0.7959  0.8829 -1.0190
12143TIP3    H257845   5.162   4.447  13.028  1.3067  0.1491  0.2871
12144TIP3   OH257846   0.517   3.663  17.435 -0.0117  0.6068 -0.0879
12144TIP3    H157847   0.514   3.569  17.417  0.9439  0.6160 -0.3450
12144TIP3    H257848   0.576   3.671  17.510 -0.2581  0.9856  0.0688
12145TIP3   OH257849   4.873   3.712   5.259  0.2108  0.4110  0.2062
12145TIP3    H157850   4.803   3.745   5.316 -0.7139  0.1690 -0.7461
12145TIP3    H257851   4.844   3.737   5.170  0.8623 -0.5337 -0.2800
12146TIP3   OH257852   0.054   5.021  14.267 -0.0253  0.9139 -0.2048
12146TIP3    H157853  -0.034   4.990  14.243  0.7864 -1.0162 -0.8075
12146TIP3    H257854   0.056   5.016  14.363 -0.4265  0.5828 -0.2119
12147TIP3   OH257855   3.070   2.792  16.822  0.0886  1.8661  0.0386
12147TIP3    H157856   2.983   2.830  16.837 -0.6310  0.9475 -1.5463
12147TIP3    H257857   3.070   2.769  16.729  0.3167 -2.2396  0.8650
12148TIP3   OH257858   3.409   0.289  15.058  0.6416  0.2938  0.6678
12148TIP3    H157859   3.428   0.383  15.051  3.0686 -0.0487  1.6762
12148TIP3    H257860   3.447   0.251  14.979  1.1752 -0.0156  1.0672
12149TIP3   OH257861   0.067   6.436  14.841  0.4905  0.0658 -0.5424
12149TIP3    H157862   0.102   6.513  14.884  0.8975 -1.1842  1.5032
12149TIP3    H257863   0.141   6.376  14.833 -0.1709 -0.8012 -0.4284
12150TIP3   OH257864   0.765   5.269  12.763  0.2344  0.3888  0.2975
12150TIP3    H157865   0.822   5.201  12.799 -0.7313  0.9996  3.2582
12150TIP3    H257866   0.757   5.247  12.670  1.0511 -2.7407  0.8432
12151TIP3   OH257867   1.867   4.885  12.283 -0.4026 -0.3890  0.0790
12151TIP3    H157868   1.943   4.911  12.334 -0.9431  0.5644  0.4126
12151TIP3    H257869   1.902   4.826  12.215  0.7836  0.8546 -0.4171
12152TIP3   OH257870   5.992   2.257  11.870 -0.4948  0.2605 -0.2103
12152TIP3    H157871   5.909   2.277  11.827  0.0772  1.1534 -0.9497
12152TIP3    H257872   6.048   2.221  11.801 -0.0098  0.4213  0.0890
12153TIP3   OH257873   5.553   4.165  15.452 -0.1929  0.3714 -0.1796
12153TIP3    H157874   5.599   4.234  15.403  0.7940  0.4360  0.7909
12153TIP3    H257875   5.534   4.098  15.387  1.5186  0.2427 -0.5881
12154TIP3   OH257876   5.828   2.171  16.006 -0.0005 -0.6955 -0.3257
12154TIP3    H157877   5.907   2.182  15.953 -0.3940 -1.3473 -1.0685
12154TIP3    H257878   5.833   2.081  16.039  0.3427 -0.2311  0.9387
12155TIP3   OH257879   3.096   1.386  16.483  0.0453  1.2728  0.2365
12155TIP3    H157880   3.011   1.418  16.512 -0.5612 -0.9425  1.1451
12155TIP3    H257881   3.075   1.307  16.432  1.5244  0.9135  0.1449
12156TIP3   OH257882   1.248   2.818  15.641  0.3795 -0.0636  0.2551
12156TIP3    H157883   1.342   2.805  15.658  0.0627 -0.0245  2.3688
12156TIP3    H257884   1.205   2.785  15.720 -1.3076  1.1861 -0.0808
12157TIP3   OH257885   3.757   6.315  12.464 -0.1269  0.2325  0.9624
12157TIP3    H157886   3.702   6.317  12.542 -0.7411  0.2660  0.5399
12157TIP3    H257887   3.826   6.252  12.485 -0.6040 -0.1798  1.3334
12158TIP3   OH257888   2.036   4.679   1.230  0.2867 -0.0056  0.3533
12158TIP3    H157889   1.972   4.616   1.198 -0.7704  1.2727 -0.1695
12158TIP3    H257890   2.121   4.637   1.217 -0.3854 -1.2821 -0.0021
12159TIP3   OH257891   6.213   2.716  13.408 -0.2686 -0.9067  0.4396
12159TIP3    H157892   6.124   2.732  13.375 -0.0761 -0.9304 -0.1008
12159TIP3    H257893   6.233   2.792  13.462  0.2922  0.2763 -1.3619
12160TIP3   OH257894   4.925   6.686  15.935 -0.1927  0.1234 -0.4824
12160TIP3    H157895   4.939   6.780  15.930 -1.8287  0.3243 -2.3698
12160TIP3    H257896   4.883   6.672  16.020  0.7558  0.9480  0.1503
12161TIP3   OH257897   0.376   0.739   2.893  0.5402  0.4452  0.3382
12161TIP3    H157898   0.389   0.809   2.957 -1.5497 -0.6456  2.0741
12161TIP3    H257899   0.287   0.753   2.859 -0.0312 -1.4588  0.9229
12162TIP3   OH257900   3.951   5.085   3.413 -0.6082  0.2651  0.0549
12162TIP3    H157901   3.857   5.094   3.431 -0.4068  1.1039  0.7446
12162TIP3    H257902   3.994   5.123   3.490  0.3138 -1.0387  0.2239
12163TIP3   OH257903   2.167   4.121   0.941  0.1207 -0.0488  0.1495
12163TIP3    H157904   2.117   4.039   0.942  0.6005 -0.3471  0.8798
12163TIP3    H257905   2.157   4.156   1.029 -0.1668  0.7428 -0.1919
12164TIP3   OH257906   6.216   3.451   5.827 -0.0054  0.5033 -0.0891
12164TIP3    H157907   6.146   3.474   5.765  0.1499 -0.2091 -0.5394
12164TIP3    H257908   6.170   3.428   5.908 -0.1577  2.6248  0.4745
12165TIP3   OH257909   2.853   0.690  15.762  0.0156 -0.0214 -0.3730
12165TIP3    H157910   2.940   0.677  15.798 -0.1869 -1.3728 -0.3240
12165TIP3    H257911   2.815   0.760  15.815  0.7570 -0.0109  0.1566
12166TIP3   OH257912   0.692   0.419  10.818 -0.0408  0.0078  0.9068
12166TIP3    H157913   0.617   0.458  10.774  0.6754 -0.3339 -0.6576
12166TIP3    H257914   0.738   0.494  10.856  0.5912  0.5867 -0.9325
12167TIP3   OH257915   6.600   3.473   5.091 -0.0383 -0.4380  0.6001
12167TIP3    H157916   6.567   3.497   5.178 -1.1296  0.1825  0.0342
12167TIP3    H257917   6.537   3.407   5.060  0.4997 -0.8551  0.3800
12168TIP3   OH257918   1.718   3.769   2.389  0.0879  0.3225  0.2033
12168TIP3    H157919   1.704   3.863   2.395 -0.1181  0.2001  2.1308
12168TIP3    H257920   1.663   3.741   2.316  0.4586  1.7241 -0.6490
12169TIP3   OH257921   6.564   6.411  15.670  0.5022 -0.5706 -0.6353
12169TIP3    H157922   6.479   6.391  15.709 -0.1501  1.0571 -1.1548
12169TIP3    H257923   6.609   6.463  15.736 -0.0106  0.8953 -1.3891
12170TIP3   OH257924   3.417   6.440   1.527  0.1248  0.2564  0.3102
12170TIP3    H157925   3.376   6.506   1.583 -0.9307 -0.8595  0.9084
12170TIP3    H257926   3.448   6.374   1.588 -0.9915 -0.9530 -0.3775
12171TIP3   OH257927   3.294   3.205  17.421 -0.4242  0.0654 -0.1931
12171TIP3    H157928   3.242   3.284  17.440 -0.6878 -0.2114  0.2502
12171TIP3    H257929   3.382   3.238  17.403 -0.1673  0.3726  1.4175
12172TIP3   OH257930   0.505   6.013  13.505 -0.2839 -0.0558 -0.7706
12172TIP3    H157931   0.555   6.018  13.587 -1.2190  1.5741 -0.2424
12172TIP3    H257932   0.569   5.984  13.440  0.4229 -1.6242  0.5568
12173TIP3   OH257933   3.565   0.695  12.812 -0.5352 -0.4387  0.4796
12173TIP3    H157934   3.522   0.640  12.878  1.3787 -1.7799  0.7182
12173TIP3    H257935   3.607   0.632  12.753  0.4241  0.7572 -0.1686
12174TIP3   OH257936   0.299   2.430  13.983 -0.1705 -0.4807  0.0112
12174TIP3    H157937   0.220   2.424  13.931  0.0565  0.1004 -0.4133
12174TIP3    H257938   0.318   2.524  13.989  1.1831 -0.6591 -0.9817
12175TIP3   OH257939   4.288   2.153   1.752  0.5221 -0.1409  0.2599
12175TIP3    H157940   4.219   2.154   1.686  0.9782 -0.7284 -0.2408
12175TIP3    H257941   4.255   2.207   1.823 -0.0245  0.4169 -0.4088
12176TIP3   OH257942   0.701   6.216  17.457 -0.5108 -0.4701 -0.4146
12176TIP3    H157943   0.612   6.249  17.467  0.4863  2.3070  0.4650
12176TIP3    H257944   0.699   6.128  17.493 -2.5427  0.1739  1.2422
12177TIP3   OH257945   1.307   2.738   6.772 -0.1640  0.2771  0.4196
12177TIP3    H157946   1.248   2.751   6.697 -0.7451 -2.0726  0.3925
12177TIP3    H257947   1.368   2.670   6.744  0.6452  0.5041  1.5355
12178TIP3   OH257948   4.112   3.583  14.491 -0.1703 -0.1837 -0.0087
12178TIP3    H157949   4.154   3.588  14.577 -0.5837  3.1950  0.1403
12178TIP3    H257950   4.165   3.521  14.441  0.4087 -1.8057  2.4613
12179TIP3   OH257951   6.046   5.043   1.333  0.6895  0.1192 -0.0351
12179TIP3    H157952   6.049   5.098   1.411 -0.6623  1.0122 -0.5664
12179TIP3    H257953   6.057   4.954   1.366  2.4748  0.6440  0.8952
12180TIP3   OH257954   4.507   6.569   4.606 -0.4236 -0.0975  0.3069
12180TIP3    H157955   4.499   6.565   4.701 -0.6150  1.4176  0.3820
12180TIP3    H257956   4.419   6.593   4.576  0.0143  1.0744 -0.1050
12181TIP3   OH257957   6.273   0.354  14.802 -0.8518 -0.1047 -0.1443
12181TIP3    H157958   6.183   0.366  14.774 -1.9223  0.2160  3.0774
12181TIP3    H257959   6.285   0.259  14.804 -0.8754 -0.1389 -1.1628
12182TIP3   OH257960   6.529   0.894  15.161  1.0478  0.2917  0.4203
12182TIP3    H157961   6.449   0.845  15.182  1.9600 -1.5513 -0.1752
12182TIP3    H257962   6.498   0.977  15.125 -0.5752  0.3915  1.9044
12183TIP3   OH257963   3.802   3.170  13.537 -0.2010 -0.4116 -0.5910
12183TIP3    H157964   3.849   3.252  13.553 -0.5121 -0.4793  0.8683
12183TIP3    H257965   3.749   3.186  13.460  0.5455  0.3972 -0.9540
12184TIP3   OH257966   0.742   0.781   0.157 -0.1506 -0.2555 -0.1151
12184TIP3    H157967   0.773   0.852   0.214 -2.7787  0.9562 -0.0240
12184TIP3    H257968   0.700   0.719   0.217 -1.3814  0.1626 -0.5025
12185TIP3   OH257969   2.793   1.907   3.724  0.2202 -0.3448 -0.5564
12185TIP3    H157970   2.754   1.991   3.699 -0.2010 -1.2491 -3.2870
12185TIP3    H257971   2.725   1.843   3.702  0.6585 -1.4622  1.1968
12186TIP3   OH257972   0.131   4.272   4.331 -0.1133 -0.3105  0.1708
12186TIP3    H157973   0.204   4.263   4.392 -0.3232  0.5438  0.5575
12186TIP3    H257974   0.065   4.321   4.379 -0.4315  0.0495 -0.6195
12187TIP3   OH257975   1.713   2.607  10.654 -0.0002 -0.8874 -0.1097
12187TIP3    H157976   1.764   2.562  10.722 -1.3668 -3.6181 -0.7474
12187TIP3    H257977   1.625   2.612  10.691 -0.3918 -0.9263 -1.0216
12188TIP3   OH257978   2.094   1.581   3.221  0.3986  0.0738 -0.6814
12188TIP3    H157979   2.028   1.598   3.154 -0.3684  0.5546  0.1654
12188TIP3    H257980   2.158   1.651   3.210 -0.6597  1.2411  0.2045
12189TIP3   OH257981   3.526   5.701  17.061 -0.5637  0.1909  0.5245
12189TIP3    H157982   3.619   5.688  17.082 -0.8641  0.1639  1.9756
12189TIP3    H257983   3.480   5.654  17.131 -1.6816 -0.6298 -0.7226
12190TIP3   OH257984   5.943   2.974   6.142  0.2450  0.2310  0.6174
12190TIP3    H157985   5.900   2.907   6.088  2.6493  0.8905 -2.3773
12190TIP3    H257986   5.894   3.054   6.124  0.3923  0.2352  0.2193
12191TIP3   OH257987   0.782   4.688  13.087 -0.3308  0.0231  0.3331
12191TIP3    H157988   0.698   4.731  13.103 -0.5658 -0.5299  0.6051
12191TIP3    H257989   0.816   4.670  13.175 -1.0249 -1.8649  0.2516
12192TIP3   OH257990   5.388   4.801  14.969  0.3703 -0.0332  0.1563
12192TIP3    H157991   5.301   4.778  14.938  1.4490 -0.5981 -2.7571
12192TIP3    H257992   5.375   4.828  15.060 -2.9222  0.6554 -0.4074
12193TIP3   OH257993   1.753   1.928   5.958  0.0123  0.0644 -0.3550
12193TIP3    H157994   1.777   1.930   6.050  3.0105  1.1683 -1.0121
12193TIP3    H257995   1.658   1.937   5.956 -0.2407 -1.0448  2.5989
12194TIP3   OH257996   3.742   5.786  13.601  0.0334 -0.5350  0.1530
12194TIP3    H157997   3.689   5.720  13.645 -0.6076 -1.2198 -1.5702
12194TIP3    H257998   3.729   5.769  13.507  0.2912  1.6822 -0.3406
12195TIP3   OH257999   0.104   0.167   4.768 -0.1469 -0.2866  0.6866
12195TIP3    H158000   0.181   0.223   4.772  0.5878 -1.2233  0.0816
12195TIP3    H258001   0.030   0.228   4.766  0.6193  0.6525  0.1678
12196TIP3   OH258002   2.909   4.270   4.998  0.3963  0.3463 -0.4295
12196TIP3    H158003   2.910   4.263   5.094 -0.8713  0.1870 -0.4192
12196TIP3    H258004   2.914   4.179   4.968 -0.2089  0.3353 -0.4993
12197TIP3   OH258005   1.267   5.331  13.086 -0.1963 -0.5835 -0.2243
12197TIP3    H158006   1.356   5.356  13.064 -0.1680  1.6498  1.9842
12197TIP3    H258007   1.274   5.241  13.117  1.6178  0.0584  1.4091
12198TIP3   OH258008   1.211   2.044  16.012  0.3386 -0.2102 -0.5138
12198TIP3    H158009   1.228   2.137  15.999  0.2399  0.0719  1.1565
12198TIP3    H258010   1.122   2.040  16.045  0.6455 -0.8087  0.2763
12199TIP3   OH258011   6.568   5.393  17.334  0.3647 -0.0677  0.1662
12199TIP3    H158012   6.570   5.433  17.421  0.4457 -1.3595  0.7843
12199TIP3    H258013   6.475   5.381  17.315  0.0743  3.5599 -1.5949
12200TIP3   OH258014   0.006   3.689   6.447 -0.0216 -0.1975 -0.7249
12200TIP3    H158015  -0.035   3.614   6.491 -1.0939  0.9752  0.3547
12200TIP3    H258016   0.097   3.688   6.479 -0.1125 -0.8349 -0.4560
12201TIP3   OH258017   4.600   1.541  13.481  0.2038  0.0186  0.8784
12201TIP3    H158018   4.637   1.465  13.436  0.7064  0.2971  0.8068
12201TIP3    H258019   4.510   1.516  13.502 -1.2549  1.1082 -3.2744
12202TIP3   OH258020   5.613   4.190  14.334  0.1895  0.7204 -0.0938
12202TIP3    H158021   5.549   4.260  14.343 -0.0118  0.7591 -1.5927
12202TIP3    H258022   5.640   4.194  14.243  0.3113 -1.0523 -0.1647
12203TIP3   OH258023   5.448   2.129  13.329 -0.4374 -0.3429 -0.2074
12203TIP3    H158024   5.437   2.119  13.235 -0.6262 -0.6111 -0.1576
12203TIP3    H258025   5.360   2.151  13.361 -0.4777 -0.7459 -0.0313
12204TIP3   OH258026   5.565   5.376   2.776 -0.4152 -0.7071  0.2352
12204TIP3    H158027   5.565   5.453   2.719  0.4550 -0.2032  0.8730
12204TIP3    H258028   5.658   5.363   2.798 -0.6365 -1.4436  0.7848
12205TIP3   OH258029   0.831   4.813   1.903  0.7418 -0.0208 -0.4096
12205TIP3    H158030   0.751   4.791   1.855  1.7104 -0.7560 -1.7498
12205TIP3    H258031   0.862   4.894   1.861  1.4675 -0.5383 -0.8849
12206TIP3   OH258032   6.527   6.561   4.931 -0.0586 -0.1550  0.0143
12206TIP3    H158033   6.574   6.609   4.999  0.7108  1.4767 -1.5663
12206TIP3    H258034   6.450   6.615   4.914  0.7109  0.4921 -1.6439
12207TIP3   OH258035   4.328   0.066  14.765 -0.2365 -0.0758  0.1858
12207TIP3    H158036   4.381   0.136  14.802  0.7041 -0.2735 -0.7513
12207TIP3    H258037   4.366  -0.015  14.799  0.3174 -0.2351 -0.7672
12208TIP3   OH258038   5.183   4.229   6.646  0.3723  0.0516 -0.3964
12208TIP3    H158039   5.134   4.213   6.566 -1.6541 -0.6392  0.9111
12208TIP3    H258040   5.260   4.278   6.618  0.0699 -0.7695 -2.8264
12209TIP3   OH258041   3.741   3.018   3.551  0.1916 -0.3724 -0.5119
12209TIP3    H158042   3.663   2.964   3.564  0.2185 -0.2034  0.4392
12209TIP3    H258043   3.793   2.971   3.486 -0.8683 -0.3090 -1.4450
12210TIP3   OH258044   2.402   3.904   5.294  0.3555  0.2084 -0.6526
12210TIP3    H158045   2.390   3.816   5.329 -2.5190  0.0771 -1.6675
12210TIP3    H258046   2.339   3.958   5.342  2.2855  1.8448  0.1867
12211TIP3   OH258047   4.455   5.051   1.258  0.6602  0.0507 -0.1351
12211TIP3    H158048   4.534   5.047   1.310  1.4227 -0.1379 -1.2704
12211TIP3    H258049   4.442   4.962   1.226  0.8636  0.3744 -1.1776
12212TIP3   OH258050   5.720   6.042   2.518 -0.3918 -0.1329 -0.2327
12212TIP3    H158051   5.776   6.078   2.587  1.6098 -1.4637 -1.0966
12212TIP3    H258052   5.708   6.115   2.457 -0.6409  0.5123  0.5556
12213TIP3   OH258053   5.700   2.194   2.452 -0.0512 -0.3462 -0.0607
12213TIP3    H158054   5.748   2.267   2.414 -1.5195  1.2944  1.0625
12213TIP3    H258055   5.643   2.163   2.381 -0.0832  0.2043 -0.2759
12214TIP3   OH258056   5.431   0.632   5.638  0.0322 -0.1830 -0.4422
12214TIP3    H158057   5.487   0.709   5.621  0.6642 -0.9237 -1.8337
12214TIP3    H258058   5.346   0.670   5.659  1.1062  1.0118  2.3110
12215TIP3   OH258059   2.260   0.761   0.248 -0.2121 -0.4106  0.0808
12215TIP3    H158060   2.181   0.745   0.197  0.6881 -1.3376 -1.1042
12215TIP3    H258061   2.309   0.826   0.197 -0.3106  0.3602  0.9392
12216TIP3   OH258062   2.767   1.490  16.978  0.0386 -0.2960 -0.3507
12216TIP3    H158063   2.768   1.555  16.908 -1.9740  0.4141  0.2224
12216TIP3    H258064   2.792   1.408  16.935 -1.2900  0.0860 -1.9529
12217TIP3   OH258065   5.745   0.769   6.782 -0.0768  0.1547 -0.4341
12217TIP3    H158066   5.679   0.811   6.837 -0.4143 -0.8264 -0.0653
12217TIP3    H258067   5.696   0.706   6.729  0.5208 -0.3626 -0.3837
12218TIP3   OH258068   1.257   6.236   3.335 -0.1951 -0.1206 -0.1922
12218TIP3    H158069   1.176   6.235   3.386 -1.1287  2.9910 -1.3727
12218TIP3    H258070   1.233   6.199   3.250  0.2137 -1.1101  0.1010
12219TIP3   OH258071   5.982   0.280   0.398  0.3428 -0.8469 -0.1531
12219TIP3    H158072   6.019   0.192   0.389  1.7525 -0.3848  0.8648
12219TIP3    H258073   6.043   0.336   0.350  2.2901  0.2191  3.2376
12220TIP3   OH258074   4.544   4.385   1.032  0.3293 -0.0395  0.0765
12220TIP3    H158075   4.474   4.448   1.051  1.5736  0.8927  1.8994
12220TIP3    H258076   4.621   4.440   1.017  1.5247 -1.0609  2.0209
12221TIP3   OH258077   4.376   4.567   2.617 -0.0779 -0.0362  0.2476
12221TIP3    H158078   4.385   4.661   2.604 -2.5595  0.1460 -0.6067
12221TIP3    H258079   4.349   4.557   2.708  0.1247  0.0595  0.3198
12222TIP3   OH258080   1.659   2.635  12.359 -0.5209  0.7641  0.3601
12222TIP3    H158081   1.637   2.716  12.313 -1.5615  0.1294 -0.3187
12222TIP3    H258082   1.682   2.662  12.448 -2.1776  1.6896  0.5357
12223TIP3   OH258083   1.598   5.502   5.123  0.0194 -0.0894  0.5369
12223TIP3    H158084   1.655   5.524   5.050 -0.1914  0.2731  0.4752
12223TIP3    H258085   1.619   5.411   5.145  1.3865  0.3620  1.2096
12224TIP3   OH258086   0.252   6.544  15.628  0.1137 -0.3577 -0.3476
12224TIP3    H158087   0.279   6.595  15.704  1.9677 -1.5018 -0.1855
12224TIP3    H258088   0.328   6.546  15.570 -0.5236 -1.2480 -1.2286
12225TIP3   OH258089   1.522   4.971   4.478  0.1882  0.2078  0.3049
12225TIP3    H158090   1.471   4.899   4.515  0.7394 -0.0007  0.6602
12225TIP3    H258091   1.510   4.964   4.383  0.9411 -0.8789  0.2800
12226TIP3   OH258092   1.544   3.181   0.200 -0.4078 -0.3487 -0.3848
12226TIP3    H158093   1.614   3.192   0.264  2.6415 -2.5334 -3.0203
12226TIP3    H258094   1.499   3.266   0.199  2.8228  1.5541  0.7927
12227TIP3   OH258095   2.995   4.721  13.150  0.1274  0.2839  0.5660
12227TIP3    H158096   3.034   4.715  13.237 -0.0751 -1.0850  0.5811
12227TIP3    H258097   3.068   4.704  13.090  0.0178 -0.0374  0.5205
12228TIP3   OH258098   2.724   4.438  12.157  0.0799 -0.2811 -0.0373
12228TIP3    H158099   2.710   4.501  12.228  0.1730  0.1808 -0.4161
12228TIP3    H258100   2.760   4.491  12.085 -1.1016 -0.5141 -0.8364
12229TIP3   OH258101   1.728   5.759   3.740  0.3430 -0.2504  0.0894
12229TIP3    H158102   1.662   5.799   3.684  0.0827  1.4281  1.5079
12229TIP3    H258103   1.720   5.806   3.824  1.9768 -1.3771  0.9296
12230TIP3   OH258104   1.270   4.495  13.138 -1.0430  0.1969 -0.7333
12230TIP3    H158105   1.313   4.429  13.084  0.4454 -0.7337  1.4487
12230TIP3    H258106   1.177   4.471  13.136 -0.7484 -0.9365 -1.3389
12231TIP3   OH258107   2.667   6.533  14.628 -0.1074 -0.5150  0.6402
12231TIP3    H158108   2.573   6.524  14.639 -0.3756  1.5719  0.5401
12231TIP3    H258109   2.687   6.621  14.662  1.5517 -0.3134 -0.6868
12232TIP3   OH258110   4.205   3.883   1.724 -0.0822 -0.2917  0.6317
12232TIP3    H158111   4.264   3.953   1.696 -0.9724  0.4493  0.5246
12232TIP3    H258112   4.164   3.918   1.803  0.5170 -1.3017  1.4142
12233TIP3   OH258113   5.368   4.174  11.671  0.4265  0.4495  0.2811
12233TIP3    H158114   5.462   4.176  11.654  0.2436 -0.2758 -1.0383
12233TIP3    H258115   5.328   4.203  11.588 -0.5292 -1.6206 -0.0540
12234TIP3   OH258116   5.666   4.390  17.372 -0.4213  0.0230 -0.0112
12234TIP3    H158117   5.620   4.367  17.292 -0.8876  0.0912  0.2281
12234TIP3    H258118   5.634   4.328  17.437 -0.4483  0.2986  0.2435
12235TIP3   OH258119   2.946   4.874   0.447 -0.7795 -0.5592 -0.0643
12235TIP3    H158120   2.875   4.878   0.382 -1.0123  0.3918  0.2330
12235TIP3    H258121   2.985   4.961   0.445 -1.8035  0.0277  2.1755
12236TIP3   OH258122   1.003   1.797  14.318 -0.4746 -0.0884 -1.1122
12236TIP3    H158123   1.030   1.755  14.399  0.0059  0.0180 -1.2139
12236TIP3    H258124   0.912   1.824  14.334 -0.7308 -0.9966 -0.9827
12237TIP3   OH258125   4.220   1.956  14.463 -0.0392  0.1770 -0.6029
12237TIP3    H158126   4.204   1.925  14.374 -0.3358  1.4222 -1.0098
12237TIP3    H258127   4.142   2.008  14.484 -0.7220 -1.3832  1.0134
12238TIP3   OH258128   6.006   0.861  14.257  0.2237  0.0993  0.1425
12238TIP3    H158129   6.045   0.848  14.171  1.4223 -0.5592  0.7729
12238TIP3    H258130   6.070   0.826  14.319 -0.5357  0.7169  1.3221
12239TIP3   OH258131   1.057   5.757  16.368 -0.6024 -0.1461 -0.2493
12239TIP3    H158132   1.120   5.686  16.360 -0.8900 -0.3969 -0.2907
12239TIP3    H258133   1.014   5.762  16.283 -1.0527 -0.3666 -0.0377
12240TIP3   OH258134   4.069   2.135   1.594  0.1106 -0.1361 -0.2110
12240TIP3    H158135   4.005   2.079   1.638 -0.4188  0.7581  0.1914
12240TIP3    H258136   4.024   2.166   1.516  1.4904 -2.7721 -2.2070
12241TIP3   OH258137   4.290   3.480   2.508 -0.1299 -0.1547 -0.2983
12241TIP3    H158138   4.323   3.526   2.586 -0.6544 -1.6372  0.8496
12241TIP3    H258139   4.352   3.407   2.497 -1.2129 -1.1457 -0.0007
12242TIP3   OH258140   0.157   6.019  15.103  0.0410  0.0687 -0.1663
12242TIP3    H158141   0.204   5.988  15.026 -1.2651 -1.3119 -0.4789
12242TIP3    H258142   0.224   6.030  15.171  1.0721  0.3350 -1.2116
12243TIP3   OH258143   3.484   6.415  12.655 -0.4348  0.1496  0.7998
12243TIP3    H158144   3.401   6.447  12.691  0.5011  1.9213  1.4773
12243TIP3    H258145   3.515   6.486  12.599 -0.3856 -1.3639 -1.1923
12244TIP3   OH258146   0.304   4.675  17.507  0.5331  0.1495 -0.1078
12244TIP3    H158147   0.238   4.699  17.572 -0.5536 -0.6838 -0.8603
12244TIP3    H258148   0.339   4.758  17.476  1.3738  0.5668  1.7976
12245TIP3   OH258149   5.825   5.157   3.112 -0.5603  0.4536 -0.7048
12245TIP3    H158150   5.838   5.099   3.037  0.3095  0.2644 -0.4280
12245TIP3    H258151   5.819   5.098   3.187  0.7664  0.7073 -0.3666
12246TIP3   OH258152   2.142   5.944  13.175 -0.2383  0.2598 -0.4854
12246TIP3    H158153   2.058   5.899  13.185 -0.4986  0.5222 -1.3978
12246TIP3    H258154   2.182   5.905  13.097  0.5302  0.0870 -0.0165
12247TIP3   OH258155   1.721   3.488   0.286 -0.2227 -0.4535 -0.7224
12247TIP3    H158156   1.627   3.474   0.272  0.1162 -1.1369 -2.5633
12247TIP3    H258157   1.763   3.415   0.242  1.1989 -0.1475  0.0691
12248TIP3   OH258158   6.156   2.252  12.504  0.5628  0.3235 -0.2165
12248TIP3    H158159   6.229   2.209  12.459  0.1408 -1.3336  0.5837
12248TIP3    H258160   6.194   2.332  12.541  1.1681  1.1869 -2.5199
12249TIP3   OH258161   2.549   0.768  15.519 -0.2968  0.8791 -0.9314
12249TIP3    H158162   2.584   0.848  15.478  0.2290  0.9454 -0.3702
12249TIP3    H258163   2.475   0.744  15.464 -0.5549  1.8422 -1.0276
12250TIP3   OH258164   1.871   1.562  11.600 -0.2402  0.3417  0.1842
12250TIP3    H158165   1.808   1.572  11.671  0.4970  1.0403  0.7553
12250TIP3    H258166   1.830   1.605  11.525 -0.4618  0.7474  0.5388
12251TIP3   OH258167   3.037   0.837  13.980  0.6630  0.5268 -0.0172
12251TIP3    H158168   3.045   0.754  14.027 -0.3056  0.1209 -0.5367
12251TIP3    H258169   3.017   0.901  14.048 -0.3137  0.0135  0.2061
12252TIP3   OH258170   4.068   3.607   3.048 -0.3823 -0.7493  0.1571
12252TIP3    H158171   4.120   3.680   3.016  0.1022 -0.5190  1.4130
12252TIP3    H258172   4.132   3.540   3.072 -0.6874 -0.7221  1.0927
12253TIP3   OH258173   2.966   2.746   2.729  0.3258  0.1088  0.2944
12253TIP3    H158174   2.916   2.734   2.810 -0.7457 -1.8091 -0.5633
12253TIP3    H258175   2.903   2.728   2.660  1.2537  1.5882 -0.9930
12254TIP3   OH258176   3.485   0.756   5.670 -0.4891  0.6459 -0.4223
12254TIP3    H158177   3.422   0.706   5.618  0.1685  0.3094 -0.8945
12254TIP3    H258178   3.515   0.825   5.612 -0.2331  0.6563 -0.2791
12255TIP3   OH258179   6.103   5.816   3.981 -0.1022 -0.4092  0.2247
12255TIP3    H158180   6.010   5.797   3.971  0.0420 -0.6635 -0.7475
12255TIP3    H258181   6.144   5.730   3.988  0.4164 -0.5209 -2.8857
12256TIP3   OH258182   0.440   1.547  14.246 -0.4483  0.1275  0.2867
12256TIP3    H158183   0.440   1.519  14.154 -0.7025 -0.6866  0.5330
12256TIP3    H258184   0.385   1.483  14.291 -0.6262  0.7350  0.9474
12257TIP3   OH258185   2.528   2.950   5.422  0.4585  0.1857  0.2228
12257TIP3    H158186   2.446   2.949   5.374  1.5217 -1.1396 -1.7044
12257TIP3    H258187   2.504   2.931   5.512 -1.4435  1.0347 -0.0651
12258TIP3   OH258188   6.240   5.699   1.097 -0.5455 -0.6416 -0.0636
12258TIP3    H158189   6.154   5.678   1.061 -0.6978 -2.7776  1.3131
12258TIP3    H258190   6.284   5.614   1.104  1.8290  0.4241 -1.0098
12259TIP3   OH258191   0.099   5.299   2.128  0.1665  0.7099 -0.3835
12259TIP3    H158192   0.139   5.213   2.122 -0.5444  0.3819 -0.4862
12259TIP3    H258193   0.169   5.359   2.101  0.7934  0.2139  0.0791
12260TIP3   OH258194   0.779   4.574   5.937  0.2332 -0.4614 -0.1031
12260TIP3    H158195   0.741   4.538   6.017  0.1632 -0.0979  0.0266
12260TIP3    H258196   0.749   4.665   5.934  0.1964 -0.4831 -0.5644
12261TIP3   OH258197   2.009   1.628   4.014  0.0898 -0.1648  0.1024
12261TIP3    H158198   2.004   1.668   4.101 -0.0449 -1.5207  0.7447
12261TIP3    H258199   2.102   1.617   3.997  0.1944  1.4800 -0.6185
12262TIP3   OH258200   0.204   3.038  13.162  0.1034  0.0766 -0.6709
12262TIP3    H158201   0.264   2.968  13.138 -1.9676 -1.9105 -0.4031
12262TIP3    H258202   0.127   3.024  13.107 -0.8710  1.3776  0.2789
12263TIP3   OH258203   5.894   0.005  12.768 -0.2968  0.2284 -0.3598
12263TIP3    H158204   5.812  -0.036  12.796  0.3019 -0.3195  0.6813
12263TIP3    H258205   5.947  -0.068  12.734  0.0250  0.4446 -0.3288
12264TIP3   OH258206   1.584   4.742  15.845 -0.4029  0.0242  0.2837
12264TIP3    H158207   1.632   4.801  15.902 -0.3465 -0.7498  1.0565
12264TIP3    H258208   1.651   4.684  15.808 -0.4251  0.5881 -0.6573
12265TIP3   OH258209   4.905   2.752   3.717  0.4794  0.5095 -0.5778
12265TIP3    H158210   4.821   2.777   3.677 -1.3301 -0.8192  2.1051
12265TIP3    H258211   4.908   2.802   3.798  1.0483 -1.3010  0.5723
12266TIP3   OH258212   6.479   2.490   5.336 -0.0980  0.1133  0.2510
12266TIP3    H158213   6.481   2.418   5.399  1.7736  1.8025  2.3218
12266TIP3    H258214   6.529   2.560   5.379 -0.5473  2.1262 -2.2733
12267TIP3   OH258215   6.300   6.547  14.657 -0.8372 -0.1611  0.0123
12267TIP3    H158216   6.368   6.481  14.657 -1.0598 -0.4190 -1.2150
12267TIP3    H258217   6.255   6.536  14.741  1.0667  0.5111  1.1899
12268TIP3   OH258218   6.146   3.757  15.856 -0.0570  0.3059 -0.3196
12268TIP3    H158219   6.096   3.794  15.929 -1.0269 -1.6445  0.0589
12268TIP3    H258220   6.150   3.828  15.792  1.1738  2.2269  1.7322
12269TIP3   OH258221   2.601   4.208   4.056 -0.9026  0.0222  0.3802
12269TIP3    H158222   2.623   4.115   4.062 -2.7363 -0.4912 -0.3150
12269TIP3    H258223   2.573   4.231   4.145 -0.5739 -0.1076  0.5214
12270TIP3   OH258224   2.254   5.314   2.905  0.0439  0.2801  0.0858
12270TIP3    H158225   2.270   5.340   2.996  1.3001 -0.2578  0.0388
12270TIP3    H258226   2.197   5.238   2.912 -0.2978  0.5626  0.3996
12271TIP3   OH258227   2.174   2.629   6.428  1.1994 -0.1324 -0.8330
12271TIP3    H158228   2.249   2.652   6.373  2.4054  1.2658  1.2822
12271TIP3    H258229   2.211   2.576   6.498  0.2070  0.4949  0.1906
12272TIP3   OH258230   1.427   1.322   1.700 -0.1571 -0.5803  0.2867
12272TIP3    H158231   1.352   1.378   1.719 -0.5113 -0.7795 -0.4856
12272TIP3    H258232   1.448   1.340   1.608 -0.5633 -2.0156 -0.1144
12273TIP3   OH258233   5.902   4.679  16.350 -0.2674 -1.1227 -0.0238
12273TIP3    H158234   5.906   4.735  16.272  3.5653 -1.6602 -0.3699
12273TIP3    H258235   5.898   4.590  16.315  0.3942 -1.3244  0.4151
12274TIP3   OH258236   1.654   3.713   5.518 -0.3445  0.1027  0.4864
12274TIP3    H158237   1.691   3.681   5.436 -2.3874  0.5411 -0.6667
12274TIP3    H258238   1.596   3.643   5.547 -1.7475  1.0537  0.0598
12275TIP3   OH258239   0.089   5.196   3.552  0.6470 -0.1233 -0.7236
12275TIP3    H158240   0.107   5.216   3.460 -0.2720  0.9070 -0.7112
12275TIP3    H258241   0.165   5.229   3.599  0.3039  1.0838 -0.9649
12276TIP3   OH258242   6.201   2.002   1.839  0.4543 -0.1742  0.4111
12276TIP3    H158243   6.263   2.004   1.911  0.7252 -1.4657  0.2312
12276TIP3    H258244   6.250   2.036   1.764  0.6851 -0.3874  0.4639
12277TIP3   OH258245   4.123   0.810   2.034  0.5900 -0.3606 -0.0777
12277TIP3    H158246   4.181   0.741   2.064  1.0018  0.4375  1.0406
12277TIP3    H258247   4.130   0.808   1.939  1.8435 -0.8031  0.0086
12278TIP3   OH258248   2.490   3.550  15.497 -0.3770  0.5891 -0.0916
12278TIP3    H158249   2.571   3.568  15.449 -0.8505 -0.2555 -1.2407
12278TIP3    H258250   2.519   3.525  15.585  0.5977  0.3288 -0.4773
12279TIP3   OH258251   2.204   6.056   4.991 -0.0193  0.6594 -0.2646
12279TIP3    H158252   2.220   5.984   4.930 -2.4748  1.8229 -2.5161
12279TIP3    H258253   2.199   6.014   5.077  0.9696 -1.4573 -1.1655
12280TIP3   OH258254   3.341   2.268  16.380 -0.2658  0.1568 -0.6930
12280TIP3    H158255   3.363   2.190  16.329  0.7505 -0.0732  0.0624
12280TIP3    H258256   3.425   2.298  16.415 -0.8295  0.7961  0.1443
12281TIP3   OH258257   2.525   1.485  17.582 -0.1249  0.1992  0.1551
12281TIP3    H158258   2.613   1.516  17.604 -0.0478 -0.8366  1.4598
12281TIP3    H258259   2.539   1.412  17.523 -0.1414  0.4058 -0.1071
12282TIP3   OH258260   1.772   6.559  13.253  0.6352 -0.1023  0.7710
12282TIP3    H158261   1.756   6.491  13.188  0.3187 -0.2560  1.0075
12282TIP3    H258262   1.703   6.547  13.319  0.5383  0.4805  0.7847
12283TIP3   OH258263   0.892   2.274   3.360  0.0139  0.3546 -0.4936
12283TIP3    H158264   0.843   2.245   3.282 -1.1738  0.1444  0.2984
12283TIP3    H258265   0.824   2.308   3.419  0.9837  1.2667  0.1279
12284TIP3   OH258266   1.918   5.017  14.918 -0.4796 -0.4400  0.2736
12284TIP3    H158267   1.837   5.063  14.942  0.2873  1.3381 -0.3994
12284TIP3    H258268   1.889   4.928  14.898 -2.0597 -0.2385  1.4110
12285TIP3   OH258269   4.091   0.790   1.148  0.2916  0.4374  0.4364
12285TIP3    H158270   4.067   0.702   1.118 -0.1167  0.1938  1.4131
12285TIP3    H258271   4.144   0.826   1.077  1.0144 -0.8440  0.2846
12286TIP3   OH258272   5.871   0.185   3.524 -0.1436 -0.2695  0.1233
12286TIP3    H158273   5.905   0.190   3.613  0.8769  1.9142 -0.3103
12286TIP3    H258274   5.942   0.221   3.470 -2.5868  3.6110 -0.9460
12287TIP3   OH258275   4.380   0.044  11.457  0.3818 -0.2514 -0.1238
12287TIP3    H158276   4.287   0.057  11.441  0.2169  0.2959  1.2042
12287TIP3    H258277   4.414   0.131  11.476  1.0992 -0.4941 -0.2386
12288TIP3   OH258278   2.178   4.096  13.643 -0.1067 -0.0906 -0.4245
12288TIP3    H158279   2.157   4.026  13.706 -1.5594  2.0089  1.5891
12288TIP3    H258280   2.233   4.156  13.693 -1.0597  1.5000 -1.2335
12289TIP3   OH258281   1.255   5.289  13.968  0.0831 -0.5327  0.3157
12289TIP3    H158282   1.193   5.255  13.903 -0.9950 -1.4768  1.7628
12289TIP3    H258283   1.225   5.378  13.984  0.9722  0.0682 -1.1738
12290TIP3   OH258284   4.002   1.390   5.627 -0.2613  0.3296  0.3572
12290TIP3    H158285   3.991   1.443   5.548  0.9232  0.3129  0.1658
12290TIP3    H258286   4.089   1.415   5.661  0.7364 -2.1074 -0.2220
12291TIP3   OH258287   3.925   0.201  13.613  0.1109  0.3210  0.2315
12291TIP3    H158288   3.899   0.125  13.562 -1.6633  1.2042 -0.2673
12291TIP3    H258289   3.937   0.167  13.702 -1.0902 -0.4971  0.1162
12292TIP3   OH258290   3.870   2.364  16.710 -0.0804 -0.1151  0.4666
12292TIP3    H158291   3.915   2.442  16.677 -0.5884  0.6307  1.4983
12292TIP3    H258292   3.940   2.312  16.751  0.3044 -0.3477 -0.4573
12293TIP3   OH258293   3.724   4.526   2.644 -0.1677 -0.1140 -0.0846
12293TIP3    H158294   3.700   4.616   2.622 -0.0063 -0.5832 -2.3469
12293TIP3    H258295   3.640   4.480   2.652 -0.2067 -0.1693 -0.7922
12294TIP3   OH258296   1.445   2.394   3.529 -0.3305 -0.0767 -0.0895
12294TIP3    H158297   1.490   2.311   3.549 -0.9158 -0.6996 -1.2429
12294TIP3    H258298   1.362   2.367   3.490 -0.1344  1.0396 -1.3590
12295TIP3   OH258299   4.818   3.932  13.209  0.5621 -0.1809 -0.3716
12295TIP3    H158300   4.897   3.945  13.155  0.7696 -0.8834 -0.2484
12295TIP3    H258301   4.781   3.850  13.177  1.5608 -1.4807  1.5791
12296TIP3   OH258302   4.998   5.464   5.108 -0.8147  0.2439  0.0912
12296TIP3    H158303   5.058   5.518   5.056 -0.2149  0.9988  1.5030
12296TIP3    H258304   4.998   5.379   5.065  0.6730  0.4611 -0.3967
12297TIP3   OH258305   1.149   5.179  11.418  0.6405 -0.2106  0.0723
12297TIP3    H158306   1.197   5.144  11.343  0.4677 -0.4564  0.0760
12297TIP3    H258307   1.209   5.243  11.457  0.2650  0.8501 -1.0170
12298TIP3   OH258308   2.859   4.419  16.681  0.8488  0.0669  0.2175
12298TIP3    H158309   2.811   4.488  16.636 -1.0844 -1.4500 -0.1962
12298TIP3    H258310   2.909   4.465  16.749  0.0612  1.8976 -0.3694
12299TIP3   OH258311   1.197   2.286   3.445  0.3080 -0.1234 -0.3125
12299TIP3    H158312   1.217   2.193   3.461  0.0421  0.0371  1.0212
12299TIP3    H258313   1.118   2.284   3.390 -0.3871 -0.6887  0.6851
12300TIP3   OH258314   6.361   6.024   0.429  0.1953 -0.1773  0.3315
12300TIP3    H158315   6.413   6.003   0.506  1.2625 -0.3085 -0.3984
12300TIP3    H258316   6.277   5.979   0.443 -0.0773  0.7675  1.9385
12301TIP3   OH258317   0.726   5.282   6.306 -0.2229 -0.1248  0.6782
12301TIP3    H158318   0.688   5.360   6.346 -0.3097  0.2888 -0.1826
12301TIP3    H258319   0.650   5.230   6.278 -0.5088  2.4002 -4.4401
12302TIP3   OH258320   1.017   5.877   3.177 -0.0905  0.0904  0.2161
12302TIP3    H158321   0.971   5.794   3.188  1.1545 -0.9620 -1.8447
12302TIP3    H258322   0.951   5.944   3.198 -1.2867 -1.3770  1.3874
12303TIP3   OH258323   3.266   6.300   3.759  0.4536  0.4522  0.1652
12303TIP3    H158324   3.232   6.211   3.750 -1.0015  1.1545 -2.2957
12303TIP3    H258325   3.238   6.327   3.846 -0.4347 -0.9647  0.3589
12304TIP3   OH258326   5.015   5.693  12.443 -0.3618  0.0590  0.4683
12304TIP3    H158327   4.970   5.777  12.448  0.8436  0.7656 -0.0367
12304TIP3    H258328   5.033   5.681  12.350 -1.0737 -1.0727  0.4626
12305TIP3   OH258329   1.144   2.952   3.664 -0.1974 -0.3424  0.2580
12305TIP3    H158330   1.237   2.940   3.686  0.0680  1.2701  0.0784
12305TIP3    H258331   1.110   2.862   3.660  1.5088 -1.0114 -0.4074
12306TIP3   OH258332   5.830   4.316  14.551  0.1752  0.1431 -0.2039
12306TIP3    H158333   5.746   4.278  14.526  0.3036 -0.0645 -0.3215
12306TIP3    H258334   5.869   4.345  14.468  1.1840 -1.7252 -0.4560
12307TIP3   OH258335   6.084   0.544  14.029  0.5560 -0.2888  0.0694
12307TIP3    H158336   6.119   0.574  13.945 -0.8924  1.1423 -0.0771
12307TIP3    H258337   6.134   0.593  14.095  0.6954 -0.3100 -0.0214
12308TIP3   OH258338   6.554   5.686  15.743 -0.8396  0.4115 -0.0937
12308TIP3    H158339   6.513   5.608  15.780 -0.2285 -1.0534 -2.3055
12308TIP3    H258340   6.578   5.740  15.819 -1.0024 -1.6946  1.5188
12309TIP3   OH258341   0.391   6.356   0.791 -0.1465 -0.1749 -0.3513
12309TIP3    H158342   0.348   6.305   0.860 -1.7039  1.4978 -0.0303
12309TIP3    H258343   0.402   6.443   0.828  0.7574  0.2560 -1.5517
12310TIP3   OH258344   5.698   5.414   3.104  0.4550  0.6061 -0.0126
12310TIP3    H158345   5.701   5.452   3.192  1.3304  0.1824  0.1591
12310TIP3    H258346   5.765   5.344   3.107 -1.5859 -1.4716 -0.0529
12311TIP3   OH258347   2.475   4.400  15.800  0.0384 -0.2458  0.0761
12311TIP3    H158348   2.434   4.476  15.842  0.7698  0.1160  0.1518
12311TIP3    H258349   2.495   4.431  15.712 -0.1358 -0.5267 -0.0626
12312TIP3   OH258350   0.038   3.039  17.281 -0.0545 -0.3179  0.6702
12312TIP3    H158351  -0.053   3.035  17.253 -0.1356  1.8906  0.4642
12312TIP3    H258352   0.089   3.033  17.200 -0.1686  1.7307  0.3817
12313TIP3   OH258353   3.188   1.128  15.572 -0.8108 -0.7132 -0.5498
12313TIP3    H158354   3.198   1.190  15.500  0.0338  1.3564  1.2391
12313TIP3    H258355   3.276   1.096  15.589 -0.9525 -0.9292 -0.2102
12314TIP3   OH258356   4.236   0.865   5.490  1.0852  0.2950 -0.6144
12314TIP3    H158357   4.315   0.908   5.458  0.6339  0.6227 -1.3105
12314TIP3    H258358   4.268   0.795   5.547  1.8500  2.5991  2.0065
12315TIP3   OH258359   1.243   4.687  17.265  0.1408  0.1549 -0.3576
12315TIP3    H158360   1.241   4.767  17.212  0.1300 -0.2053 -0.9132
12315TIP3    H258361   1.304   4.706  17.336 -1.4535  1.4112  0.7471
12316TIP3   OH258362   1.373   3.671   1.137 -0.3128 -0.4873 -0.4649
12316TIP3    H158363   1.353   3.716   1.055 -1.7803 -1.1616 -0.5031
12316TIP3    H258364   1.416   3.737   1.191 -3.7636  1.5218  0.0817
12317TIP3   OH258365   2.271   5.330   2.129  0.1641 -0.6608 -0.4424
12317TIP3    H158366   2.259   5.235   2.137 -1.0976 -0.5303 -0.6456
12317TIP3    H258367   2.305   5.343   2.041 -1.9358 -0.7613 -1.3226
12318TIP3   OH258368   1.235   5.147  13.326 -0.8708 -0.7947  0.0991
12318TIP3    H158369   1.282   5.210  13.380 -1.7009  0.6564 -0.8189
12318TIP3    H258370   1.304   5.092  13.289 -0.0242  0.2970  0.0056
12319TIP3   OH258371   3.833   2.598   5.461  0.2310  0.7113  0.2099
12319TIP3    H158372   3.925   2.572   5.462  0.7006  2.2036  2.2045
12319TIP3    H258373   3.788   2.529   5.509  0.5061  0.5326  0.2123
12320TIP3   OH258374   1.730   3.272  17.114  0.3695  0.2927 -0.9491
12320TIP3    H158375   1.802   3.265  17.052  1.9968  0.0075  0.8795
12320TIP3    H258376   1.770   3.303  17.195 -1.6716  0.6916 -0.0162
12321TIP3   OH258377   6.377   4.790  13.072 -0.0909  0.7203  0.1721
12321TIP3    H158378   6.362   4.760  13.161 -1.8957  1.0413  0.0096
12321TIP3    H258379   6.466   4.825  13.073 -0.0762  0.7081  1.8261
12322TIP3   OH258380   2.863   1.708   2.305  0.3004  0.1634  0.2658
12322TIP3    H158381   2.817   1.625   2.300 -2.6344  1.7526 -3.5730
12322TIP3    H258382   2.809   1.762   2.363  0.6460  0.2981  0.4682
12323TIP3   OH258383   1.302   6.087   5.038 -0.3793  0.3015  0.0397
12323TIP3    H158384   1.328   6.179   5.032  0.5674  0.2395  2.2050
12323TIP3    H258385   1.218   6.089   5.083  0.2856  0.0820  1.3398
12324TIP3   OH258386   2.210   4.682   1.698  0.0871  0.4466  0.2245
12324TIP3    H158387   2.156   4.644   1.628 -0.6594 -0.9045  1.4940
12324TIP3    H258388   2.203   4.621   1.770 -1.2373  3.0212  2.4513
12325TIP3   OH258389   2.442   1.627  12.063  0.2056  0.0377  0.3054
12325TIP3    H158390   2.431   1.544  12.109  0.0869 -0.9675 -1.4491
12325TIP3    H258391   2.355   1.647  12.029  0.5925 -0.0486 -0.7726
12326TIP3   OH258392   1.035   0.344  14.423  0.4377 -0.2368 -0.5612
12326TIP3    H158393   0.987   0.262  14.414 -1.1486  0.6310 -0.2290
12326TIP3    H258394   1.034   0.383  14.336  0.7615 -0.3284 -0.6090
12327TIP3   OH258395   3.347   0.431   2.983 -0.3529  0.1462 -0.5808
12327TIP3    H158396   3.296   0.363   2.939 -1.4899 -0.1895  1.1566
12327TIP3    H258397   3.438   0.413   2.957 -0.7584 -1.2648 -1.1477
12328TIP3   OH258398   2.204   6.621   5.964  0.0895 -0.0447 -0.2524
12328TIP3    H158399   2.279   6.578   5.922 -0.1046 -1.2522  0.5932
12328TIP3    H258400   2.142   6.550   5.980 -0.0376  0.4456  1.6284
12329TIP3   OH258401   0.025   2.904  16.907  0.1544  0.5519 -0.0521
12329TIP3    H158402  -0.046   2.913  16.970  0.1642  1.2266 -0.1233
12329TIP3    H258403   0.042   2.994  16.877 -0.6602  0.1578 -1.8883
12330TIP3   OH258404   4.255   1.255   2.677 -0.2070 -0.7203  1.0765
12330TIP3    H158405   4.162   1.261   2.657 -0.3369 -1.2284  1.5269
12330TIP3    H258406   4.262   1.184   2.741  0.3460  0.0433  1.8904
12331TIP3   OH258407   3.724   1.399  13.709  0.0853  0.3119  0.2382
12331TIP3    H158408   3.814   1.426  13.688  0.4895  0.1863  1.6796
12331TIP3    H258409   3.734   1.341  13.784 -1.2165  0.2876  0.4087
12332TIP3   OH258410   2.746   0.799  13.130 -0.3416 -0.4323  0.1674
12332TIP3    H158411   2.658   0.765  13.144 -0.1350 -0.5193  1.4069
12332TIP3    H258412   2.802   0.721  13.129 -0.1815 -0.3203  0.2706
12333TIP3   OH258413   6.627   0.742   0.924  0.3089  0.4090 -0.5611
12333TIP3    H158414   6.585   0.823   0.955 -0.8039  1.0628 -3.4900
12333TIP3    H258415   6.721   0.761   0.927  0.2178  0.8090  1.2047
12334TIP3   OH258416   2.292   0.208   5.368 -0.7264 -0.3817  0.1199
12334TIP3    H158417   2.291   0.147   5.442 -1.3856 -2.2729 -1.3525
12334TIP3    H258418   2.200   0.228   5.352 -0.4747  2.4020  1.5698
12335TIP3   OH258419   3.900   4.523   4.141 -0.1641 -0.3035  0.3133
12335TIP3    H158420   3.869   4.561   4.059 -1.8962 -0.1353  0.9900
12335TIP3    H258421   3.928   4.434   4.118  0.0445 -0.0129 -0.5753
12336TIP3   OH258422   2.917   2.901  16.147 -0.0619 -0.7185  0.3205
12336TIP3    H158423   2.952   2.837  16.209  3.8651  0.4134 -0.4809
12336TIP3    H258424   2.987   2.915  16.084 -2.1627  1.6473 -1.7265
12337TIP3   OH258425   0.885   3.523   1.263  0.3826  0.0217 -0.0509
12337TIP3    H158426   0.873   3.549   1.172 -0.2655  1.9029  0.5438
12337TIP3    H258427   0.968   3.563   1.289  0.0224  0.4238  0.5001
12338TIP3   OH258428   4.343   4.198   0.990 -0.9385  0.0165  0.0476
12338TIP3    H158429   4.325   4.152   0.908  1.4581 -0.4693 -0.2920
12338TIP3    H258430   4.403   4.269   0.965 -1.5794  0.9878  1.1381
12339TIP3   OH258431   5.167   2.757   3.977  0.1494 -0.0834 -0.4345
12339TIP3    H158432   5.152   2.851   3.981 -2.0894 -0.4222  0.2129
12339TIP3    H258433   5.080   2.718   3.982  1.0425 -2.2172 -0.3788
12340TIP3   OH258434   4.365   3.643  12.336  0.1140 -0.4751 -0.6427
12340TIP3    H158435   4.390   3.722  12.288 -0.1557 -0.3484 -0.5727
12340TIP3    H258436   4.305   3.674  12.403  0.6474 -0.6244 -0.0897
12341TIP3   OH258437   1.565   5.884   3.539  0.1334 -0.2479  0.3687
12341TIP3    H158438   1.489   5.929   3.502 -0.3770 -2.1779 -1.1058
12341TIP3    H258439   1.619   5.863   3.463  1.5438  0.0114  1.2830
12342TIP3   OH258440   6.095   4.034  13.036 -1.0424  0.2402 -0.2174
12342TIP3    H158441   6.187   4.010  13.045 -1.0226  0.1400 -0.6610
12342TIP3    H258442   6.085   4.056  12.944 -1.2129  1.2896  0.0342
12343TIP3   OH258443   3.075   1.793   2.495  0.1447  0.1220  0.1751
12343TIP3    H158444   3.084   1.883   2.466  0.1008 -0.1543 -0.7047
12343TIP3    H258445   2.996   1.793   2.549  0.9204  0.8965  1.3810
12344TIP3   OH258446   4.549   5.206  12.380  0.1724  0.4635  0.7542
12344TIP3    H158447   4.587   5.126  12.416 -0.9160 -1.3736 -1.8995
12344TIP3    H258448   4.476   5.226  12.439 -0.3079 -1.2379  0.7867
12345TIP3   OH258449   4.371   5.423  17.294  0.1704 -0.0037 -0.5244
12345TIP3    H158450   4.395   5.505  17.251  4.0809 -0.4108  0.5037
12345TIP3    H258451   4.394   5.355  17.231  2.1348 -0.4311  0.5691
12346TIP3   OH258452   0.375   5.310  13.273  0.2869 -0.0126  0.6854
12346TIP3    H158453   0.451   5.313  13.215  0.0769  0.5008  0.4354
12346TIP3    H258454   0.412   5.317  13.361  0.4817  0.8706  0.5372
12347TIP3   OH258455   1.769   3.724  10.907 -0.3278 -0.0854  0.2652
12347TIP3    H158456   1.710   3.760  10.841  0.0598  0.3472  0.1440
12347TIP3    H258457   1.811   3.650  10.864  1.6980  1.6039 -0.8538
12348TIP3   OH258458   0.028   4.592   1.983 -0.3522 -0.3923  0.1470
12348TIP3    H158459  -0.045   4.552   2.029  0.9822 -1.4481  1.4488
12348TIP3    H258460   0.014   4.570   1.891  0.4454 -4.2874  0.7846
12349TIP3   OH258461   1.327   3.510  15.082  1.0083 -0.0894  0.4426
12349TIP3    H158462   1.269   3.565  15.030  1.1610 -1.3701 -1.1376
12349TIP3    H258463   1.268   3.451  15.129  0.7825  1.8448  2.8068
12350TIP3   OH258464   4.766   5.430  14.721 -0.2041 -0.1302 -0.6311
12350TIP3    H158465   4.685   5.380  14.727  0.3218 -0.8795  0.9260
12350TIP3    H258466   4.738   5.520  14.705 -1.3412 -0.4204 -0.3798
12351TIP3   OH258467   6.623   1.694  11.960 -0.9918  0.6067 -0.1671
12351TIP3    H158468   6.589   1.770  12.009 -1.7721  0.2192 -0.0904
12351TIP3    H258469   6.593   1.709  11.870 -1.1023  0.4171 -0.1613
12352TIP3   OH258470   2.974   6.196   4.173 -0.6266 -0.4481  0.6133
12352TIP3    H158471   2.959   6.141   4.250 -1.6537  0.4987  1.1200
12352TIP3    H258472   3.030   6.267   4.205 -1.1546  0.0129  0.5270
12353TIP3   OH258473   1.298   1.514   6.427 -0.1364 -0.1393  0.1096
12353TIP3    H158474   1.307   1.568   6.505 -1.5666 -0.1370  0.2994
12353TIP3    H258475   1.260   1.432   6.459 -1.9784  0.3284 -0.6978
12354TIP3   OH258476   0.925   5.457   6.110 -0.5556 -0.5781 -0.1483
12354TIP3    H158477   0.905   5.549   6.125 -2.0552 -0.4381 -2.4767
12354TIP3    H258478   1.004   5.458   6.056 -0.6248 -0.6360 -0.2521
12355TIP3   OH258479   2.000   3.364  16.068  0.1181  0.1779 -0.3270
12355TIP3    H158480   2.014   3.382  15.975  0.5255  0.7529 -0.1589
12355TIP3    H258481   2.026   3.445  16.112 -0.5480  0.0830  0.2544
12356TIP3   OH258482   1.148   6.144  11.687 -0.0360  0.3103  0.0121
12356TIP3    H158483   1.110   6.061  11.717  0.5532 -0.3879 -1.0910
12356TIP3    H258484   1.232   6.149  11.732  2.3071 -2.2576 -3.4431
12357TIP3   OH258485   4.790   3.601   3.472 -0.0050 -0.1097  0.1160
12357TIP3    H158486   4.722   3.666   3.490  1.2897  1.0920  0.9453
12357TIP3    H258487   4.840   3.597   3.554 -0.0071 -2.1378  0.0583
12358TIP3   OH258488   5.924   0.248  17.042  0.2758  0.0209 -0.1298
12358TIP3    H158489   5.944   0.159  17.013  2.2019  0.0169  0.9693
12358TIP3    H258490   5.931   0.244  17.138 -1.1873  1.0217  0.0511
12359TIP3   OH258491   4.079   1.083  14.905 -0.7306  0.5942 -0.3590
12359TIP3    H158492   4.166   1.045  14.891 -0.2165  2.3407 -2.2805
12359TIP3    H258493   4.018   1.016  14.872 -0.0690 -0.0557 -0.2919
12360TIP3   OH258494   5.474   0.530   5.027  0.1103 -0.0629 -0.1995
12360TIP3    H158495   5.425   0.447   5.024  1.8160 -1.1149  0.1026
12360TIP3    H258496   5.536   0.524   4.955  0.3879  0.8936 -0.0534
12361TIP3   OH258497   4.466   6.371   0.811  0.2868 -0.2417  0.0062
12361TIP3    H158498   4.475   6.447   0.753  1.2625 -0.6778 -0.4504
12361TIP3    H258499   4.467   6.296   0.751  1.3983 -0.7043  0.5725
12362TIP3   OH258500   2.022   4.651  11.864  0.2577  0.1516  0.1222
12362TIP3    H158501   1.963   4.577  11.876  1.0850 -0.4255  0.7701
12362TIP3    H258502   2.110   4.613  11.871  0.7356  0.8661 -1.5215
12363TIP3   OH258503   2.843   4.993  14.366  0.4055 -0.4409 -0.0308
12363TIP3    H158504   2.935   5.006  14.344 -0.6584  2.9406 -3.6112
12363TIP3    H258505   2.818   4.915  14.316  0.9271 -0.3516 -0.4479
12364TIP3   OH258506   3.728   5.750   1.903  0.1986 -0.0381  0.0406
12364TIP3    H158507   3.758   5.661   1.921 -1.9344 -0.8234 -0.0434
12364TIP3    H258508   3.695   5.782   1.987 -0.3148  0.1478 -0.2280
12365TIP3   OH258509   0.445   4.269   1.752  0.4037  0.5355 -0.2937
12365TIP3    H158510   0.438   4.317   1.670 -0.0650  1.2475  0.1541
12365TIP3    H258511   0.387   4.194   1.742 -1.1385  1.6352  0.0760
12366TIP3   OH258512   5.355   2.309   5.124  0.1674 -0.4097  0.0164
12366TIP3    H158513   5.290   2.252   5.166  0.4309 -0.3897  0.4592
12366TIP3    H258514   5.382   2.369   5.193 -0.0462  0.2062 -0.4279
12367TIP3   OH258515   6.140   3.791  11.920 -0.8241  0.0798 -0.2311
12367TIP3    H158516   6.073   3.723  11.911 -0.2834 -0.2105 -2.6830
12367TIP3    H258517   6.115   3.858  11.857 -1.3179  2.2540  2.0851
12368TIP3   OH258518   2.982   1.978  15.362 -0.6089  0.2637  0.3091
12368TIP3    H158519   3.052   1.996  15.298 -2.0040 -0.4632 -1.4937
12368TIP3    H258520   3.028   1.942  15.438  1.0301  0.3206 -0.6028
12369TIP3   OH258521   3.482   4.137   0.306  0.4984 -0.3553  0.1457
12369TIP3    H158522   3.437   4.197   0.366  1.1970  1.4433 -1.0271
12369TIP3    H258523   3.521   4.195   0.240  0.9448 -2.1572 -1.2415
12370TIP3   OH258524   0.079   6.018  14.273  0.6909  0.4639 -0.3614
12370TIP3    H158525  -0.005   6.011  14.318  0.7300 -1.7142 -0.4905
12370TIP3    H258526   0.060   6.066  14.192 -0.9410 -1.7242 -1.3859
12371TIP3   OH258527   0.718   1.225   0.851  0.3461  0.4241  0.2430
12371TIP3    H158528   0.762   1.300   0.809 -0.2748  1.3581  1.1997
12371TIP3    H258529   0.626   1.251   0.854 -0.1667 -1.1131 -0.9087
12372TIP3   OH258530   2.137   1.767   5.828  0.1293  0.5679  0.3048
12372TIP3    H158531   2.054   1.753   5.783 -0.1493  0.5295  0.8187
12372TIP3    H258532   2.154   1.861   5.818 -0.6089  0.8169  1.2546
12373TIP3   OH258533   2.868   1.190   4.378  0.1592  0.3857  0.0719
12373TIP3    H158534   2.825   1.276   4.370 -0.4289  0.1183  0.3305
12373TIP3    H258535   2.842   1.158   4.464  1.0380  0.2960  0.3138
12374TIP3   OH258536   2.841   0.869  13.532 -0.1662 -0.3427 -0.5455
12374TIP3    H158537   2.923   0.852  13.579  0.4801  1.1832 -1.0603
12374TIP3    H258538   2.847   0.961  13.507 -2.4323  0.0280  0.1256
12375TIP3   OH258539   3.554   5.981  17.211 -0.0904 -0.2086 -0.3173
12375TIP3    H158540   3.485   6.019  17.265 -0.8857 -0.4818 -1.1124
12375TIP3    H258541   3.513   5.905  17.169  1.3145 -1.6733  0.8384
12376TIP3   OH258542   1.603   6.494  16.436 -0.3883 -0.1476 -0.0914
12376TIP3    H158543   1.616   6.474  16.529 -0.5107 -1.7275 -0.3908
12376TIP3    H258544   1.538   6.430  16.407 -0.0365  0.0593 -1.3726
12377TIP3   OH258545   2.836   6.072  14.451  0.2930 -0.1221 -0.5846
12377TIP3    H158546   2.801   6.129  14.519 -0.0199  0.5046 -1.2514
12377TIP3    H258547   2.765   6.066  14.387  1.6504  1.8689 -2.4036
12378TIP3   OH258548   2.837   1.137  13.462  0.5740 -0.3070  0.7027
12378TIP3    H158549   2.793   1.103  13.384 -2.0222 -1.9609  2.7004
12378TIP3    H258550   2.829   1.232  13.454 -0.3619 -0.4642 -0.6701
12379TIP3   OH258551   3.394   4.170   4.358  0.5702 -0.3541  0.5153
12379TIP3    H158552   3.421   4.114   4.285  0.5283  0.7375 -0.3646
12379TIP3    H258553   3.477   4.200   4.396  0.6198  0.6292 -0.3266
12380TIP3   OH258554   3.479   6.660  10.995  0.6188 -0.4175  0.1114
12380TIP3    H158555   3.416   6.618  10.937  0.9000  2.4533 -2.5242
12380TIP3    H258556   3.559   6.667  10.943  0.6563  2.9764  0.3965
12381TIP3   OH258557   2.308   1.550  16.154 -0.1744 -0.4441  0.0375
12381TIP3    H158558   2.314   1.508  16.240 -0.8539 -0.0897  0.2590
12381TIP3    H258559   2.371   1.501  16.100  0.0745 -0.8319  0.6614
12382TIP3   OH258560   0.778   3.608   0.378 -0.4848 -0.0387  0.2325
12382TIP3    H158561   0.748   3.547   0.445 -0.3751  0.5800  0.8591
12382TIP3    H258562   0.773   3.694   0.421  0.8730  0.2242 -0.1030
12383TIP3   OH258563   5.121   3.880  13.398  0.2844  0.0566  0.2130
12383TIP3    H158564   5.180   3.953  13.379  0.2530 -0.3410 -1.6216
12383TIP3    H258565   5.038   3.922  13.420  0.6439  0.5840  0.6099
12384TIP3   OH258566   4.597   5.828  13.831 -0.0329  0.0234  0.1598
12384TIP3    H158567   4.545   5.901  13.865  0.3068  1.4585 -2.1971
12384TIP3    H258568   4.535   5.755  13.827 -0.8203  0.6209  1.0377
12385TIP3   OH258569   2.989   3.071  12.782  0.4900 -0.6684  0.5378
12385TIP3    H158570   2.965   3.115  12.863  0.3011  0.4228 -0.0896
12385TIP3    H258571   2.905   3.043  12.745  0.3028  1.0619 -0.4880
12386TIP3   OH258572   3.017   5.460   2.096  0.2648 -0.0912 -0.2126
12386TIP3    H158573   2.936   5.413   2.075  0.6592 -0.1043 -1.8440
12386TIP3    H258574   3.085   5.411   2.051  0.5247  2.8206 -3.3966
12387TIP3   OH258575   3.667   6.653   3.721  0.4257  0.0237 -0.0164
12387TIP3    H158576   3.624   6.644   3.806  1.3015 -0.0968  0.4233
12387TIP3    H258577   3.685   6.747   3.713 -1.4448  0.3495 -0.9845
12388TIP3   OH258578   0.567   3.237   0.780 -0.1973 -0.6106  0.3520
12388TIP3    H158579   0.632   3.188   0.729  0.7662  1.3405 -0.3819
12388TIP3    H258580   0.586   3.329   0.761 -1.4528  0.1018  2.2806
12389TIP3   OH258581   0.868   3.686   2.722  0.4622 -0.4554  0.0841
12389TIP3    H158582   0.869   3.620   2.791 -0.1856  1.6849  2.3114
12389TIP3    H258583   0.813   3.756   2.757  1.6156  1.5505 -1.8443
12390TIP3   OH258584   5.355   0.254  15.012 -0.5187 -0.1487  0.2422
12390TIP3    H158585   5.325   0.319  14.948 -0.7200 -1.6583 -1.2820
12390TIP3    H258586   5.287   0.186  15.009  0.8123 -1.5330  0.0168
12391TIP3   OH258587   0.588   0.140   5.609 -0.2452  0.0670  0.2411
12391TIP3    H158588   0.525   0.082   5.567 -0.3585  0.6592 -0.4107
12391TIP3    H258589   0.541   0.178   5.683 -0.6562  0.5294 -0.2612
12392TIP3   OH258590   4.235   2.771  11.400  0.1460 -0.0086  0.0676
12392TIP3    H158591   4.273   2.807  11.320  0.5540 -0.9950 -0.1844
12392TIP3    H258592   4.164   2.832  11.421 -0.6562 -0.2970 -1.6265
12393TIP3   OH258593   1.025   2.056   5.561 -0.4414  0.3230 -0.3812
12393TIP3    H158594   0.948   2.003   5.580 -1.7732  1.8821 -1.1429
12393TIP3    H258595   1.088   2.032   5.628 -1.9276 -0.3480  0.8348
12394TIP3   OH258596   2.463   5.227   5.250 -0.4509  0.2799  0.1733
12394TIP3    H158597   2.485   5.161   5.316 -0.3240 -0.4077 -0.5451
12394TIP3    H258598   2.450   5.177   5.169  0.9927  1.2494 -0.7126
12395TIP3   OH258599   1.549   6.232   0.580 -0.5988 -0.5042 -0.2646
12395TIP3    H158600   1.612   6.251   0.650 -0.7882 -0.6524 -0.0542
12395TIP3    H258601   1.565   6.140   0.558 -1.0523 -0.6708  0.1028
12396TIP3   OH258602   5.582   3.596  16.164  0.0568 -0.3097  0.0496
12396TIP3    H158603   5.511   3.641  16.211 -0.9561 -0.1886 -1.5235
12396TIP3    H258604   5.653   3.659  16.163 -1.4996  1.5822 -2.5302
12397TIP3   OH258605   1.674   1.365   1.893  0.1967 -0.0685 -0.8099
12397TIP3    H158606   1.737   1.376   1.822  0.8536  1.2853 -0.0564
12397TIP3    H258607   1.590   1.394   1.856  0.5066  0.4994 -1.0723
12398TIP3   OH258608   6.197   1.841  13.598  0.0377  0.0494 -0.1910
12398TIP3    H158609   6.129   1.792  13.644  0.7032 -0.3356  0.4067
12398TIP3    H258610   6.279   1.803  13.630  0.5642  1.4320  0.1615
12399TIP3   OH258611   4.077   3.213   3.174 -0.2629 -0.1221 -0.3226
12399TIP3    H158612   4.135   3.137   3.169  1.4001  1.0968 -0.3477
12399TIP3    H258613   4.015   3.191   3.244  2.5053 -0.0380  2.4021
12400TIP3   OH258614   1.674   1.147  14.064 -0.3998  0.5774 -0.4746
12400TIP3    H158615   1.651   1.220  14.007 -2.6015  0.3399  0.0412
12400TIP3    H258616   1.711   1.188  14.142 -0.5365  1.0824 -0.6718
12401TIP3   OH258617   1.242   0.502  14.830 -0.2103  0.1913 -0.0763
12401TIP3    H158618   1.159   0.504  14.782  0.4518 -0.4305 -1.2778
12401TIP3    H258619   1.301   0.451  14.775  0.7666 -0.0121  1.1153
12402TIP3   OH258620   4.462   4.582  16.087  0.6028  0.4131  0.3203
12402TIP3    H158621   4.508   4.661  16.116 -0.2354  0.2576  2.2554
12402TIP3    H258622   4.532   4.520  16.066  1.3251  0.6827  1.7531
12403TIP3   OH258623   6.637   1.352  17.238 -1.0942 -0.7508 -0.1294
12403TIP3    H158624   6.621   1.307  17.322 -0.2169  0.5969  0.7994
12403TIP3    H258625   6.590   1.435  17.247 -0.0329 -0.0998 -0.4932
12404TIP3   OH258626   2.970   1.538  17.158  0.4567 -0.2148 -0.0053
12404TIP3    H158627   2.907   1.541  17.085  0.5982 -0.4270 -0.1384
12404TIP3    H258628   2.939   1.466  17.213 -0.1651  0.5195  0.6244
12405TIP3   OH258629   2.051   3.397   0.564 -0.1526  0.2251  0.0553
12405TIP3    H158630   2.125   3.423   0.619 -1.4942  2.7358  0.8438
12405TIP3    H258631   2.087   3.392   0.475  0.8410  2.1826  0.3005
12406TIP3   OH258632   5.436   5.061  13.343 -0.1887 -0.7592 -0.0918
12406TIP3    H158633   5.429   5.095  13.254  0.2680 -1.0157 -0.2259
12406TIP3    H258634   5.514   5.104  13.379 -0.9247  0.1149  0.5306
12407TIP3   OH258635   6.387   4.702  11.958  0.1500  0.0430 -0.8285
12407TIP3    H158636   6.418   4.771  12.017 -1.0540 -0.7712  0.8177
12407TIP3    H258637   6.311   4.741  11.914  0.7593  0.4815 -1.5206
12408TIP3   OH258638   2.178   0.536   5.024 -0.3913 -0.2669  0.0007
12408TIP3    H158639   2.109   0.598   5.046  0.3199  0.8304 -0.7897
12408TIP3    H258640   2.255   0.567   5.072  0.4461  0.5567 -1.8081
12409TIP3   OH258641   4.412   0.142   6.781  0.4464 -0.0057 -0.2942
12409TIP3    H158642   4.488   0.163   6.727  0.8061 -0.0424  0.1941
12409TIP3    H258643   4.442   0.074   6.840 -0.5807 -1.6097 -1.5373
12410TIP3   OH258644   5.528   4.735  16.031 -0.1887 -0.1664 -0.1854
12410TIP3    H158645   5.612   4.696  16.006 -1.0460 -1.8885 -0.5657
12410TIP3    H258646   5.504   4.792  15.958  0.5132  0.1041 -0.2037
12411TIP3   OH258647   4.976   5.978   4.780  0.5387  0.1481  0.2352
12411TIP3    H158648   4.899   5.989   4.723  1.0400  1.2647 -0.2669
12411TIP3    H258649   5.043   6.032   4.739  2.0894 -1.9966 -0.1920
12412TIP3   OH258650   6.664   3.963   3.075 -0.1337 -0.0284  0.5375
12412TIP3    H158651   6.643   3.938   2.985  0.8640 -0.8759  0.5159
12412TIP3    H258652   6.614   3.902   3.129 -1.0901  0.7733  0.5867
12413TIP3   OH258653   5.261   1.453  17.168  0.4116 -0.1251  0.1333
12413TIP3    H158654   5.314   1.375  17.182  0.8809  0.0925 -0.3946
12413TIP3    H258655   5.278   1.478  17.078 -0.9058 -0.2724 -0.1769
12414TIP3   OH258656   5.696   1.185  15.382 -0.0431 -0.5554  0.2552
12414TIP3    H158657   5.775   1.211  15.333  0.7574 -0.3974  1.5759
12414TIP3    H258658   5.681   1.094  15.356 -0.5591 -0.0238 -1.4304
12415TIP3   OH258659   5.077   3.864   2.161  0.0858  0.3934 -0.0196
12415TIP3    H158660   5.171   3.874   2.145 -0.2524  0.9147 -1.8574
12415TIP3    H258661   5.044   3.823   2.082 -1.1553 -0.4175  0.8892
12416TIP3   OH258662   4.017   2.491  15.619  0.1769  0.2328 -0.1551
12416TIP3    H158663   4.010   2.448  15.534  0.8736 -1.5707  0.6535
12416TIP3    H258664   3.926   2.505  15.646 -0.0655  1.4317 -1.4318
12417TIP3   OH258665   3.917   5.705  12.899  0.2139  0.6163 -0.6613
12417TIP3    H158666   3.928   5.656  12.818 -0.2693 -0.1854 -0.2449
12417TIP3    H258667   3.823   5.713  12.910  0.2492 -0.2314  0.3826
12418TIP3   OH258668   0.148   3.316   2.250  0.0267 -0.1274 -0.0831
12418TIP3    H158669   0.099   3.351   2.175 -0.1989  3.6891  1.6114
12418TIP3    H258670   0.226   3.275   2.210  0.0783  1.9856 -2.4720
12419TIP3   OH258671   6.350   3.377  15.933 -0.1068 -0.4962 -0.0927
12419TIP3    H158672   6.274   3.387  15.990  1.4718  0.2452  2.0213
12419TIP3    H258673   6.358   3.461  15.887  0.6259  0.2429  1.3192
12420TIP3   OH258674   4.824   5.800  14.955  0.2214 -0.3655  0.2035
12420TIP3    H158675   4.919   5.788  14.950  0.0702 -1.3271 -0.7571
12420TIP3    H258676   4.792   5.765  14.872 -0.7490  2.4552 -0.7171
12421TIP3   OH258677   0.966   5.379   6.721 -0.2296 -0.3864 -0.4041
12421TIP3    H158678   1.008   5.461   6.696 -0.2992 -0.3095 -0.2724
12421TIP3    H258679   0.985   5.319   6.649 -2.0595  0.3727 -1.6108
12422TIP3   OH258680   1.334   4.061   3.686 -0.3203 -0.0407  0.0480
12422TIP3    H158681   1.366   3.995   3.748 -0.8911  0.6624  1.1196
12422TIP3    H258682   1.407   4.075   3.625  0.0298 -1.1819  0.1945
12423TIP3   OH258683   3.098   3.908  14.148  0.3195 -0.0419 -0.1177
12423TIP3    H158684   3.057   3.893  14.063  1.0306  0.1758 -0.5025
12423TIP3    H258685   3.060   3.990  14.179 -0.4950 -0.4987  0.1195
12424TIP3   OH258686   6.706   5.595   4.877 -0.6579  0.0032  0.7811
12424TIP3    H158687   6.648   5.621   4.948 -0.6462  0.4682  0.6248
12424TIP3    H258688   6.791   5.583   4.919 -0.0639  2.6705  0.4860
12425TIP3   OH258689   2.421   4.175  13.290 -0.4396 -0.3317  0.6370
12425TIP3    H158690   2.393   4.199  13.202  2.4693 -1.8355 -0.8637
12425TIP3    H258691   2.402   4.082  13.297  0.5034 -0.5054  1.0833
12426TIP3   OH258692   0.184   0.887  16.943  0.2108 -0.4186  0.1021
12426TIP3    H158693   0.112   0.946  16.965  1.1252  0.6232  0.4288
12426TIP3    H258694   0.151   0.800  16.963 -0.8976  0.0523  0.4003
12427TIP3   OH258695   4.210   2.311  13.536  0.3483 -0.4760  0.1953
12427TIP3    H158696   4.231   2.399  13.503 -0.3232 -0.2433  0.3634
12427TIP3    H258697   4.289   2.284  13.583  0.1409  0.5596  1.2007
12428TIP3   OH258698   5.460   5.565  14.958  0.1553  0.0475 -0.2442
12428TIP3    H158699   5.530   5.571  14.894 -0.0696  0.3161 -0.4691
12428TIP3    H258700   5.381   5.546  14.907 -0.3018  1.7760 -0.2407
12429TIP3   OH258701   4.662   6.066   0.845  0.2672  0.4891  0.2822
12429TIP3    H158702   4.743   6.101   0.882  0.1595 -0.6299  1.6760
12429TIP3    H258703   4.595   6.084   0.911 -0.2172 -0.3451  0.0338
12430TIP3   OH258704   3.581   4.845   2.670 -0.3923  0.1320  0.1939
12430TIP3    H158705   3.532   4.903   2.729 -0.3349  2.2124 -1.6824
12430TIP3    H258706   3.546   4.864   2.583  1.0636 -1.2032 -0.7356
12431TIP3   OH258707   2.803   4.565   2.238 -0.0510 -0.1250  0.4252
12431TIP3    H158708   2.880   4.513   2.214  0.4588 -0.3213  2.2708
12431TIP3    H258709   2.728   4.514   2.209  0.4906 -1.0012  0.5440
12432TIP3   OH258710   5.957   3.970  12.366 -0.1580 -0.3695  0.6836
12432TIP3    H158711   5.979   3.884  12.403 -2.1793 -0.9767  0.5866
12432TIP3    H258712   5.876   3.955  12.317  0.6709  1.1284 -1.2835
12433TIP3   OH258713   1.662   2.492  15.848 -0.4441 -0.1613 -0.0787
12433TIP3    H158714   1.713   2.436  15.907  0.9307 -1.1526 -2.0957
12433TIP3    H258715   1.589   2.436  15.821 -0.7755  0.1112  0.2354
12434TIP3   OH258716   4.969   0.679  14.732  0.2933  0.0676  0.4387
12434TIP3    H158717   4.939   0.741  14.666  2.4601 -0.2036 -0.8975
12434TIP3    H258718   4.890   0.654  14.779 -0.9247  2.3848 -0.2012
12435TIP3   OH258719   4.211   3.589  15.730  0.0213  0.0972  0.1996
12435TIP3    H158720   4.262   3.509  15.743 -1.2503 -0.8430 -0.2461
12435TIP3    H258721   4.213   3.603  15.635  2.1718  1.9853  0.4486
12436TIP3   OH258722   5.529   1.094   1.740  0.0658  0.1502 -0.0061
12436TIP3    H158723   5.588   1.068   1.810  0.7158  1.7524  0.0738
12436TIP3    H258724   5.444   1.105   1.784  0.5350  1.4495  0.6195
12437TIP3   OH258725   1.044   3.027   5.345  0.3718 -0.4061 -1.2234
12437TIP3    H158726   1.046   3.084   5.269 -0.6918  2.8421  0.9852
12437TIP3    H258727   1.128   3.043   5.389  0.2477 -0.9066 -0.7929
12438TIP3   OH258728   6.110   4.613   2.979 -0.2746  0.5116  0.3382
12438TIP3    H158729   6.125   4.537   2.924  1.3635  0.8620  0.2592
12438TIP3    H258730   6.054   4.670   2.925  0.8792  0.6255 -0.7777
12439TIP3   OH258731   0.877   2.675  13.544 -0.3379  0.0935 -0.1226
12439TIP3    H158732   0.898   2.582  13.534 -0.1858  0.2285 -1.2121
12439TIP3    H258733   0.805   2.690  13.483 -2.1947  0.1365  1.9374
12440TIP3   OH258734   0.477   1.165   3.179 -0.0266  0.3451  0.2630
12440TIP3    H158735   0.490   1.216   3.259  1.2699 -0.3966  0.5549
12440TIP3    H258736   0.536   1.206   3.115  0.5454 -0.3622  0.3202
12441TIP3   OH258737   0.541   1.360   5.086  0.2007  0.6449 -0.3683
12441TIP3    H158738   0.477   1.312   5.035 -1.9604  0.0810  2.6010
12441TIP3    H258739   0.558   1.440   5.035 -1.5276 -0.0121 -2.0680
12442TIP3   OH258740   6.016   5.787   5.006 -0.6594 -0.3379  0.1174
12442TIP3    H158741   5.939   5.838   4.984  0.4055  1.8794  1.2595
12442TIP3    H258742   6.035   5.736   4.927 -2.3783  0.2344 -0.7007
12443TIP3   OH258743   6.702   5.738  11.291  0.3985 -0.2720  0.2921
12443TIP3    H158744   6.669   5.724  11.380 -1.4132  1.1106 -0.1041
12443TIP3    H258745   6.652   5.677  11.237 -0.4587  0.7529 -0.1068
12444TIP3   OH258746   6.060   1.476  13.679  0.1844  0.3119 -0.2812
12444TIP3    H158747   6.129   1.465  13.744  1.3156  0.0116 -1.4877
12444TIP3    H258748   6.106   1.492  13.597 -1.1955  0.5860 -1.0442
12445TIP3   OH258749   1.164   3.588  16.974 -0.0200 -0.2985 -0.3684
12445TIP3    H158750   1.207   3.647  16.912 -0.8911 -0.6465 -1.3434
12445TIP3    H258751   1.071   3.592  16.950 -0.7603  1.2365  2.3444
12446TIP3   OH258752   3.133   1.198   1.302 -0.2615  0.5107  0.1332
12446TIP3    H158753   3.083   1.274   1.272  0.5353  1.1798  0.4720
12446TIP3    H258754   3.129   1.203   1.397  0.4495  0.5713  0.1621
12447TIP3   OH258755   0.001   4.137  14.826 -0.1653  0.1768 -0.8183
12447TIP3    H158756  -0.066   4.198  14.795 -2.3062 -1.2409  0.6944
12447TIP3    H258757  -0.008   4.061  14.769 -0.0162 -0.0988 -0.4825
12448TIP3   OH258758   5.866   6.161  14.227  0.3804  0.9075 -0.7556
12448TIP3    H158759   5.832   6.097  14.164  2.0288 -0.7516 -0.0689
12448TIP3    H258760   5.960   6.165  14.209  0.8648  0.5858  1.3756
12449TIP3   OH258761   5.108   1.437   4.207 -0.4435  0.3484  0.6147
12449TIP3    H158762   5.088   1.517   4.158  0.5425  0.5294  0.4933
12449TIP3    H258763   5.174   1.464   4.271 -1.1254 -0.0683  1.5158
12450TIP3   OH258764   0.515   1.826  14.317 -0.0419 -0.0352 -0.1652
12450TIP3    H158765   0.476   1.743  14.291 -0.3052 -0.2404  0.8233
12450TIP3    H258766   0.462   1.892  14.272 -0.4104 -0.3752 -0.2383
12451TIP3   OH258767   2.830   0.420  12.832 -0.5659 -0.2295  0.3867
12451TIP3    H158768   2.736   0.431  12.840 -0.4066 -0.1722  4.6994
12451TIP3    H258769   2.858   0.391  12.919  3.3376 -0.9369 -0.9026
12452TIP3   OH258770   0.783   0.527   1.419  0.1113  0.0891 -0.5351
12452TIP3    H158771   0.833   0.574   1.486  1.5043 -0.1813 -1.3420
12452TIP3    H258772   0.699   0.572   1.417  0.6682  1.2340  0.1569
12453TIP3   OH258773   4.695   4.307   5.468 -0.1326 -0.3824 -0.1312
12453TIP3    H158774   4.752   4.383   5.462 -0.3244 -0.2152  0.1224
12453TIP3    H258775   4.745   4.243   5.519 -0.5771  0.1519  1.0009
12454TIP3   OH258776   4.572   6.271  12.031 -0.0028  1.0290 -0.7524
12454TIP3    H158777   4.568   6.193  11.976 -1.2333  1.2197 -0.9535
12454TIP3    H258778   4.567   6.237  12.121 -0.6117  0.8774 -0.8417
12455TIP3   OH258779   5.679   3.894   2.385 -1.1669 -0.0255 -0.1890
12455TIP3    H158780   5.724   3.810   2.372  0.1988  0.6147  0.2154
12455TIP3    H258781   5.622   3.880   2.460  0.1858 -0.1934  0.8512
12456TIP3   OH258782   0.359   2.584  17.416  0.4750  0.3647 -0.4674
12456TIP3    H158783   0.308   2.522  17.363 -0.5155 -1.5441  2.4505
12456TIP3    H258784   0.431   2.532  17.451 -0.9357  0.4103  2.8687
12457TIP3   OH258785   2.189   5.068  12.872 -0.1261 -1.0294 -0.8596
12457TIP3    H158786   2.188   4.984  12.917 -0.3508 -1.7998 -2.2443
12457TIP3    H258787   2.256   5.119  12.918 -1.2456 -1.2844  1.1407
12458TIP3   OH258788   3.320   2.450  17.036  0.0346  0.3270  0.1417
12458TIP3    H158789   3.411   2.478  17.050  0.0758 -0.3339  1.3742
12458TIP3    H258790   3.269   2.530  17.045  0.2521  0.2881  2.4561
12459TIP3   OH258791   4.958   4.950  15.902 -0.3464  0.0413 -0.0406
12459TIP3    H158792   5.022   4.932  15.834 -1.2289 -2.3887 -0.3431
12459TIP3    H258793   4.880   4.979  15.855 -0.6881 -0.8129 -0.0133
12460TIP3   OH258794   3.850   2.434  16.249 -0.2316 -0.6187  0.5736
12460TIP3    H158795   3.806   2.467  16.171 -1.5688 -1.6761  0.8360
12460TIP3    H258796   3.812   2.483  16.321  0.5534 -0.0754  0.6220
12461TIP3   OH258797   5.778   5.995  12.919 -0.3847  1.4184 -0.0001
12461TIP3    H158798   5.845   6.008  12.986  0.8340 -0.7707 -0.6873
12461TIP3    H258799   5.784   5.902  12.897 -0.1368  2.1581 -3.7194
12462TIP3   OH258800   3.617   3.456  14.066  0.0624 -0.1600  0.3670
12462TIP3    H158801   3.710   3.462  14.089  0.2913  1.3934 -0.8223
12462TIP3    H258802   3.614   3.387  13.999  0.1086 -1.2842  1.4958
12463TIP3   OH258803   0.423   3.551   3.669 -0.2551  0.3440  0.3099
12463TIP3    H158804   0.435   3.646   3.660 -0.8146  0.4692  0.8290
12463TIP3    H258805   0.399   3.539   3.761  1.3464 -0.4636  0.6615
12464TIP3   OH258806   1.039   2.206  14.655 -0.2141  0.0612  0.1687
12464TIP3    H158807   0.991   2.126  14.677 -0.2229 -0.5123 -1.7068
12464TIP3    H258808   1.130   2.187  14.679 -0.7148  0.8702  3.0301
12465TIP3   OH258809   6.704   4.697  16.942 -0.1556  0.0769  0.6339
12465TIP3    H158810   6.718   4.787  16.912  0.2898 -0.3117 -0.3589
12465TIP3    H258811   6.617   4.698  16.982  0.8539  1.5478  3.0386
12466TIP3   OH258812   1.289   1.108   5.077  0.5000  0.0198  0.7604
12466TIP3    H158813   1.347   1.182   5.094 -0.3770  0.7214  0.7715
12466TIP3    H258814   1.232   1.137   5.006  1.7140 -1.5385 -0.9352
12467TIP3   OH258815   1.912   0.251   4.578  0.6800 -0.0369  0.4114
12467TIP3    H158816   1.846   0.186   4.606  1.8192 -0.8348  1.3252
12467TIP3    H258817   1.922   0.309   4.653  0.7631  0.3121  0.1334
12468TIP3   OH258818   1.688   1.734   3.541 -0.6086  0.2055 -0.5725
12468TIP3    H158819   1.647   1.691   3.616 -0.9910  1.5282 -0.0033
12468TIP3    H258820   1.766   1.681   3.523 -0.6243 -0.2460  0.6218
12469TIP3   OH258821   0.407   0.934   1.486  0.1664 -0.0686  0.0150
12469TIP3    H158822   0.461   0.855   1.493 -1.2250 -1.2192 -1.3771
12469TIP3    H258823   0.352   0.933   1.565  0.7933  0.0249  0.4551
12470TIP3   OH258824   4.148   1.834  17.013 -0.2826 -0.0249  0.1732
12470TIP3    H158825   4.229   1.846  17.061 -1.2092  1.2653  1.5358
12470TIP3    H258826   4.104   1.919  17.019 -1.6622 -0.6320 -0.6743
12471TIP3   OH258827   5.783   0.630   0.472  0.5064  0.0165  0.2779
12471TIP3    H158828   5.755   0.637   0.381 -0.3360 -0.1477  0.5130
12471TIP3    H258829   5.767   0.539   0.495  1.3948 -0.1196  0.3821
12472TIP3   OH258830   5.118   4.370   6.867 -0.5596  0.4479  0.6288
12472TIP3    H158831   5.137   4.329   6.783 -1.8627  1.1335 -0.0347
12472TIP3    H258832   5.031   4.337   6.891 -1.3967  2.3315  0.3556
12473TIP3   OH258833   6.094   2.615   0.409  0.5932 -0.4892  0.0612
12473TIP3    H158834   6.190   2.610   0.408  0.6936  0.1179  2.0522
12473TIP3    H258835   6.075   2.708   0.394  0.3277 -0.5618 -0.0489
12474TIP3   OH258836   6.044   6.381  13.818  0.2472 -0.3626  0.3267
12474TIP3    H158837   5.967   6.335  13.783 -0.1469  0.8702 -0.4868
12474TIP3    H258838   6.102   6.391  13.743  0.5680  0.0089  0.6210
12475TIP3   OH258839   0.122   4.181  13.139  0.0058 -0.3682  0.0944
12475TIP3    H158840   0.211   4.147  13.140 -0.1861 -0.8668  0.6220
12475TIP3    H258841   0.132   4.273  13.113  0.5420 -0.7632 -1.1417
12476TIP3   OH258842   1.437   4.671   3.355  0.1944 -0.2106 -0.0598
12476TIP3    H158843   1.492   4.593   3.356 -1.1658 -1.1991  1.1057
12476TIP3    H258844   1.349   4.638   3.333 -0.8097  0.6575  2.3865
12477TIP3   OH258845   1.667   4.125   5.264  0.4220 -0.6736 -0.1998
12477TIP3    H158846   1.720   4.156   5.337 -1.4043 -0.9653  1.3152
12477TIP3    H258847   1.620   4.203   5.233 -1.8221 -1.2053  1.6041
12478TIP3   OH258848   2.132   4.623   2.939 -0.1826 -0.2597  0.7257
12478TIP3    H158849   2.089   4.553   2.988 -0.1726  0.5043  1.8610
12478TIP3    H258850   2.080   4.701   2.958  1.1443  0.4905  1.3546
12479TIP3   OH258851   1.682   6.453  15.245 -0.6681  0.1878 -0.3970
12479TIP3    H158852   1.773   6.480  15.251 -0.5766 -0.3335  1.0387
12479TIP3    H258853   1.633   6.524  15.286 -0.5840 -0.8606  1.7014
12480TIP3   OH258854   3.348   0.697  16.417 -0.3191 -0.2142 -0.4663
12480TIP3    H158855   3.287   0.771  16.418  0.8249  0.8080 -1.7360
12480TIP3    H258856   3.298   0.624  16.454 -1.4263  1.2157  0.9615
12481TIP3   OH258857   2.838   3.705   4.912  0.1259 -0.4095 -0.2090
12481TIP3    H158858   2.750   3.742   4.913  0.4156  0.2688  0.7433
12481TIP3    H258859   2.854   3.685   4.819 -0.7401  0.1311 -0.4872
12482TIP3   OH258860   2.706   6.121  16.850  0.2100  0.3122  0.1216
12482TIP3    H158861   2.795   6.150  16.830  1.0435 -0.2491  2.6530
12482TIP3    H258862   2.712   6.025  16.851 -0.3562  0.2755  0.5727
12483TIP3   OH258863   2.967   3.579  16.839  0.1393 -0.1893 -0.2767
12483TIP3    H158864   2.946   3.625  16.920  0.6530 -0.2266 -0.1196
12483TIP3    H258865   3.062   3.583  16.833  0.0437  1.2679 -1.7177
12484TIP3   OH258866   4.165   4.317   2.682  0.0368 -0.0810  0.1483
12484TIP3    H158867   4.165   4.243   2.622 -0.9605  0.1649 -0.1612
12484TIP3    H258868   4.251   4.312   2.725 -0.1537 -1.6160  0.4050
12485TIP3   OH258869   5.072   1.364  12.812 -0.7096 -0.3763  0.3509
12485TIP3    H158870   5.095   1.344  12.721 -2.0849  2.4127 -0.7383
12485TIP3    H258871   5.054   1.458  12.812  1.2594  0.1969  3.9996
12486TIP3   OH258872   3.759   1.517   1.431 -1.0477 -0.0850  0.1974
12486TIP3    H158873   3.787   1.499   1.341 -1.4785  0.7069 -0.1028
12486TIP3    H258874   3.839   1.547   1.474 -0.9855  0.2096 -0.1138
12487TIP3   OH258875   2.633   4.462  15.585  0.1245  0.0168 -0.6644
12487TIP3    H158876   2.641   4.550  15.623 -4.3189  0.4431 -0.1519
12487TIP3    H258877   2.660   4.474  15.494  0.3751  1.7125 -0.4149
12488TIP3   OH258878   0.740   3.021   2.668 -0.0768 -0.3531  0.0343
12488TIP3    H158879   0.697   2.952   2.719 -2.7208  2.2053  1.6254
12488TIP3    H258880   0.806   3.057   2.727 -1.0225  0.6101  0.5313
12489TIP3   OH258881   1.269   4.391  14.584  0.3170 -0.6213  0.1008
12489TIP3    H158882   1.335   4.322  14.585 -0.3586 -1.2707  0.1874
12489TIP3    H258883   1.233   4.391  14.673  0.3648 -0.1044  0.1241
12490TIP3   OH258884   4.440   6.165   0.630 -0.1610  0.1273 -0.6065
12490TIP3    H158885   4.508   6.109   0.593 -0.1262 -0.0653 -0.2525
12490TIP3    H258886   4.366   6.156   0.571 -0.3646 -0.7577 -0.2300
12491TIP3   OH258887   6.407   3.451  12.796 -0.0970 -0.0746  0.3507
12491TIP3    H158888   6.367   3.423  12.714  2.3619 -1.3527 -0.5138
12491TIP3    H258889   6.382   3.384  12.859 -0.3678 -0.1740  0.1389
12492TIP3   OH258890   3.637   4.501   2.308 -0.2202  0.3694  0.4082
12492TIP3    H158891   3.548   4.473   2.329 -0.8045  1.2542 -0.7452
12492TIP3    H258892   3.641   4.500   2.213  1.6517 -1.5169  0.4422
12493TIP3   OH258893   3.959   2.498   4.880  0.0013 -0.3983 -0.0831
12493TIP3    H158894   3.897   2.479   4.810  1.2510  0.6592 -1.5632
12493TIP3    H258895   4.042   2.463   4.849  0.5915  0.0916  0.8680
12494TIP3   OH258896   1.637   5.076  13.346  0.7098  0.1043 -0.2223
12494TIP3    H158897   1.592   5.161  13.350  0.5886  0.0375 -0.1479
12494TIP3    H258898   1.659   5.065  13.253 -1.7142 -1.0358 -0.7342
12495TIP3   OH258899   4.801   4.506  13.243  0.1477  0.3519  0.2743
12495TIP3    H158900   4.734   4.567  13.273  0.5358  0.6752  0.4941
12495TIP3    H258901   4.808   4.522  13.149  0.6439  1.0491  0.4215
12496TIP3   OH258902   6.316   1.160  11.142  0.1105  0.5425  0.8193
12496TIP3    H158903   6.359   1.117  11.068  0.8240  2.8463 -0.1824
12496TIP3    H258904   6.286   1.244  11.108 -1.5906  0.7456  2.5802
12497TIP3   OH258905   2.304   3.662   2.267 -0.1726  0.2937  0.3439
12497TIP3    H158906   2.340   3.623   2.347 -0.4753  1.4909  1.0832
12497TIP3    H258907   2.371   3.646   2.201 -0.9879 -2.9973  0.1301
12498TIP3   OH258908   3.387   5.037   1.669 -0.2745  1.0165 -0.1577
12498TIP3    H158909   3.319   5.103   1.685  0.1156  0.9434  2.2366
12498TIP3    H258910   3.457   5.059   1.731  0.5505 -0.7182 -0.4084
12499TIP3   OH258911   6.651   6.033  15.502 -0.3318  0.2312  0.0909
12499TIP3    H158912   6.620   5.951  15.538 -0.0425  0.1940  0.2569
12499TIP3    H258913   6.572   6.083  15.482 -0.6144 -1.0382 -2.2532
12500TIP3   OH258914   4.679   1.789   2.898  0.0446  0.0317 -0.3352
12500TIP3    H158915   4.644   1.779   2.986 -2.2070  0.2786 -1.1428
12500TIP3    H258916   4.708   1.701   2.874 -0.5584 -0.3143  0.1700
12501TIP3   OH258917   0.607   3.897   3.090  0.3506 -0.3736 -0.5759
12501TIP3    H158918   0.561   3.818   3.119  0.8257 -0.4859 -0.1082
12501TIP3    H258919   0.628   3.880   2.998  1.0344 -1.0718 -0.2968
12502TIP3   OH258920   6.503   6.271  13.953 -0.0622  0.0580 -0.0692
12502TIP3    H158921   6.550   6.188  13.966  0.4579  0.0365 -1.8586
12502TIP3    H258922   6.505   6.313  14.040 -0.5389 -1.8740  0.9245
12503TIP3   OH258923   1.253   0.045  16.470  0.1632 -0.3597 -0.5573
12503TIP3    H158924   1.273   0.109  16.539  0.5029  0.2411 -1.2052
12503TIP3    H258925   1.339   0.013  16.442  0.0019 -0.9724 -0.3667
12504TIP3   OH258926   3.405   2.747   2.734  0.7187 -0.4910 -0.3409
12504TIP3    H158927   3.348   2.792   2.672 -0.0790  1.3453  1.6019
12504TIP3    H258928   3.477   2.808   2.748  0.3078 -0.3690  1.3517
12505TIP3   OH258929   4.279   2.365   3.535  0.4740  0.0758  0.0199
12505TIP3    H158930   4.347   2.430   3.551 -1.2027  1.8408  0.3722
12505TIP3    H258931   4.197   2.412   3.551 -0.8203 -2.2020  0.4771
12506TIP3   OH258932   1.804   3.841  12.390  0.1374 -0.0600 -0.6245
12506TIP3    H158933   1.888   3.797  12.399  0.7929  1.2239 -0.1769
12506TIP3    H258934   1.743   3.790  12.443  0.8959 -0.3507 -0.0303
12507TIP3   OH258935   4.112   3.240   1.089 -0.3613  0.2547 -0.4537
12507TIP3    H158936   4.164   3.317   1.113 -0.0740 -0.1329  0.2001
12507TIP3    H258937   4.166   3.195   1.024 -0.7095  0.8044 -1.1406
12508TIP3   OH258938   4.969   3.381  10.862 -0.7805 -0.1032  0.5009
12508TIP3    H158939   4.930   3.463  10.831  0.7641 -0.4475 -2.8714
12508TIP3    H258940   5.063   3.400  10.865 -0.4956 -1.4596  0.6175
12509TIP3   OH258941   5.462   3.999  17.032 -0.0228 -0.0521 -0.2651
12509TIP3    H158942   5.553   3.971  17.048 -0.8480 -3.2116 -0.2763
12509TIP3    H258943   5.462   4.028  16.940  0.9649 -0.0741 -0.2860
12510TIP3   OH258944   3.320   2.980  11.745 -1.0016  0.2025  0.3907
12510TIP3    H158945   3.345   2.888  11.753 -1.4163  0.1164  0.7027
12510TIP3    H258946   3.333   3.001  11.652 -2.0485 -0.5107  0.0634
12511TIP3   OH258947   0.284   1.159  15.827  0.4165 -0.3009  0.3132
12511TIP3    H158948   0.373   1.137  15.852  0.0647 -2.2550 -0.0051
12511TIP3    H258949   0.235   1.162  15.909  0.8708  1.4884  0.5631
12512TIP3   OH258950   1.670   2.771  16.705 -0.2103 -0.3536 -1.0252
12512TIP3    H158951   1.698   2.685  16.673 -3.5960 -1.9849 -0.0473
12512TIP3    H258952   1.745   2.803  16.755  2.5515 -0.9237 -4.4178
12513TIP3   OH258953   3.358   1.281   5.337 -0.0010 -0.2571  0.0961
12513TIP3    H158954   3.336   1.195   5.301 -2.5591 -0.6730  2.3505
12513TIP3    H258955   3.414   1.262   5.412  1.2634  0.2496 -0.6924
12514TIP3   OH258956   2.867   0.261  14.493 -0.2669  0.2995  0.3681
12514TIP3    H158957   2.878   0.292  14.403  1.8373 -1.0733  0.0870
12514TIP3    H258958   2.792   0.311  14.527 -1.1491  0.7934 -2.1411
12515TIP3   OH258959   0.441   6.209  12.785  0.0244  0.2917 -0.4979
12515TIP3    H158960   0.349   6.188  12.768  0.0208  0.3068 -0.4981
12515TIP3    H258961   0.437   6.285  12.844  0.0315 -0.6681  0.7799
12516TIP3   OH258962   5.988   4.538  11.991 -0.0127  0.4938  0.3442
12516TIP3    H158963   5.991   4.489  11.908 -1.2763 -0.5069  0.8499
12516TIP3    H258964   5.974   4.629  11.965  1.0105  0.4086 -0.5750
12517TIP3   OH258965   5.823   0.047  16.487  0.0394 -0.1788 -0.2016
12517TIP3    H158966   5.774   0.093  16.419  1.5804  0.9510 -0.6120
12517TIP3    H258967   5.799   0.092  16.568 -0.0275  0.0055 -0.3229
12518TIP3   OH258968   0.459   5.815  16.191 -0.4022 -0.1504  0.5519
12518TIP3    H158969   0.404   5.889  16.168 -0.7688 -0.9353 -1.3587
12518TIP3    H258970   0.529   5.852  16.244 -1.5954  1.2167  1.2204
12519TIP3   OH258971   5.579   2.557   5.593 -0.0339 -0.1230 -0.1262
12519TIP3    H158972   5.638   2.562   5.668  2.5533  0.8426 -2.0786
12519TIP3    H258973   5.529   2.639   5.596  0.6080  0.2624  0.1224
12520TIP3   OH258974   1.495   0.980  13.514  0.0250  0.1388 -0.2777
12520TIP3    H158975   1.565   0.919  13.491  0.2437  0.3731 -0.2469
12520TIP3    H258976   1.427   0.926  13.554 -0.9196 -0.4764 -2.5927
12521TIP3   OH258977   5.587   0.513  14.459  0.5312 -0.1512 -0.2891
12521TIP3    H158978   5.649   0.555  14.520  1.4383 -0.2006 -1.1382
12521TIP3    H258979   5.531   0.459  14.514  1.6077 -0.5375  0.4692
12522TIP3   OH258980   6.307   0.234   0.301  0.1074  0.7065 -0.4346
12522TIP3    H158981   6.242   0.164   0.309  0.5204  0.4676  1.2301
12522TIP3    H258982   6.255   0.314   0.294 -0.4005  0.4757  0.4306
12523TIP3   OH258983   3.930   3.861  16.053  0.3300 -0.5242  0.0446
12523TIP3    H158984   3.957   3.949  16.026 -0.0019 -0.4213  0.0389
12523TIP3    H258985   3.943   3.860  16.148  0.6094 -0.5679  0.0073
12524TIP3   OH258986   3.652   1.894   2.420 -0.2389 -0.1664 -0.2929
12524TIP3    H158987   3.608   1.978   2.405 -1.7741 -0.7898  0.5971
12524TIP3    H258988   3.593   1.829   2.384  0.0775 -1.0082  0.6620
12525TIP3   OH258989   0.599   2.432   1.706  0.7526  0.1775  0.6267
12525TIP3    H158990   0.582   2.342   1.679  2.7000 -0.2924  0.8299
12525TIP3    H258991   0.514   2.465   1.735 -0.3441 -0.9895 -1.1249
12526TIP3   OH258992   4.886   5.939   4.518 -0.6338  0.3299 -0.2498
12526TIP3    H158993   4.902   6.012   4.458 -0.1521  1.4389  1.1776
12526TIP3    H258994   4.943   5.869   4.485 -1.0185  0.6046 -1.5730
12527TIP3   OH258995   3.862   4.573   3.869 -0.0071 -0.0624 -0.3668
12527TIP3    H158996   3.841   4.539   3.782  1.0695 -0.3681 -0.5278
12527TIP3    H258997   3.778   4.602   3.905 -0.5593 -0.5252 -1.2495
12528TIP3   OH258998   5.926   4.381  17.239  0.0805  0.1022  0.4258
12528TIP3    H158999   5.840   4.363  17.278  0.2126 -1.2998  0.1247
12528TIP3    H259000   5.919   4.471  17.207 -0.6559  0.6412  1.9764
12529TIP3   OH259001   5.745   1.249   0.351 -0.1981  0.0692 -0.0076
12529TIP3    H159002   5.699   1.249   0.267 -0.6324  1.8563  0.1977
12529TIP3    H259003   5.812   1.181   0.342 -0.2299  0.2471 -1.8032
12530TIP3   OH259004   4.084   6.414  10.917 -0.3304  0.0558 -0.0786
12530TIP3    H159005   4.061   6.357  10.991 -0.2958  0.2368  0.0727
12530TIP3    H259006   4.157   6.370  10.874  1.0931  1.0070  1.2670
12531TIP3   OH259007   0.476   3.956   2.822 -0.2134  0.7398  0.0776
12531TIP3    H159008   0.443   4.045   2.813 -3.7387 -0.1696  1.9555
12531TIP3    H259009   0.424   3.904   2.761  0.5182 -0.3054  0.3026
12532TIP3   OH259010   2.801   3.944   3.250 -0.3390 -0.3706 -0.6060
12532TIP3    H159011   2.818   3.965   3.341 -0.4821 -0.6040 -0.5249
12532TIP3    H259012   2.857   4.004   3.200 -0.3098 -0.2003 -0.3678
12533TIP3   OH259013   3.987   3.452   2.250 -0.3162 -0.0894  0.4511
12533TIP3    H159014   4.076   3.479   2.229  0.2200 -1.6817  0.5467
12533TIP3    H259015   3.975   3.478   2.342  0.2366 -0.3095  0.5904
12534TIP3   OH259016   2.422   6.548   4.212  0.4598 -0.9874 -0.1670
12534TIP3    H159017   2.418   6.614   4.143 -0.6206 -2.1701 -1.2900
12534TIP3    H259018   2.477   6.588   4.280 -1.4013  1.6971 -0.0777
12535TIP3   OH259019   0.317   1.425   1.881 -0.1679  0.4674  0.0852
12535TIP3    H159020   0.310   1.347   1.936  0.8860 -0.2798 -0.7924
12535TIP3    H259021   0.404   1.460   1.899 -1.0093  2.1005  1.2598
12536TIP3   OH259022   6.664   0.246   3.651  0.1942  0.5299  0.3559
12536TIP3    H159023   6.663   0.151   3.648 -0.8939  0.5022  1.0762
12536TIP3    H259024   6.694   0.273   3.564 -0.5363 -0.4549 -0.2158
12537TIP3   OH259025   2.426   6.276  12.552 -0.7090 -0.3599  0.0834
12537TIP3    H159026   2.486   6.311  12.486 -0.9371 -2.3860 -1.2629
12537TIP3    H259027   2.468   6.299  12.636  0.5620  0.5960 -0.7689
12538TIP3   OH259028   2.282   5.762   1.839  0.4248  0.4671 -0.1204
12538TIP3    H159029   2.217   5.827   1.868  1.0172 -0.4357  3.9270
12538TIP3    H259030   2.366   5.806   1.852  0.7449 -0.1426 -0.0854
12539TIP3   OH259031   1.439   3.860   2.844 -0.0730  0.0697 -0.4083
12539TIP3    H159032   1.352   3.898   2.854 -0.2655 -0.4556 -0.0355
12539TIP3    H259033   1.482   3.874   2.928 -0.8229 -2.1734  0.4194
12540TIP3   OH259034   6.284   0.384   2.171 -0.9242 -0.0684 -0.3517
12540TIP3    H159035   6.321   0.373   2.083  1.6971  2.8722  0.2040
12540TIP3    H259036   6.340   0.329   2.227  0.4800  1.6599  0.0185
12541TIP3   OH259037   3.420   3.464   1.470 -0.1478  0.1732  0.3712
12541TIP3    H159038   3.400   3.421   1.387 -0.4543 -0.5084  0.7887
12541TIP3    H259039   3.399   3.399   1.537 -1.6565  1.3314  1.0806
12542TIP3   OH259040   6.148   6.583   3.882  0.0064 -0.2863 -0.1633
12542TIP3    H159041   6.155   6.511   3.945 -0.1291 -0.2881 -0.1501
12542TIP3    H259042   6.193   6.656   3.925  2.7757 -1.1476 -1.3785
12543TIP3   OH259043   2.904   1.469  15.082 -0.1663 -0.6887 -0.2066
12543TIP3    H159044   2.827   1.469  15.138 -1.4565  0.2905 -1.8840
12543TIP3    H259045   2.944   1.384  15.096 -0.0941 -0.3086  2.5703
12544TIP3   OH259046   0.458   6.584  12.726 -0.6248  0.4287  1.0156
12544TIP3    H159047   0.437   6.536  12.646 -0.0418  4.4370 -1.8287
12544TIP3    H259048   0.378   6.632  12.747 -0.3873  0.3495  2.1505
12545TIP3   OH259049   6.017   2.899   0.397 -0.1384 -0.2333 -0.1293
12545TIP3    H159050   5.937   2.889   0.345 -0.3408  1.9692 -0.3446
12545TIP3    H259051   5.993   2.866   0.483 -1.5482  1.0062  0.0005
12546TIP3   OH259052   3.983   5.383   1.941 -0.6584  0.2608  0.2294
12546TIP3    H159053   4.011   5.468   1.975  0.6073  1.6733 -3.7481
12546TIP3    H259054   3.887   5.388   1.943 -0.6249  2.0287 -0.3525
12547TIP3   OH259055   3.393   4.844   1.107 -0.2819  0.2555  0.3664
12547TIP3    H159056   3.340   4.783   1.158 -0.5277 -0.7809 -1.0751
12547TIP3    H259057   3.333   4.880   1.042  0.3465  0.4843 -0.1005
12548TIP3   OH259058   6.371   2.209  16.168  0.2888  0.1240 -0.0857
12548TIP3    H159059   6.351   2.261  16.246  2.1364  0.3786  0.2659
12548TIP3    H259060   6.295   2.221  16.111 -0.6658  0.7364  1.2495
12549TIP3   OH259061   0.244   3.876  16.543  0.0428  0.3009  0.3369
12549TIP3    H159062   0.178   3.854  16.609 -1.2336  3.4904  0.3020
12549TIP3    H259063   0.320   3.903  16.593  0.7313 -1.5909  0.3858
12550TIP3   OH259064   1.181   4.791   0.607  0.6089  0.1785  0.6253
12550TIP3    H159065   1.148   4.879   0.589 -1.7654 -0.7082  0.2610
12550TIP3    H259066   1.192   4.752   0.521 -3.3676 -1.4999  0.6548
12551TIP3   OH259067   0.566   6.066   3.963  0.0635 -0.5787  0.2763
12551TIP3    H159068   0.646   6.075   3.912 -0.6124  0.7780 -0.6236
12551TIP3    H259069   0.539   6.157   3.980 -1.3057 -1.0040  0.4953
12552TIP3   OH259070   0.061   0.475  12.213  0.1006 -0.0530 -0.4957
12552TIP3    H159071   0.137   0.428  12.179  0.8009  0.5661  0.1681
12552TIP3    H259072   0.098   0.550  12.259 -0.9573  0.8952 -1.1212
12553TIP3   OH259073   0.786   5.464  12.985 -0.3399 -0.2745  0.2239
12553TIP3    H159074   0.750   5.412  12.913  0.3047 -0.4178  0.0005
12553TIP3    H259075   0.856   5.410  13.021 -0.2746  0.0451  0.5822
12554TIP3   OH259076   3.823   1.006  11.303 -0.2397  0.6854  0.3648
12554TIP3    H159077   3.807   0.935  11.365 -0.2785  0.0535 -0.3613
12554TIP3    H259078   3.753   0.999  11.238  1.9019 -1.1118 -1.9311
12555TIP3   OH259079   1.197   2.627  12.240 -0.0176  0.7228 -0.3510
12555TIP3    H159080   1.135   2.554  12.238  1.5966 -0.6978 -1.4100
12555TIP3    H259081   1.180   2.671  12.323 -1.6209 -0.3243 -0.0813
12556TIP3   OH259082   0.019   3.780   3.798 -0.3603 -0.2088  0.2963
12556TIP3    H159083   0.020   3.795   3.893 -2.3393  1.3574  0.1423
12556TIP3    H259084  -0.018   3.692   3.788  0.6671 -0.7439  0.9608
12557TIP3   OH259085   5.778   3.043  11.890  0.2687  0.3401 -0.2696
12557TIP3    H159086   5.699   2.992  11.875  0.9270 -0.4823 -1.1441
12557TIP3    H259087   5.784   3.102  11.814  1.1428 -0.5059 -0.8850
12558TIP3   OH259088   3.008   1.921   0.344  0.1554  0.1021 -0.0470
12558TIP3    H159089   3.024   1.828   0.330 -0.5014 -0.0059 -0.1324
12558TIP3    H259090   3.095   1.960   0.350  0.4573 -0.3029 -1.4303
12559TIP3   OH259091   6.395   0.369  13.992 -0.9544 -0.1855 -0.2393
12559TIP3    H159092   6.460   0.315  13.946 -0.5986 -0.1485  0.2187
12559TIP3    H259093   6.345   0.411  13.922 -0.2861  0.0287 -0.5973
12560TIP3   OH259094   3.610   6.703   2.651 -0.3137  0.2256  0.0682
12560TIP3    H159095   3.681   6.750   2.607  0.0739 -1.3389 -1.0790
12560TIP3    H259096   3.586   6.634   2.589 -2.1601  0.0927  0.8744
12561TIP3   OH259097   0.606   6.212  16.699  0.0605  0.1163  0.8069
12561TIP3    H159098   0.607   6.300  16.662 -0.8994  0.2467  1.0449
12561TIP3    H259099   0.657   6.218  16.779 -2.8645  1.3954  2.7468
12562TIP3   OH259100   5.383   5.638  15.199 -0.5284  0.1515 -0.4701
12562TIP3    H159101   5.416   5.641  15.109  0.1813  0.7722 -0.2082
12562TIP3    H259102   5.309   5.578  15.196 -0.3786 -0.0028 -1.4249
12563TIP3   OH259103   1.077   5.713   1.428  0.0960 -0.1638  0.2863
12563TIP3    H159104   1.056   5.743   1.339  1.4196 -0.9881 -0.3495
12563TIP3    H259105   1.070   5.791   1.482 -1.0838  0.2845 -0.4766
12564TIP3   OH259106   3.582   0.625   4.171  0.7206  0.0003 -0.5844
12564TIP3    H159107   3.489   0.606   4.179  0.6490  0.4533 -0.2467
12564TIP3    H259108   3.589   0.681   4.094  0.4658  1.4117  0.3719
12565TIP3   OH259109   2.149   6.672   2.182 -0.7983 -0.4192  0.7913
12565TIP3    H159110   2.207   6.668   2.258 -1.7080 -0.7294  1.4832
12565TIP3    H259111   2.071   6.623   2.208 -1.1139 -0.5669 -0.3593
12566TIP3   OH259112   2.781   2.600  15.136  0.1791  0.1043  0.3681
12566TIP3    H159113   2.861   2.653  15.133  0.6354 -0.5840 -2.3492
12566TIP3    H259114   2.731   2.626  15.059 -0.5366 -1.9410  0.0752
12567TIP3   OH259115   4.592   0.090   6.045  0.3619  0.0701  0.2818
12567TIP3    H159116   4.663   0.089   6.110  0.3755 -0.7096  0.2642
12567TIP3    H259117   4.553   0.002   6.051 -1.1253  0.7331  0.8528
12568TIP3   OH259118   3.451   3.450  15.978  0.0555  0.0936  0.4118
12568TIP3    H159119   3.436   3.367  15.933  0.4541  0.5858 -0.6897
12568TIP3    H259120   3.524   3.490  15.930  0.4278  0.6938  1.4587
12569TIP3   OH259121   2.724   4.098   0.056 -0.6336  0.6932  0.2397
12569TIP3    H159122   2.676   4.108  -0.026  0.2575 -0.6509 -0.4972
12569TIP3    H259123   2.734   4.003   0.065 -0.7184  0.8202  1.9233
12570TIP3   OH259124   5.725   2.914  17.531 -0.1981  0.6748  0.1522
12570TIP3    H159125   5.765   2.957  17.606  0.2553  1.1630 -0.3599
12570TIP3    H259126   5.688   2.986  17.479  0.3180  0.4317 -0.5640
12571TIP3   OH259127   5.680   0.330   2.721  0.3341 -0.7593  0.2465
12571TIP3    H159128   5.616   0.399   2.740  0.8342 -0.2231 -0.0035
12571TIP3    H259129   5.664   0.264   2.789 -0.2515 -0.4742  0.3935
12572TIP3   OH259130   0.746   5.418  16.248  0.0873  0.0990  0.1281
12572TIP3    H159131   0.774   5.453  16.163  1.5200  3.5252  1.8240
12572TIP3    H259132   0.828   5.398  16.294 -0.5791  0.1526  1.3820
12573TIP3   OH259133   2.785   5.985   3.667  0.2982 -0.6002  0.4339
12573TIP3    H159134   2.854   5.922   3.687  0.8786  0.4217  1.8742
12573TIP3    H259135   2.716   5.965   3.729  0.2368 -0.2104  0.4940
12574TIP3   OH259136   3.025   4.613   6.849  0.4723 -0.4153  0.2065
12574TIP3    H159137   3.002   4.522   6.868 -1.6467  0.0028 -0.1076
12574TIP3    H259138   2.945   4.650   6.811  1.6675  1.2635 -0.7677
12575TIP3   OH259139   2.416   2.053   3.588 -0.1374  0.5720  0.0041
12575TIP3    H159140   2.437   1.992   3.659 -0.3728 -0.5998 -0.9060
12575TIP3    H259141   2.350   2.007   3.536 -1.9589  2.5011  0.5011
12576TIP3   OH259142   2.211   2.587   1.142 -0.8327 -0.1615 -0.0442
12576TIP3    H159143   2.299   2.557   1.164  0.4125  3.4083  0.3689
12576TIP3    H259144   2.156   2.552   1.212  1.0663  1.1825  2.2544
12577TIP3   OH259145   4.348   4.467   0.326 -0.2174  0.0549 -0.4107
12577TIP3    H159146   4.331   4.480   0.233  2.0280 -1.2012 -1.0732
12577TIP3    H259147   4.410   4.536   0.350  0.1596 -0.3472 -0.1914
12578TIP3   OH259148   1.005   1.647   2.383  0.1875  0.2009 -0.3111
12578TIP3    H159149   1.049   1.717   2.431 -0.2986 -0.2451  0.8242
12578TIP3    H259150   0.929   1.690   2.343 -0.1999  0.3016  0.5155
12579TIP3   OH259151   5.599   0.651  11.455  0.1164 -0.1053 -0.1179
12579TIP3    H159152   5.514   0.680  11.488 -0.1959 -0.1522 -0.8506
12579TIP3    H259153   5.589   0.557  11.443 -0.3515  0.1289 -1.9081
12580TIP3   OH259154   1.783   5.898   4.943  0.5097 -0.1852 -0.7657
12580TIP3    H159155   1.755   5.877   5.032  0.1107 -1.6714 -1.2066
12580TIP3    H259156   1.711   5.948   4.906  1.0052  1.1288 -0.0308
12581TIP3   OH259157   4.906   2.640  16.577  0.8068  0.5382  0.0910
12581TIP3    H159158   4.853   2.604  16.648  0.1339 -0.6657 -0.9903
12581TIP3    H259159   4.901   2.735  16.589  0.4883  0.3679  1.4780
12582TIP3   OH259160   0.720   3.366  16.653 -0.5642  0.4364  0.0321
12582TIP3    H159161   0.757   3.278  16.643  1.8167  1.1323  1.6643
12582TIP3    H259162   0.657   3.374  16.582  1.2349 -1.5543 -1.9607
12583TIP3   OH259163   5.911   0.730  15.199  0.2393  0.0950  0.2078
12583TIP3    H159164   5.964   0.795  15.152  0.3211 -0.8305 -1.0126
12583TIP3    H259165   5.896   0.660  15.135 -0.9542 -0.4884  1.0898
12584TIP3   OH259166   5.883   6.660   5.969 -0.1555 -0.1013  0.0376
12584TIP3    H159167   5.898   6.686   6.061 -1.2703  0.3609  0.1019
12584TIP3    H259168   5.971   6.651   5.933  0.3835  3.0166  0.2470
12585TIP3   OH259169   4.368   4.584   1.037 -0.6643 -0.1022 -0.3194
12585TIP3    H159170   4.331   4.599   0.950 -1.0758 -1.5938 -0.4336
12585TIP3    H259171   4.310   4.517   1.076 -0.1014  0.0638  0.8383
12586TIP3   OH259172   4.355   4.412   2.382 -0.5478  0.4203  0.5147
12586TIP3    H159173   4.386   4.465   2.456 -2.0897  1.1998  0.6523
12586TIP3    H259174   4.264   4.439   2.371 -0.9291 -1.1599 -0.3888
12587TIP3   OH259175   2.109   4.414   5.413  0.9924  0.2043  0.3588
12587TIP3    H159176   2.023   4.451   5.433  0.1771 -0.4495 -1.7503
12587TIP3    H259177   2.165   4.491   5.401  0.3499  0.6690  0.2740
12588TIP3   OH259178   0.728   3.086  16.103 -0.0993 -0.3006  0.0581
12588TIP3    H159179   0.749   3.017  16.166  0.3128 -0.0132  0.2437
12588TIP3    H259180   0.662   3.048  16.046  2.1326 -1.8754 -1.6259
12589TIP3   OH259181   5.475   0.259   6.346  0.2235  0.0350 -0.4983
12589TIP3    H159182   5.417   0.184   6.337 -1.3695  1.2036 -0.3187
12589TIP3    H259183   5.471   0.302   6.260 -0.0581  0.7248 -0.1472
12590TIP3   OH259184   5.441   0.160   2.173 -0.0892 -0.0832 -0.1799
12590TIP3    H159185   5.403   0.246   2.188 -0.9363 -0.2641 -1.1877
12590TIP3    H259186   5.408   0.133   2.087 -0.3255 -1.6675  0.3646
12591TIP3   OH259187   4.909   0.441   4.660 -0.0835 -0.0456  0.4573
12591TIP3    H159188   4.983   0.477   4.612  0.4130 -0.9296  0.5533
12591TIP3    H259189   4.842   0.426   4.593 -0.4936  1.4857  0.4763
12592TIP3   OH259190   5.675   4.737   3.236  0.4269 -0.1244  0.1016
12592TIP3    H159191   5.721   4.673   3.182  0.7359  1.1518 -1.2078
12592TIP3    H259192   5.620   4.785   3.174  2.5922  3.0169  0.3799
12593TIP3   OH259193   1.286   3.494   4.420  0.3366 -0.1926 -0.1259
12593TIP3    H159194   1.337   3.517   4.498 -0.7930 -0.6953  0.7810
12593TIP3    H259195   1.213   3.442   4.453  1.6377 -3.4267 -1.8333
12594TIP3   OH259196   4.450   0.226  16.821  0.1320  0.2961  0.0029
12594TIP3    H159197   4.429   0.193  16.909  3.3025  0.9582  1.1788
12594TIP3    H259198   4.546   0.234  16.822  0.2355  0.7769 -3.4045
12595TIP3   OH259199   3.505   5.746   2.404 -0.0176 -0.5840 -0.3801
12595TIP3    H159200   3.468   5.718   2.321 -0.6867 -2.0339  0.3611
12595TIP3    H259201   3.448   5.707   2.470  1.3583 -0.7372  0.7686
12596TIP3   OH259202   3.312   2.384   2.426  0.5537 -0.1066 -0.4374
12596TIP3    H159203   3.276   2.375   2.338 -0.6782 -0.9802  0.1274
12596TIP3    H259204   3.243   2.351   2.484  1.8908 -0.9142  0.7597
12597TIP3   OH259205   5.930   6.517   2.632  0.3501 -0.1090 -0.0834
12597TIP3    H159206   5.841   6.482   2.632 -0.2113  1.1715  1.6697
12597TIP3    H259207   5.956   6.516   2.540 -1.7984  0.2712 -0.7463
12598TIP3   OH259208   0.709   6.683   6.641  0.3658 -0.3306 -0.1678
12598TIP3    H159209   0.752   6.767   6.628 -0.7126  0.1695 -0.6825
12598TIP3    H259210   0.636   6.702   6.701 -0.6580 -0.6039 -1.2779
12599TIP3   OH259211   1.234   1.988  13.105  0.5834  0.2612  0.1954
12599TIP3    H159212   1.322   1.955  13.089  0.1853 -1.2296  0.9341
12599TIP3    H259213   1.201   1.935  13.178 -0.6436  1.3099  0.4431
12600TIP3   OH259214   2.671   1.122   6.517  0.4514  0.3232 -0.5110
12600TIP3    H159215   2.741   1.074   6.560  0.6480  2.1160  1.3372
12600TIP3    H259216   2.690   1.114   6.423  1.5822 -1.4260 -0.1797
12601TIP3   OH259217   4.452   6.682  12.205 -0.7666 -0.3870  0.6557
12601TIP3    H159218   4.445   6.716  12.294  0.6607  0.5186  0.4562
12601TIP3    H259219   4.397   6.740  12.152  1.2570  1.3954  0.4002
12602TIP3   OH259220   5.447   4.113   7.003  0.1695  0.1974 -0.3688
12602TIP3    H159221   5.542   4.126   7.002 -0.0205  1.7214 -1.1571
12602TIP3    H259222   5.426   4.081   6.915 -0.0299 -0.3468 -0.1285
12603TIP3   OH259223   0.994   0.342  10.942 -0.2533 -0.1579 -0.1377
12603TIP3    H159224   1.076   0.347  10.892  0.1584 -0.6576  0.4687
12603TIP3    H259225   0.926   0.367  10.880  0.4266  0.8994 -0.4753
12604TIP3   OH259226   4.643   6.049   4.691 -0.0833 -0.1902  0.3916
12604TIP3    H159227   4.702   6.114   4.652 -0.6329 -0.3168 -0.6996
12604TIP3    H259228   4.629   6.080   4.780  1.4603 -0.0484  0.6055
12605TIP3   OH259229   1.037   5.332   5.416 -0.0032 -0.4252  0.3053
12605TIP3    H159230   0.947   5.359   5.395  0.3661  1.0064  0.4505
12605TIP3    H259231   1.043   5.341   5.511  0.5039  0.2214  0.2203
12606TIP3   OH259232   4.050   1.228   5.845  0.5815  0.1965  0.2799
12606TIP3    H159233   4.031   1.289   5.916 -0.2607 -0.2175  0.4277
12606TIP3    H259234   4.004   1.264   5.769  0.6077  0.0847  0.2098
12607TIP3   OH259235   4.586   2.869  11.905  0.1637 -0.2094 -0.4656
12607TIP3    H159236   4.557   2.784  11.871 -1.7584  0.5555 -0.9091
12607TIP3    H259237   4.585   2.858  12.000 -0.5501 -0.5615 -0.5046
12608TIP3   OH259238   0.901   5.801   5.541 -0.3595 -0.1750  0.2267
12608TIP3    H159239   0.832   5.753   5.496  0.4379 -0.3158 -0.8906
12608TIP3    H259240   0.980   5.749   5.527 -0.1576 -0.5245  2.3092
12609TIP3   OH259241   0.324   1.899   2.135  0.0535  0.3464 -0.6169
12609TIP3    H159242   0.274   1.932   2.209  0.3977  1.3823 -0.8223
12609TIP3    H259243   0.310   1.964   2.066  1.6386  0.6615 -0.6845
12610TIP3   OH259244   4.582   2.415   1.362  0.0011 -0.1878 -0.2556
12610TIP3    H159245   4.599   2.374   1.277 -0.9308  1.7188 -1.4235
12610TIP3    H259246   4.618   2.503   1.355  1.0648 -0.3794  1.8271
12611TIP3   OH259247   1.433   0.208  15.006  0.4078  0.2429  0.2357
12611TIP3    H159248   1.438   0.258  14.925 -0.9072  0.6615  0.3953
12611TIP3    H259249   1.489   0.132  14.991 -0.0230  0.1789 -1.1498
12612TIP3   OH259250   5.377   3.243  13.625 -0.0827 -0.9280  0.4532
12612TIP3    H159251   5.420   3.305  13.566  1.3155 -1.0952  1.2364
12612TIP3    H259252   5.346   3.173  13.568 -3.2707  1.2244 -0.6859
12613TIP3   OH259253   4.699   0.989   2.585 -0.1724 -0.1016  0.7243
12613TIP3    H159254   4.647   1.044   2.644 -1.5151 -0.6442  0.0825
12613TIP3    H259255   4.648   0.909   2.575  1.7383 -1.5326  1.6457
12614TIP3   OH259256   2.313   5.994   3.476 -0.0827 -0.2340  0.2295
12614TIP3    H159257   2.384   6.026   3.532  0.6866 -0.8279 -0.4045
12614TIP3    H259258   2.349   5.919   3.431 -0.5326  0.5288 -1.4677
12615TIP3   OH259259   4.492   4.279   2.182 -0.5649 -0.4140 -0.1133
12615TIP3    H159260   4.455   4.317   2.263 -0.0667  0.7372 -0.4060
12615TIP3    H259261   4.444   4.323   2.112 -1.5870 -2.0194 -0.4666
12616TIP3   OH259262   1.739   1.583  15.530  0.0776  0.1566 -0.0545
12616TIP3    H159263   1.698   1.497  15.521 -0.3855 -0.0442  2.8528
12616TIP3    H259264   1.696   1.638  15.464 -1.1167 -1.3425 -0.5812
12617TIP3   OH259265   2.817   1.146   4.655  0.0041 -0.5786 -0.4895
12617TIP3    H159266   2.784   1.093   4.728  0.4145  2.1602  1.8708
12617TIP3    H259267   2.906   1.169   4.681 -1.0124  3.3877  0.0274
12618TIP3   OH259268   4.676   5.073   1.426 -0.0026 -0.1279 -0.2954
12618TIP3    H159269   4.636   5.085   1.512 -0.5301 -2.2238 -0.1965
12618TIP3    H259270   4.768   5.054   1.444  0.0952  0.3736 -0.2583
12619TIP3   OH259271   4.577   2.977  15.366  0.2102  0.5357  0.0002
12619TIP3    H159272   4.672   2.968  15.377  0.2762  2.2402  1.2848
12619TIP3    H259273   4.540   2.911  15.424  0.6173  0.6709  0.4194
12620TIP3   OH259274   3.184   4.171  14.328 -0.5378 -0.0012 -0.5021
12620TIP3    H159275   3.232   4.191  14.408 -0.6321  0.1301 -0.4770
12620TIP3    H259276   3.225   4.227  14.261 -0.1848 -0.4194 -0.6384
12621TIP3   OH259277   0.483   0.682   4.722  0.3201  0.3475 -0.0663
12621TIP3    H159278   0.440   0.694   4.637 -0.7799 -4.6600 -0.5054
12621TIP3    H259279   0.425   0.726   4.784 -1.2161  0.4127 -1.4646
12622TIP3   OH259280   6.679   6.469   1.345 -0.3883 -0.3213  0.1925
12622TIP3    H159281   6.687   6.557   1.382  1.4386 -0.7365  0.8764
12622TIP3    H259282   6.694   6.411   1.420 -1.8796 -1.2399 -0.1858
12623TIP3   OH259283   6.168   0.640  15.460 -0.4693 -0.2007  0.4742
12623TIP3    H159284   6.201   0.721  15.498  1.2738 -0.3759 -0.5805
12623TIP3    H259285   6.074   0.656  15.449 -0.6551  0.6616  2.6939
12624TIP3   OH259286   5.905   5.270   5.462  0.1106 -0.1513  0.1807
12624TIP3    H159287   5.822   5.317   5.474 -0.5535 -0.4802 -2.5232
12624TIP3    H259288   5.881   5.177   5.469  0.7270 -0.2310  1.6828
12625TIP3   OH259289   6.042   3.413   0.769 -0.0098  0.0882 -0.4688
12625TIP3    H159290   6.076   3.358   0.840  0.8913  1.1430 -0.0504
12625TIP3    H259291   6.098   3.491   0.771  0.7825 -0.3464 -3.0826
12626TIP3   OH259292   5.597   6.420  11.380  0.2011  0.3875 -0.5305
12626TIP3    H159293   5.631   6.481  11.314 -0.4286  0.9414 -0.3496
12626TIP3    H259294   5.635   6.451  11.462 -0.9376  1.1875 -0.2819
12627TIP3   OH259295   5.846   5.115   5.022 -0.4458 -1.3693 -0.3899
12627TIP3    H159296   5.751   5.115   5.036 -0.3397 -1.5638  0.3867
12627TIP3    H259297   5.879   5.043   5.075  0.3636  0.0592  1.1499
12628TIP3   OH259298   4.128   1.131   6.369  0.3192  0.1130 -0.0062
12628TIP3    H159299   4.130   1.128   6.273  1.1784  0.1152  0.0016
12628TIP3    H259300   4.202   1.076   6.396 -0.2694 -0.3727  0.6713
12629TIP3   OH259301   5.900   0.175  17.575  0.1748  0.0248  0.0529
12629TIP3    H159302   5.989   0.145  17.559 -0.6370 -1.6002 -1.8697
12629TIP3    H259303   5.855   0.097  17.608 -0.8079  0.4841 -0.1687
12630TIP3   OH259304   2.387   0.197  15.076 -0.2028  0.7151  0.0028
12630TIP3    H159305   2.381   0.252  14.998  0.0695 -0.4838 -0.9081
12630TIP3    H259306   2.417   0.112  15.042  1.0083  0.4790  1.5755
12631TIP3   OH259307   2.426   3.444  16.580 -0.2291  0.7741 -0.5242
12631TIP3    H159308   2.354   3.503  16.555  0.9188  1.4390 -2.4611
12631TIP3    H259309   2.501   3.502  16.593 -0.1026  0.1411  1.9805
12632TIP3   OH259310   0.065   5.283  16.222 -0.3174  0.7520  0.2246
12632TIP3    H159311  -0.018   5.306  16.182 -0.5787  0.1237  0.4024
12632TIP3    H259312   0.044   5.269  16.314 -0.5024 -1.8697 -0.1639
12633TIP3   OH259313   2.618   1.686   5.165 -0.2457 -0.5823 -0.0866
12633TIP3    H159314   2.676   1.760   5.182 -0.4309 -0.1847 -1.0856
12633TIP3    H259315   2.642   1.656   5.077  1.2657 -3.0746  1.0607
12634TIP3   OH259316   6.066   0.966  17.539  0.1488  0.1476  0.4032
12634TIP3    H159317   6.133   0.970  17.471 -0.0261 -0.3585  0.1969
12634TIP3    H259318   5.988   1.003  17.498  0.6572  2.1373  1.1047
12635TIP3   OH259319   0.316   2.154  17.293  0.7353 -1.0434  0.5370
12635TIP3    H159320   0.335   2.092  17.363  1.3683 -0.0495  1.2775
12635TIP3    H259321   0.257   2.107  17.234  0.9817 -2.2368  1.2169
12636TIP3   OH259322   2.643   4.726  15.656  0.0242 -0.2479 -0.7372
12636TIP3    H159323   2.559   4.747  15.696  0.5185 -0.8653  0.6793
12636TIP3    H259324   2.701   4.797  15.683  0.1033 -0.1258 -1.2254
12637TIP3   OH259325   6.148   5.474   1.618  0.3433 -0.2913 -0.3014
12637TIP3    H159326   6.181   5.411   1.682  1.2266 -0.4693 -0.9140
12637TIP3    H259327   6.162   5.559   1.659  0.5724 -0.4190 -0.1087
12638TIP3   OH259328   2.967   5.386  16.226  0.5175  0.3898  0.1752
12638TIP3    H159329   2.904   5.424  16.288 -1.6981  1.7938 -2.6431
12638TIP3    H259330   2.918   5.318  16.181  0.8446  1.5971 -2.1903
12639TIP3   OH259331   5.153   5.506   1.448 -0.0103 -1.0413 -0.2588
12639TIP3    H159332   5.087   5.518   1.380 -0.0956 -2.7248 -0.5180
12639TIP3    H259333   5.235   5.493   1.400  0.5578  1.0871  0.0596
12640TIP3   OH259334   0.193   3.675   2.025 -0.0238  0.3928 -0.2049
12640TIP3    H159335   0.155   3.721   1.950  0.8945  0.6740 -0.5093
12640TIP3    H259336   0.214   3.588   1.992  1.6470  0.9392 -0.7020
12641TIP3   OH259337   6.257   4.909   4.755  0.0938  0.4102 -0.4113
12641TIP3    H159338   6.221   4.822   4.740  0.4438  0.6994 -3.3357
12641TIP3    H259339   6.191   4.953   4.810 -0.8943 -1.1261 -0.3173
12642TIP3   OH259340   3.744   1.764  15.410 -0.0995 -0.4763 -0.6647
12642TIP3    H159341   3.749   1.839  15.352  0.3151 -0.8786 -1.1539
12642TIP3    H259342   3.650   1.748  15.420 -0.1826 -0.0665 -0.7741
12643TIP3   OH259343   1.531   2.726  14.559 -0.3063  0.2730  0.4064
12643TIP3    H159344   1.570   2.754  14.477  0.3200  0.1656  0.6571
12643TIP3    H259345   1.437   2.731  14.545 -0.2167 -0.7532 -0.6592
12644TIP3   OH259346   5.912   3.162   5.515  0.1527  0.5185  0.9308
12644TIP3    H159347   5.914   3.118   5.600  0.2544  1.5109  1.4681
12644TIP3    H259348   5.965   3.241   5.528 -0.7844  1.2816  0.3080
12645TIP3   OH259349   2.050   2.041   4.246  0.4311  0.0582  0.2062
12645TIP3    H159350   2.072   2.069   4.335 -1.3551  0.4878  0.5602
12645TIP3    H259351   2.104   2.096   4.189 -0.5046  1.8879  0.9783
12646TIP3   OH259352   5.057   6.704   3.014  0.3689  0.4012 -0.3448
12646TIP3    H159353   5.073   6.631   2.954  0.3444 -0.6352  0.8336
12646TIP3    H259354   5.014   6.662   3.090  0.0446  1.7095  0.2181
12647TIP3   OH259355   3.009   0.151   3.081 -0.2305  0.2536 -0.2960
12647TIP3    H159356   3.075   0.206   3.040 -0.7141  0.6343 -0.5737
12647TIP3    H259357   3.038   0.061   3.065 -0.8902  0.3635 -2.2883
12648TIP3   OH259358   0.580   4.141   0.871  0.3980  0.3642  0.1031
12648TIP3    H159359   0.602   4.232   0.850 -0.2690  0.2511 -1.1637
12648TIP3    H259360   0.664   4.103   0.898  0.3945  1.7695  2.4531
12649TIP3   OH259361   4.874   0.158   4.753 -0.0284 -0.1640 -0.0829
12649TIP3    H159362   4.865   0.243   4.708 -0.2193 -0.7247 -1.1374
12649TIP3    H259363   4.960   0.162   4.794 -0.5910  1.0815  1.0688
12650TIP3   OH259364   3.870   4.456   1.921  0.7017  0.2072  0.0371
12650TIP3    H159365   3.909   4.540   1.897  1.3917 -0.0244  0.3243
12650TIP3    H259366   3.782   4.478   1.950  0.5587  0.7255 -0.7576
12651TIP3   OH259367   2.006   1.079   4.712 -0.1016  0.1991 -0.0309
12651TIP3    H159368   2.005   1.104   4.804 -0.6606 -0.3609  0.1245
12651TIP3    H259369   2.099   1.069   4.690  0.0857  1.3355  0.1823
12652TIP3   OH259370   5.305   0.926   4.666 -0.0186  0.1157  0.0446
12652TIP3    H159371   5.254   0.883   4.735  0.3687  2.4053  1.8868
12652TIP3    H259372   5.284   1.019   4.676  1.1571  0.6683 -2.0593
12653TIP3   OH259373   1.810   3.577  16.264  0.0778  0.6172 -0.0976
12653TIP3    H159374   1.721   3.613  16.263 -0.3500 -0.4008  0.1312
12653TIP3    H259375   1.828   3.555  16.173 -0.6520 -0.9019  0.0896
12654TIP3   OH259376   3.186   2.211  10.898 -1.0541 -0.2140  0.4640
12654TIP3    H159377   3.179   2.300  10.932 -0.4885 -0.8173  2.2421
12654TIP3    H259378   3.178   2.154  10.975 -0.2450 -1.6644 -0.4641
12655TIP3   OH259379   2.760   3.701  12.096 -0.3089  0.0020 -0.0753
12655TIP3    H159380   2.828   3.681  12.161  0.5790  1.1281 -0.6206
12655TIP3    H259381   2.808   3.723  12.016 -1.2073  2.3533 -0.0595
12656TIP3   OH259382   4.809   3.071   6.843  0.6418  0.2489  0.3188
12656TIP3    H159383   4.861   3.151   6.834  1.5740 -0.5240 -1.9955
12656TIP3    H259384   4.866   3.002   6.808 -0.4628 -1.3036  1.4682
12657TIP3   OH259385   5.390   3.366  15.492 -0.8558 -0.5609  0.3939
12657TIP3    H159386   5.383   3.324  15.407 -0.1798 -1.4916  0.7882
12657TIP3    H259387   5.477   3.405  15.492 -1.5010  0.9899 -0.0060
12658TIP3   OH259388   2.886   3.173  13.749 -0.1165 -0.6940 -0.3734
12658TIP3    H159389   2.874   3.103  13.813 -0.6430  0.2240  0.5713
12658TIP3    H259390   2.958   3.226  13.785  2.2915 -2.2557 -2.4973
12659TIP3   OH259391   6.503   5.803  11.019 -0.2357  0.1369  0.0159
12659TIP3    H159392   6.517   5.738  11.089  0.9390  1.6273  1.2464
12659TIP3    H259393   6.428   5.769  10.970 -1.3838 -0.7849  2.2490
12660TIP3   OH259394   1.852   5.420  13.609 -0.0363  0.0745 -0.5447
12660TIP3    H159395   1.891   5.507  13.621  0.4070  0.2572 -2.8514
12660TIP3    H259396   1.788   5.432  13.538 -1.2324 -1.1363  0.2898
12661TIP3   OH259397   3.512   1.928  14.264 -0.0062  0.5512 -0.0406
12661TIP3    H159398   3.560   1.875  14.201 -0.6391  1.9643 -1.7944
12661TIP3    H259399   3.555   1.910  14.348  1.9980 -0.0762 -1.1288
12662TIP3   OH259400   5.536   2.088  17.340  0.0127 -0.4040  0.6479
12662TIP3    H159401   5.485   2.079  17.260 -0.0900  0.3255  0.6266
12662TIP3    H259402   5.533   2.001  17.380 -1.8087 -0.2271  0.9720
12663TIP3   OH259403   3.420   4.006   6.516 -0.1768  0.2397 -0.0180
12663TIP3    H159404   3.351   3.946   6.544  0.2949  0.1982  1.1179
12663TIP3    H259405   3.373   4.080   6.477 -0.8312 -0.0184  0.2630
12664TIP3   OH259406   6.602   2.709   5.519  0.2765  0.9372 -0.3464
12664TIP3    H159407   6.581   2.793   5.477  1.2399  1.5114  0.2746
12664TIP3    H259408   6.685   2.683   5.479 -0.0330  0.2592 -0.5540
12665TIP3   OH259409   5.802   4.721  15.169  0.1677 -0.4682  0.6094
12665TIP3    H159410   5.763   4.760  15.247 -0.2129  0.4073 -0.0025
12665TIP3    H259411   5.729   4.686  15.119  0.4433 -1.3375  0.8118
12666TIP3   OH259412   1.639   4.453  16.238  0.0727 -0.3377 -0.8611
12666TIP3    H159413   1.582   4.413  16.303 -1.8920 -2.3193 -3.5416
12666TIP3    H259414   1.589   4.528  16.205  0.3072 -0.3445 -1.2414
12667TIP3   OH259415   1.986   3.591  17.001  0.3364 -0.5898  0.2410
12667TIP3    H159416   1.992   3.570  17.095  2.8122 -0.0075  0.2621
12667TIP3    H259417   2.006   3.684  16.996  0.3294 -0.6389 -0.9014
12668TIP3   OH259418   5.871   4.378  14.086 -0.7721  0.0973  0.5411
12668TIP3    H159419   5.937   4.315  14.058 -0.0409 -0.3411  3.0345
12668TIP3    H259420   5.791   4.351  14.041  0.5247  0.1972 -1.9572
12669TIP3   OH259421   3.584   3.461  13.060 -0.6458  0.1627 -0.7235
12669TIP3    H159422   3.508   3.464  13.117 -1.7755  0.4259 -2.1809
12669TIP3    H259423   3.653   3.421  13.113 -1.8889 -0.3994  0.5162
12670TIP3   OH259424   5.105   0.767  15.805  0.6512 -0.4669  0.4284
12670TIP3    H159425   5.043   0.825  15.850  0.2554 -1.7359  1.6080
12670TIP3    H259426   5.072   0.761  15.716 -0.9292 -1.0657  1.0125
12671TIP3   OH259427   5.915   0.890   5.216  0.3865  0.6070  0.1367
12671TIP3    H159428   5.884   0.980   5.203 -1.0294  0.3420  1.4414
12671TIP3    H259429   5.853   0.836   5.168  1.4555  0.3174 -0.9643
12672TIP3   OH259430   2.407   5.706   2.060 -0.2683 -0.4985 -0.7496
12672TIP3    H159431   2.404   5.802   2.053 -1.8003 -0.0769  3.0733
12672TIP3    H259432   2.349   5.676   1.990 -1.9837  1.6257 -0.3862
12673TIP3   OH259433   4.051   0.773  16.059 -0.5198  0.4317  0.3072
12673TIP3    H159434   4.125   0.753  16.002 -1.3601  0.5333 -0.8533
12673TIP3    H259435   3.999   0.693  16.058 -0.4893  0.3971  1.0352
12674TIP3   OH259436   1.785   6.512  13.570  0.1154  0.7680  0.1464
12674TIP3    H159437   1.835   6.471  13.499 -0.6502  0.4292 -0.2153
12674TIP3    H259438   1.849   6.562  13.619  0.4321  2.3052 -1.7197
12675TIP3   OH259439   5.997   2.711   2.887 -0.1844  0.2042 -0.4953
12675TIP3    H159440   5.910   2.718   2.927  0.1672  0.2851  0.2660
12675TIP3    H259441   6.038   2.796   2.905 -0.3286  0.5663 -1.7792
12676TIP3   OH259442   1.258   3.093   5.983 -1.1112 -0.0781 -0.0523
12676TIP3    H159443   1.255   2.998   5.986  0.9235 -0.1698  1.7410
12676TIP3    H259444   1.195   3.122   6.050 -1.3775 -0.1560 -0.2658
12677TIP3   OH259445   1.978   5.401  16.018 -0.1552  0.3829  0.2252
12677TIP3    H159446   2.014   5.456  16.088  0.0356  0.5984 -0.0406
12677TIP3    H259447   1.883   5.411  16.026 -0.0909  1.8199 -0.6707
12678TIP3   OH259448   4.353   3.422  16.249 -0.4827  0.2831  0.5377
12678TIP3    H159449   4.326   3.457  16.334  0.9886  1.1446  0.6867
12678TIP3    H259450   4.318   3.484  16.185  0.1954  0.7909  0.6570
12679TIP3   OH259451   6.418   6.193  12.261 -0.0656 -0.1844 -0.3747
12679TIP3    H159452   6.379   6.199  12.174  1.5408 -1.4141 -1.2282
12679TIP3    H259453   6.457   6.105  12.265 -0.5086 -0.3549  1.7723
12680TIP3   OH259454   6.164   1.069  13.559 -0.3904 -0.1621 -0.7408
12680TIP3    H159455   6.251   1.106  13.548  0.6188 -1.6733  1.4128
12680TIP3    H259456   6.112   1.141  13.595  0.3722  0.3522 -0.6413
12681TIP3   OH259457   0.029   2.412   0.094 -1.0305 -0.3249  0.1851
12681TIP3    H159458  -0.056   2.430   0.053 -0.4975 -0.7830 -1.1652
12681TIP3    H259459   0.040   2.318   0.084 -0.0336 -0.1601 -0.3164
12682TIP3   OH259460   4.854   1.915   4.966  0.4499 -0.5900 -0.0119
12682TIP3    H159461   4.875   1.840   4.909 -0.6504 -0.4425 -0.6364
12682TIP3    H259462   4.759   1.920   4.964  0.5145  0.8487  0.0213
12683TIP3   OH259463   3.752   1.093  15.328 -0.1883  0.4692 -0.3926
12683TIP3    H159464   3.676   1.145  15.303 -0.8196 -0.9163 -1.4719
12683TIP3    H259465   3.746   1.014  15.274  1.0968 -0.4237  0.7107
12684TIP3   OH259466   0.445   0.915   2.432 -0.2387  0.5063  0.0035
12684TIP3    H159467   0.496   0.887   2.509  1.1306  1.4356 -0.5148
12684TIP3    H259468   0.498   0.984   2.393 -2.3553  2.1835 -0.0733
12685TIP3   OH259469   6.634   6.234   1.039  0.2185  0.5161  0.1575
12685TIP3    H159470   6.672   6.289   0.970 -1.6941  2.2594  0.3803
12685TIP3    H259471   6.572   6.178   0.994  0.0140  0.6411  0.2826
12686TIP3   OH259472   5.415   5.937   2.283  0.2010 -0.5189  0.3154
12686TIP3    H159473   5.491   5.880   2.285  0.0790 -0.6769  0.4755
12686TIP3    H259474   5.436   6.008   2.344  0.4292 -0.2924 -0.0248
12687TIP3   OH259475   2.822   1.969  16.086  0.1453 -0.3510 -0.1728
12687TIP3    H159476   2.746   2.026  16.098 -0.5782 -1.2798 -0.1958
12687TIP3    H259477   2.844   1.939  16.174  1.7366  1.4119  0.1090
12688TIP3   OH259478   2.110   1.779  15.790  0.0246  0.3075  0.1154
12688TIP3    H159479   2.197   1.741  15.798 -0.3702 -0.3936  1.3573
12688TIP3    H259480   2.057   1.710  15.751  0.4291  1.4277 -2.6254
12689TIP3   OH259481   1.518   3.890   3.838  0.7974 -0.0312 -0.0039
12689TIP3    H159482   1.563   3.966   3.875 -0.0134  0.3088  0.3214
12689TIP3    H259483   1.519   3.825   3.907  0.9188 -0.0768 -0.0486
12690TIP3   OH259484   6.332   5.861  16.016  0.2988  0.6895  0.3993
12690TIP3    H159485   6.422   5.874  15.985 -0.1365  1.2721 -0.6685
12690TIP3    H259486   6.332   5.897  16.104  0.9735  1.2452  0.1880
12691TIP3   OH259487   1.332   5.779  16.556 -0.5508 -0.4078  0.0713
12691TIP3    H159488   1.407   5.721  16.569 -0.6571 -0.3332  1.1131
12691TIP3    H259489   1.355   5.833  16.480 -0.2571 -1.4948 -0.6381
12692TIP3   OH259490   2.288   1.771  16.403  0.3970  0.1449 -0.0357
12692TIP3    H159491   2.247   1.850  16.437 -0.6402 -0.5928  0.5232
12692TIP3    H259492   2.220   1.704  16.413  1.7810 -1.1716  1.0036
12693TIP3   OH259493   4.987   5.727  13.548  0.2125 -0.5258 -0.2645
12693TIP3    H159494   4.932   5.732  13.470 -1.1586 -3.2993  0.3891
12693TIP3    H259495   5.064   5.678  13.519  0.7794  0.4190 -0.3818
12694TIP3   OH259496   3.731   5.900   1.001  0.0145 -0.2238  0.0785
12694TIP3    H159497   3.675   5.909   0.924  2.5417  0.2997 -1.8398
12694TIP3    H259498   3.768   5.812   0.994  0.0334 -0.2942  0.9075
12695TIP3   OH259499   4.263   2.123  16.984  0.2172 -0.2208 -0.0486
12695TIP3    H159500   4.327   2.065  17.024 -0.2851 -1.1472 -0.5663
12695TIP3    H259501   4.261   2.096  16.892 -0.3598  0.3096 -0.1956
12696TIP3   OH259502   1.523   5.133   2.403 -0.4551  0.4998  0.0767
12696TIP3    H159503   1.477   5.090   2.331 -2.1222  0.6646  1.0037
12696TIP3    H259504   1.496   5.085   2.481 -0.2463  1.5697  0.8232
12697TIP3   OH259505   2.926   4.215  17.346 -0.0802 -0.2414 -0.1065
12697TIP3    H159506   2.894   4.277  17.411 -2.8018 -1.6750  0.0697
12697TIP3    H259507   2.913   4.258  17.262  0.4544  0.3867  0.1255
12698TIP3   OH259508   5.585   4.256  11.505  0.4515 -0.2617  0.1687
12698TIP3    H159509   5.568   4.293  11.418  1.5239 -1.3834 -0.5386
12698TIP3    H259510   5.671   4.290  11.528 -0.9411  2.3328  2.0918
12699TIP3   OH259511   0.759   2.851  16.558 -0.0683  0.3452 -0.0064
12699TIP3    H159512   0.839   2.800  16.553 -0.2550  0.0174  0.3216
12699TIP3    H259513   0.780   2.923  16.617 -0.5703 -0.7856  1.6069
12700TIP3   OH259514   2.015   4.283   5.186  0.1286 -0.0908  0.3913
12700TIP3    H159515   1.950   4.227   5.229  0.8784 -1.6446 -0.4142
12700TIP3    H259516   2.062   4.324   5.259  1.0757 -2.3282  1.1493
12701TIP3   OH259517   1.460   3.246  16.155  0.1658  0.2467 -0.2095
12701TIP3    H159518   1.433   3.338  16.154  0.0107  0.1996 -0.5180
12701TIP3    H259519   1.555   3.249  16.154  0.2862  0.4253 -4.0801
12702TIP3   OH259520   1.931   1.605  15.325 -0.1739 -0.4206  0.0081
12702TIP3    H159521   2.008   1.616  15.381  0.4536 -3.9687  0.0692
12702TIP3    H259522   1.860   1.581  15.385 -0.4085 -0.7306 -0.3899
12703TIP3   OH259523   1.247   2.607   2.656  0.5586  0.3124 -0.2338
12703TIP3    H159524   1.272   2.683   2.708  1.6447  0.2646 -0.6665
12703TIP3    H259525   1.283   2.532   2.704  2.0749  0.3086 -1.3192
12704TIP3   OH259526   4.352   0.421   1.903 -0.8874 -0.4174 -0.3407
12704TIP3    H159527   4.392   0.478   1.837  0.7621 -1.4843 -0.3314
12704TIP3    H259528   4.374   0.333   1.874  0.7810 -0.9047  2.1319
12705TIP3   OH259529   1.896   1.501   4.341  0.1333  0.0015 -0.3013
12705TIP3    H159530   1.803   1.514   4.322 -0.1227  0.4208  1.1436
12705TIP3    H259531   1.939   1.576   4.302 -0.2515  0.3109 -0.1362
12706TIP3   OH259532   0.643   6.552   5.587 -0.1221  0.0993  0.8064
12706TIP3    H159533   0.728   6.517   5.560  0.6868  2.6884 -0.2814
12706TIP3    H259534   0.650   6.647   5.573 -3.2971  0.3824  0.4226
12707TIP3   OH259535   1.822   5.741   5.463  0.2913 -0.3761 -0.4578
12707TIP3    H159536   1.832   5.651   5.495 -1.7722 -0.5381 -0.0984
12707TIP3    H259537   1.838   5.796   5.540 -0.1382 -0.5327 -0.2543
12708TIP3   OH259538   5.791   1.617   1.345  0.2633  0.5551  0.2118
12708TIP3    H159539   5.853   1.545   1.357 -0.7998 -0.3415  0.4911
12708TIP3    H259540   5.706   1.574   1.335 -0.4751  1.7907  0.8912
12709TIP3   OH259541   4.549   0.868  14.271 -0.7589  0.4413  0.1087
12709TIP3    H159542   4.467   0.884  14.225 -2.4319 -0.0378  2.6875
12709TIP3    H259543   4.559   0.772  14.269 -0.5691  0.4583  0.2410
12710TIP3   OH259544   2.739   3.094  12.164  0.4171  0.5115 -0.0705
12710TIP3    H159545   2.830   3.118  12.180  0.7801 -1.0474  0.4152
12710TIP3    H259546   2.710   3.054  12.246  0.1406 -1.3681 -1.0261
12711TIP3   OH259547   4.807   6.468  12.429  0.6679  0.0393  0.4653
12711TIP3    H159548   4.871   6.437  12.493  2.9343 -1.5470 -2.3052
12711TIP3    H259549   4.857   6.527  12.372 -1.0041  0.7064 -0.3754
12712TIP3   OH259550   3.626   2.844   5.871 -0.8988  0.1704 -0.4360
12712TIP3    H159551   3.706   2.897   5.871 -0.8279  0.0664 -0.8357
12712TIP3    H259552   3.566   2.893   5.814 -1.4918  0.7990  0.6930
12713TIP3   OH259553   0.263   0.042  17.396 -0.4806  0.1834 -0.2459
12713TIP3    H159554   0.303   0.007  17.317 -0.7091 -0.0885 -0.2396
12713TIP3    H259555   0.186   0.090  17.365 -0.8269 -0.3077 -0.1470
12714TIP3   OH259556   2.029   1.437   3.772  0.4346 -0.5574  0.0543
12714TIP3    H159557   2.106   1.387   3.744  0.7160  1.0363 -2.3888
12714TIP3    H259558   2.051   1.471   3.858  1.2997 -2.3970  0.5980
12715TIP3   OH259559   5.989   0.363   5.088 -0.0349 -0.0685  0.0899
12715TIP3    H159560   5.961   0.286   5.138  0.6423 -0.7130 -0.5037
12715TIP3    H259561   6.031   0.419   5.153 -0.3196 -0.3024  0.4831
12716TIP3   OH259562   4.256   4.231  16.582 -0.4803  0.0588  0.2576
12716TIP3    H159563   4.241   4.325  16.587 -2.4073 -0.1264 -0.7787
12716TIP3    H259564   4.281   4.205  16.670 -0.8444  1.4078  0.7758
12717TIP3   OH259565   6.248   5.427   5.428  0.0023 -0.8236 -0.0104
12717TIP3    H159566   6.178   5.441   5.364  0.3619 -1.6069 -0.5900
12717TIP3    H259567   6.325   5.407   5.375  0.1212 -2.2550  0.6719
12718TIP3   OH259568   3.988   2.407  14.740  0.1274  0.2752  0.2572
12718TIP3    H159569   4.041   2.485  14.723 -0.1486  0.3542 -0.2445
12718TIP3    H259570   4.003   2.350  14.665 -0.9483  0.5489 -0.1809
12719TIP3   OH259571   1.610   5.338  16.478 -0.1643 -0.0255  0.2162
12719TIP3    H159572   1.661   5.336  16.559  1.0447  1.8146 -0.4407
12719TIP3    H259573   1.626   5.252  16.438  0.2605 -0.4675  1.3098
12720TIP3   OH259574   0.397   5.424   1.734 -0.3575  0.1012  0.5490
12720TIP3    H159575   0.312   5.419   1.691 -0.1983  0.3072  0.2064
12720TIP3    H259576   0.404   5.515   1.765 -0.8341 -0.2560  1.7734
12721TIP3   OH259577   3.801   6.130  14.148 -0.1188 -0.4671 -0.0820
12721TIP3    H159578   3.850   6.094  14.075  0.9072  0.8422 -0.0635
12721TIP3    H259579   3.740   6.192  14.109 -0.4195 -0.6542  0.0787
12722TIP3   OH259580   3.125   3.026   3.079  0.0371 -0.1056 -0.4430
12722TIP3    H159581   3.065   3.032   3.153 -0.4231 -1.9429 -0.6191
12722TIP3    H259582   3.072   3.054   3.003 -0.1649 -0.3445 -0.3920
12723TIP3   OH259583   1.036   5.115   3.839  0.0796  0.0979 -0.2022
12723TIP3    H159584   1.017   5.103   3.932  3.4764 -1.4086  0.4312
12723TIP3    H259585   1.040   5.210   3.827  3.6449  0.4373  2.2965
12724TIP3   OH259586   3.454   5.712  13.108 -0.3038 -0.1716  0.2495
12724TIP3    H159587   3.444   5.777  13.038 -0.2841 -0.3557  0.0746
12724TIP3    H259588   3.546   5.720  13.134 -0.0471 -0.7958 -0.4355
12725TIP3   OH259589   5.352   6.115  16.569 -0.3529 -0.3411  0.2812
12725TIP3    H159590   5.323   6.069  16.647  1.3308 -2.4578 -0.2439
12725TIP3    H259591   5.443   6.089  16.557  0.1886  1.8325 -1.0622
12726TIP3   OH259592   1.106   0.699  12.887 -0.2403  0.1150  0.1006
12726TIP3    H159593   1.120   0.617  12.935  0.5794  1.4847  2.3899
12726TIP3    H259594   1.060   0.756  12.949 -0.1537  1.6265 -1.1565
12727TIP3   OH259595   6.089   0.305  15.549  0.2987 -0.2524  0.7787
12727TIP3    H159596   6.055   0.345  15.469 -0.0405 -0.7352  0.6756
12727TIP3    H259597   6.043   0.350  15.620 -1.1493 -1.4078  0.6214
12728TIP3   OH259598   4.720   4.973   6.043 -0.1740  0.2360  0.3694
12728TIP3    H159599   4.782   5.015   5.983 -0.2825  0.7822  0.6330
12728TIP3    H259600   4.634   4.995   6.008 -0.2492  1.1342  1.1064
12729TIP3   OH259601   0.758   4.567  13.561  0.3334 -0.4403 -0.5693
12729TIP3    H159602   0.675   4.527  13.588  1.4765 -2.9121 -0.4257
12729TIP3    H259603   0.818   4.551  13.634  2.2020 -3.1061 -2.4859
12730TIP3   OH259604   5.124   3.089  16.316  0.1179  0.5445  0.0692
12730TIP3    H159605   5.121   2.994  16.304  0.0579  0.5827 -0.2292
12730TIP3    H259606   5.177   3.102  16.394  1.1777  0.3211 -0.6051
12731TIP3   OH259607   4.662   3.854  17.167  0.0940 -0.0491 -0.2726
12731TIP3    H159608   4.684   3.835  17.259 -1.7547 -4.1246 -0.4352
12731TIP3    H259609   4.583   3.908  17.173 -0.6812 -1.2268  0.6097
12732TIP3   OH259610   5.798   1.282   5.999  0.0602  0.0501 -0.1799
12732TIP3    H159611   5.837   1.242   6.077  1.6500  1.6077 -0.1206
12732TIP3    H259612   5.708   1.302   6.024  0.0432 -0.9786  0.6692
12733TIP3   OH259613   4.575   6.434   0.258  0.1365 -0.8291 -0.2587
12733TIP3    H159614   4.630   6.506   0.228 -0.2761 -0.1347  0.5940
12733TIP3    H259615   4.636   6.372   0.298  0.3621 -0.2723  0.2865
12734TIP3   OH259616   2.781   0.294   4.769  0.6674 -0.2108 -0.2843
12734TIP3    H159617   2.711   0.301   4.835 -0.7711 -4.8252 -0.9364
12734TIP3    H259618   2.755   0.355   4.701 -1.4858 -0.0740  0.5600
12735TIP3   OH259619   6.294   0.846   6.254 -0.3370 -0.0723 -0.8129
12735TIP3    H159620   6.234   0.920   6.263 -1.8068 -1.1304 -1.5366
12735TIP3    H259621   6.379   0.881   6.281 -1.2547  1.4773  0.2372
12736TIP3   OH259622   4.045   6.131   4.078  0.2812 -0.3697 -0.9841
12736TIP3    H159623   4.051   6.133   3.982  1.2556 -0.9737 -0.9573
12736TIP3    H259624   4.120   6.078   4.105  0.4115  0.3620  0.1573
12737TIP3   OH259625   4.371   5.199  14.949 -0.4495  0.0579  0.2878
12737TIP3    H159626   4.465   5.185  14.942 -0.3911  0.6644 -0.3194
12737TIP3    H259627   4.332   5.118  14.915 -0.1626 -0.6593  1.6279
12738TIP3   OH259628   4.597   3.677  16.616 -0.0837  0.0623 -0.3754
12738TIP3    H159629   4.642   3.626  16.549 -0.1604 -0.9536  0.3367
12738TIP3    H259630   4.552   3.746  16.566  2.1027  1.0516 -1.1270
12739TIP3   OH259631   0.184   5.179  16.943 -0.1330  0.2801 -0.4301
12739TIP3    H159632   0.219   5.258  16.903 -0.7524  0.8315  0.1090
12739TIP3    H259633   0.202   5.189  17.037 -1.0138  0.1977 -0.2443
12740TIP3   OH259634   2.980   6.394  15.458  0.0025  0.9127 -0.2950
12740TIP3    H159635   2.912   6.387  15.391 -0.1063  0.5211 -0.1447
12740TIP3    H259636   3.056   6.427  15.411 -0.0356  0.5240 -0.6375
12741TIP3   OH259637   2.117   5.141   0.881  0.4113 -0.3747 -0.3649
12741TIP3    H159638   2.113   5.070   0.944  1.4104 -0.6674 -0.6136
12741TIP3    H259639   2.124   5.098   0.796  0.8036  0.0136 -0.5366
12742TIP3   OH259640   5.681   1.357  13.976  0.0709 -0.2543 -0.0343
12742TIP3    H159641   5.751   1.423  13.972 -1.7026  1.8599  1.3767
12742TIP3    H259642   5.702   1.304  14.053  0.0327  0.5228  0.5239
12743TIP3   OH259643   0.779   4.157   5.906 -0.1027  0.1734  1.0436
12743TIP3    H159644   0.859   4.108   5.883  0.4781  1.8622 -0.8688
12743TIP3    H259645   0.707   4.100   5.878  0.4897 -0.4086  0.6691
12744TIP3   OH259646   5.861   1.786   2.472 -0.3285  0.4679 -0.4936
12744TIP3    H159647   5.849   1.721   2.402 -0.9870 -0.1520  0.1734
12744TIP3    H259648   5.772   1.806   2.501 -0.1424  1.7386 -0.7333
12745TIP3   OH259649   0.248   1.818   5.445 -0.0245 -0.7022 -0.1680
12745TIP3    H159650   0.169   1.869   5.428  0.4088 -0.2780 -0.9133
12745TIP3    H259651   0.245   1.746   5.382  0.5181 -0.3093 -0.6512
12746TIP3   OH259652   5.491   4.737  15.317  0.1956  0.1649  0.4041
12746TIP3    H159653   5.405   4.694  15.314  0.1296  0.3428 -1.6152
12746TIP3    H259654   5.471   4.830  15.321  0.3349  0.1689  1.4077
12747TIP3   OH259655   3.430   1.086  14.337 -0.2075 -0.5218 -0.1672
12747TIP3    H159656   3.440   1.011  14.279 -1.0677  0.5312 -1.7479
12747TIP3    H259657   3.373   1.054  14.408  1.1123 -1.9117  0.3285
12748TIP3   OH259658   6.057   0.793  13.559  0.6244 -0.4372  0.3846
12748TIP3    H159659   6.059   0.884  13.529 -0.3199 -0.0298  1.4990
12748TIP3    H259660   5.964   0.771  13.565  0.8419 -1.4979  0.0828
12749TIP3   OH259661   6.505   4.359   2.334 -0.1201 -0.6675  0.1072
12749TIP3    H159662   6.593   4.381   2.365 -0.0289 -2.5947  1.3995
12749TIP3    H259663   6.521   4.306   2.255 -0.2798  1.7097 -1.6382
12750TIP3   OH259664   5.840   1.755   0.019  0.7384  0.0935  0.2745
12750TIP3    H159665   5.787   1.831   0.042 -0.1551 -0.7189  0.9453
12750TIP3    H259666   5.807   1.684   0.074  1.4644 -0.8232 -0.4294
12751TIP3   OH259667   0.735   1.862  12.164 -0.3059 -0.4393  0.0258
12751TIP3    H159668   0.794   1.813  12.107 -0.1067  0.5912 -0.6926
12751TIP3    H259669   0.648   1.826  12.144  0.0650 -2.0246  1.1624
12752TIP3   OH259670   4.074   6.675   0.306 -0.1152 -0.8251  0.3483
12752TIP3    H159671   4.157   6.634   0.279  2.4402  4.9827 -2.4334
12752TIP3    H259672   4.023   6.682   0.225  0.1932  2.1230  0.2757
12753TIP3   OH259673   5.777   1.185  12.141 -0.4153  0.3685 -0.4058
12753TIP3    H159674   5.759   1.103  12.095  2.5795 -1.0581  0.7091
12753TIP3    H259675   5.848   1.225  12.090  0.1404  0.7878  0.6756
12754TIP3   OH259676   1.722   3.563   0.972  0.5661  0.1206  0.3838
12754TIP3    H159677   1.782   3.635   0.991  0.2466  0.8937 -1.2873
12754TIP3    H259678   1.682   3.588   0.889 -1.3357 -0.8466  0.9549
12755TIP3   OH259679   2.829   0.903  12.299  0.2615  0.2953 -0.0670
12755TIP3    H159680   2.847   0.940  12.386  0.4023  0.7174 -0.2718
12755TIP3    H259681   2.899   0.939  12.244 -0.6399  1.1557 -0.6676
12756TIP3   OH259682   3.272   5.858  15.629 -0.1254 -1.0212  0.6738
12756TIP3    H159683   3.236   5.787  15.682  0.8961 -1.8794  0.2597
12756TIP3    H259684   3.359   5.875  15.666  0.2011 -0.9509 -0.0866
12757TIP3   OH259685   2.469   3.810   1.891 -0.5842  0.0824 -0.4885
12757TIP3    H159686   2.449   3.834   1.982 -0.6929  1.2400 -0.8009
12757TIP3    H259687   2.427   3.878   1.839 -1.6407 -1.2892 -1.4875
12758TIP3   OH259688   0.477   1.385  16.804  0.0154 -0.3719 -0.0488
12758TIP3    H159689   0.528   1.376  16.884  0.7138  1.6948 -0.1938
12758TIP3    H259690   0.387   1.368  16.831 -0.0417  2.1298  1.6809
12759TIP3   OH259691   0.747   6.207  16.924 -0.3569 -0.3476 -0.2216
12759TIP3    H159692   0.840   6.192  16.910 -0.6168 -1.6274 -0.6993
12759TIP3    H259693   0.739   6.221  17.019  0.6116  2.2780 -0.4401
12760TIP3   OH259694   0.895   1.989  14.678 -0.2710  0.0934  0.0197
12760TIP3    H159695   0.933   1.901  14.681  0.4190  0.1504 -3.3147
12760TIP3    H259696   0.801   1.975  14.686 -0.2441 -1.0957 -1.3799
12761TIP3   OH259697   0.079   2.753   2.082 -0.5533  0.1406  0.2002
12761TIP3    H159698   0.157   2.713   2.043  0.4569  0.2729  1.9464
12761TIP3    H259699   0.069   2.707   2.166 -1.9536  0.6020  0.3089
12762TIP3   OH259700   0.613   2.118   6.054 -0.2608  0.3192 -0.2721
12762TIP3    H159701   0.684   2.174   6.087  1.3191 -1.6564 -0.1548
12762TIP3    H259702   0.589   2.063   6.129 -1.5011  0.4932 -0.5065
12763TIP3   OH259703   6.601   2.968  16.577  0.3995  0.2088 -0.0808
12763TIP3    H159704   6.676   3.028  16.570  0.2544  0.4352  0.2729
12763TIP3    H259705   6.539   2.999  16.511  0.6583 -0.0381 -0.4403
12764TIP3   OH259706   2.778   0.783  11.460  0.4105  0.4424 -0.4707
12764TIP3    H159707   2.798   0.877  11.466  0.7101  0.3839 -0.5063
12764TIP3    H259708   2.794   0.761  11.368 -1.7842  0.8108 -0.9958
12765TIP3   OH259709   1.958   1.403   0.651  0.0339 -0.1997  0.1008
12765TIP3    H159710   1.942   1.314   0.620  2.8518 -0.6793 -0.2802
12765TIP3    H259711   1.969   1.455   0.571  3.3934 -0.6437  0.1126
12766TIP3   OH259712   5.498   6.128   5.210  0.4559 -0.1221 -0.0450
12766TIP3    H159713   5.485   6.142   5.304  0.5006  0.9133 -0.1766
12766TIP3    H259714   5.589   6.098   5.203 -0.4606 -3.4434  0.5036
12767TIP3   OH259715   4.472   0.870   4.773 -0.0912 -0.2038 -0.1680
12767TIP3    H159716   4.455   0.938   4.838  1.8080 -0.8869  1.1377
12767TIP3    H259717   4.510   0.917   4.699  0.2354  0.2760  0.2970
12768TIP3   OH259718   4.331   1.391   6.002  0.9983  0.0811  0.4015
12768TIP3    H159719   4.349   1.297   5.992  0.5603 -0.0459  0.7843
12768TIP3    H259720   4.327   1.404   6.097  1.3843  0.5515  0.3537
12769TIP3   OH259721   3.617   6.056   1.432 -0.2425 -0.4151  0.1697
12769TIP3    H159722   3.523   6.061   1.448 -0.1896  1.2601  0.1544
12769TIP3    H259723   3.655   6.027   1.515 -0.5921  1.1999  0.9383
12770TIP3   OH259724   2.806   5.137  15.042  0.2342  0.0081 -0.4183
12770TIP3    H159725   2.845   5.069  15.098  0.3867 -0.5588 -1.1868
12770TIP3    H259726   2.863   5.139  14.966 -0.0614  0.6595 -0.6225
12771TIP3   OH259727   3.081   0.505  16.286 -0.1605 -0.1737  0.3315
12771TIP3    H159728   3.017   0.433  16.290  0.0811 -0.3562  1.0223
12771TIP3    H259729   3.028   0.584  16.295 -0.4788 -0.2278 -0.8719
12772TIP3   OH259730   3.184   2.526   5.795 -0.6947 -0.1267 -0.1424
12772TIP3    H159731   3.277   2.543   5.782 -0.8150  1.1010  0.3878
12772TIP3    H259732   3.140   2.597   5.748 -1.2495  1.1669  2.1213
12773TIP3   OH259733   4.073   3.091  15.041 -0.3142 -0.0731 -0.0570
12773TIP3    H159734   4.008   3.149  15.081 -1.0862 -1.3359  0.6040
12773TIP3    H259735   4.030   3.055  14.964 -0.2831 -0.6502  0.1867
12774TIP3   OH259736   6.458   0.158   2.625  0.3388 -0.0546  0.6334
12774TIP3    H159737   6.434   0.208   2.704  1.1923 -0.2982  1.0588
12774TIP3    H259738   6.481   0.071   2.658 -1.5426 -0.9010 -0.1514
12775TIP3   OH259739   2.549   1.821   4.365  0.3143 -0.0645 -0.0785
12775TIP3    H159740   2.470   1.817   4.420  2.2652 -0.0772  2.9390
12775TIP3    H259741   2.594   1.900   4.394  0.9199  0.5857 -2.5694
12776TIP3   OH259742   1.317   4.983  11.661 -1.0668  0.4823 -0.8236
12776TIP3    H159743   1.268   4.971  11.742  1.2359 -1.9352  0.3668
12776TIP3    H259744   1.363   5.066  11.672  0.2941 -0.4651  1.0198
12777TIP3   OH259745   5.115   2.565  17.454  0.2625 -0.3349  0.2461
12777TIP3    H159746   5.078   2.651  17.477  0.8670  0.2917 -1.0466
12777TIP3    H259747   5.207   2.583  17.434 -0.0236 -0.9326 -1.8392
12778TIP3   OH259748   2.160   3.123   1.076  0.0911 -0.0014  0.1406
12778TIP3    H159749   2.209   3.077   1.009  0.1589  0.6830 -0.2904
12778TIP3    H259750   2.124   3.054   1.132  1.3652 -0.5260  0.3406
12779TIP3   OH259751   4.648   1.312   3.591 -0.2334  0.1155  0.0327
12779TIP3    H159752   4.577   1.256   3.558 -0.5195  1.4681 -1.7688
12779TIP3    H259753   4.618   1.340   3.677 -0.6972 -1.3886  0.3938
12780TIP3   OH259754   1.782   4.445   6.227  0.2773 -0.4237 -0.0481
12780TIP3    H159755   1.720   4.398   6.284  2.6721  0.4035  3.5350
12780TIP3    H259756   1.726   4.493   6.166 -2.5389 -1.2400  1.6982
12781TIP3   OH259757   2.069   0.040   0.325 -0.4597  0.0916 -0.3000
12781TIP3    H159758   2.034   0.086   0.248 -0.1031 -0.8940 -1.0714
12781TIP3    H259759   2.106   0.109   0.379  1.7418  0.6050 -2.3099
12782TIP3   OH259760   2.600   2.926  15.568  0.8974  1.1794 -0.1742
12782TIP3    H159761   2.583   2.863  15.498 -1.3476  1.4065  0.0838
12782TIP3    H259762   2.681   2.895  15.609 -0.0670 -1.5085 -0.0975
12783TIP3   OH259763   2.347   4.310  13.765 -0.0428 -0.1615  0.2703
12783TIP3    H159764   2.358   4.318  13.670 -0.6094 -2.7752 -0.1036
12783TIP3    H259765   2.330   4.399  13.795  1.6704  0.9672 -1.8543
12784TIP3   OH259766   1.537   6.475  17.267  0.1784 -0.5944 -0.5312
12784TIP3    H159767   1.542   6.385  17.235 -0.8215 -0.6566 -0.5444
12784TIP3    H259768   1.513   6.526  17.189 -1.2835 -0.6088 -0.1135
12785TIP3   OH259769   3.223   1.656  11.305  1.0334 -0.0238 -0.7971
12785TIP3    H159770   3.179   1.572  11.296  0.5750  0.1907 -0.5615
12785TIP3    H259771   3.191   1.708  11.231  2.5416 -0.5795 -1.9089
12786TIP3   OH259772   4.789   0.151   4.321 -0.2082 -0.1001 -0.2213
12786TIP3    H159773   4.777   0.245   4.340  0.5807 -0.0912  0.3037
12786TIP3    H259774   4.835   0.118   4.398 -0.9522 -1.0366 -0.1725
12787TIP3   OH259775   3.399   1.436  11.118  0.4894  0.1984 -0.7691
12787TIP3    H159776   3.423   1.453  11.209  0.7358 -1.3321 -0.5171
12787TIP3    H259777   3.456   1.493  11.066 -0.0295  1.4773  0.0362
12788TIP3   OH259778   0.352   1.623   1.626  0.2524 -0.1462  0.1952
12788TIP3    H159779   0.350   1.670   1.543  1.1333 -1.4370 -0.5926
12788TIP3    H259780   0.261   1.596   1.640  0.3053 -1.0593 -1.0452
12789TIP3   OH259781   3.889   0.973  10.900  0.4456  0.2354 -0.7310
12789TIP3    H159782   3.876   0.888  10.858 -0.6326  0.6151 -1.1826
12789TIP3    H259783   3.826   0.976  10.971  0.8941  0.4216 -0.3297
12790TIP3   OH259784   5.780   2.403   4.927 -0.4297  0.5069  0.0422
12790TIP3    H159785   5.777   2.364   5.014 -0.9829 -0.6550 -0.4803
12790TIP3    H259786   5.873   2.423   4.913 -0.0838 -0.8041  0.2763
12791TIP3   OH259787   0.794   2.293   2.323 -0.6833  0.1072 -0.5431
12791TIP3    H159788   0.867   2.346   2.291  0.7874 -2.3664 -1.6083
12791TIP3    H259789   0.773   2.330   2.409  2.4633  0.3930  0.2281
12792TIP3   OH259790   0.918   1.667   2.794  0.0632 -0.1032 -0.1822
12792TIP3    H159791   0.842   1.613   2.811  0.0966 -1.1540 -2.8682
12792TIP3    H259792   0.885   1.739   2.740  0.8121 -0.1263 -0.6956
12793TIP3   OH259793   0.314   3.718  14.273 -0.1615 -0.1617  0.2953
12793TIP3    H159794   0.259   3.793  14.297  2.3084  1.7777  0.2641
12793TIP3    H259795   0.315   3.663  14.352  0.3036  1.3402  1.3807
12794TIP3   OH259796   3.383   2.188   1.026 -0.2815 -0.1864 -0.2746
12794TIP3    H159797   3.316   2.156   0.966  0.2258 -2.0226  0.0831
12794TIP3    H259798   3.370   2.138   1.106  1.1229 -0.1587  0.0032
12795TIP3   OH259799   2.783   6.030  14.869  0.0419  0.3314  1.0192
12795TIP3    H159800   2.831   6.060  14.946  0.4556  0.8222  0.5843
12795TIP3    H259801   2.757   6.111  14.824  2.0401  0.0940 -0.7147
12796TIP3   OH259802   2.379   2.567   3.464  0.4753  0.2760  0.3605
12796TIP3    H159803   2.467   2.543   3.491 -0.5652  0.4530  4.7237
12796TIP3    H259804   2.360   2.648   3.512 -1.8128  0.6705 -1.0160
12797TIP3   OH259805   2.673   4.169   0.303  0.2515  0.6875 -0.2165
12797TIP3    H159806   2.656   4.157   0.210  0.2286  3.1412 -0.6069
12797TIP3    H259807   2.587   4.185   0.341  0.3713  0.7033  0.0524
12798TIP3   OH259808   5.866   4.779  17.591  0.2774  0.4971 -0.1120
12798TIP3    H159809   5.929   4.718  17.551 -0.0009  1.2758 -1.8000
12798TIP3    H259810   5.781   4.740  17.574  0.2093  0.0202  1.1866
12799TIP3   OH259811   0.710   3.296   2.609 -0.4788  0.1101 -0.7498
12799TIP3    H159812   0.743   3.208   2.590 -0.9055  0.0383 -1.1732
12799TIP3    H259813   0.783   3.340   2.653 -1.1547 -1.3061  1.9826
12800TIP3   OH259814   2.166   1.396  15.671 -0.4970  0.0834 -0.1550
12800TIP3    H159815   2.119   1.440  15.742  0.3447 -0.4449  0.7537
12800TIP3    H259816   2.202   1.467  15.618  1.3407  0.5602  1.6234
12801TIP3   OH259817   2.542   4.074  12.984  0.0061 -0.8810  0.2152
12801TIP3    H159818   2.560   4.044  12.895  1.1251  0.2979  0.0103
12801TIP3    H259819   2.453   4.044  13.003 -1.4278  1.3036 -2.4005
12802TIP3   OH259820   5.096   3.545   4.792 -0.3897 -0.2949  0.4956
12802TIP3    H159821   5.148   3.514   4.718 -1.3239 -0.0036 -0.3077
12802TIP3    H259822   5.021   3.590   4.751 -0.2658  0.9820  1.6185
12803TIP3   OH259823   4.906   6.494  17.303  0.1442  0.2628  0.5399
12803TIP3    H159824   4.832   6.528  17.354  0.1481  1.3666 -0.1729
12803TIP3    H259825   4.865   6.437  17.238  0.0995 -0.7202  1.3872
12804TIP3   OH259826   5.072   4.363   2.130 -0.3895 -0.6264 -0.2065
12804TIP3    H159827   5.081   4.276   2.170 -3.7514 -1.8048 -1.6606
12804TIP3    H259828   5.000   4.353   2.067 -0.9142  3.2232 -0.4426
12805TIP3   OH259829   2.956   2.187  16.325 -0.4231  0.3997 -0.0075
12805TIP3    H159830   2.864   2.205  16.305 -0.0698  0.0570 -2.2441
12805TIP3    H259831   2.952   2.120  16.393 -1.8549  0.0168 -0.4159
12806TIP3   OH259832   1.836   0.146   3.241  0.1749  0.1067  0.1465
12806TIP3    H159833   1.931   0.139   3.245  0.2220  0.9912  1.8338
12806TIP3    H259834   1.804   0.056   3.257  0.7695  0.3131  3.1233
12807TIP3   OH259835   1.663   1.038   2.523 -0.2138  0.1224 -0.6003
12807TIP3    H159836   1.637   1.052   2.614  1.6768  1.3144 -0.1934
12807TIP3    H259837   1.591   1.074   2.471  0.1033  2.4511  0.4614
12808TIP3   OH259838   0.980   2.561   4.645  0.0566 -0.7018  0.1582
12808TIP3    H159839   0.969   2.581   4.738  0.5492 -0.4362  0.1591
12808TIP3    H259840   1.019   2.640   4.608  1.2787 -1.3452  0.0162
12809TIP3   OH259841   4.990   1.449  16.608 -0.3325 -0.3405  0.0417
12809TIP3    H159842   5.008   1.528  16.659 -0.8243 -0.5472  0.5462
12809TIP3    H259843   5.072   1.431  16.563  0.5745 -0.8784  1.7794
12810TIP3   OH259844   6.575   4.694  17.337 -0.6379  0.4096 -0.5532
12810TIP3    H159845   6.509   4.636  17.299  1.3616 -1.9012 -0.7337
12810TIP3    H259846   6.575   4.672  17.431 -0.6286  0.9384 -0.4254
12811TIP3   OH259847   3.914   0.733   2.387  0.3376 -0.0550 -0.2651
12811TIP3    H159848   3.938   0.644   2.363  1.1458 -0.0580  0.5306
12811TIP3    H259849   3.974   0.788   2.336 -0.9194  0.0989 -1.6476
12812TIP3   OH259850   0.913   6.490   4.749  0.6527 -0.0158 -0.7290
12812TIP3    H159851   1.001   6.454   4.753  0.5877 -0.1891 -0.8793
12812TIP3    H259852   0.906   6.544   4.828 -0.3634 -2.8103  1.2544
12813TIP3   OH259853   0.063   3.357   3.512 -0.0419 -0.1244  0.4661
12813TIP3    H159854   0.041   3.294   3.444 -1.0180 -0.4080  1.0147
12813TIP3    H259855   0.104   3.430   3.466 -0.8508 -0.2305 -0.4473
12814TIP3   OH259856   2.902   0.334  14.221 -0.3755  0.1610 -0.0870
12814TIP3    H159857   2.832   0.396  14.204 -1.4587 -1.4978 -2.1838
12814TIP3    H259858   2.961   0.342  14.146  0.7779  0.3415  0.8180
12815TIP3   OH259859   3.579   3.114   5.783 -1.1410 -0.4364 -0.4099
12815TIP3    H159860   3.547   3.204   5.792 -2.4399 -0.8492 -0.6588
12815TIP3    H259861   3.531   3.078   5.708 -1.7294 -1.7810  0.5708
12816TIP3   OH259862   1.199   6.022   3.586  0.4617 -0.3005 -0.0172
12816TIP3    H159863   1.247   6.086   3.639 -0.0414 -0.6418  0.8684
12816TIP3    H259864   1.129   6.072   3.544 -0.6818 -0.4463  1.6241
12817TIP3   OH259865   4.918   0.818  17.304  0.1697  0.0953 -0.6458
12817TIP3    H159866   4.925   0.725  17.328  1.2128  0.3449  0.0691
12817TIP3    H259867   4.989   0.861  17.352 -1.1429  1.4963  0.1262
12818TIP3   OH259868   6.058   4.189  14.008  0.1524 -0.0317 -0.1514
12818TIP3    H159869   6.144   4.168  13.972  0.2617 -1.3141  0.8059
12818TIP3    H259870   6.057   4.148  14.094 -1.6584 -0.5993 -0.3976
12819TIP3   OH259871   4.712   5.592  17.629  0.2165 -0.0116  0.0063
12819TIP3    H159872   4.756   5.677  17.623 -1.6021  0.9164 -0.9282
12819TIP3    H259873   4.782   5.528  17.612  1.5276  1.3037  0.2353
12820TIP3   OH259874   3.625   2.751  17.116 -0.4593  0.5142  0.1799
12820TIP3    H159875   3.679   2.759  17.194  0.2978 -0.3031 -0.2445
12820TIP3    H259876   3.540   2.720  17.147 -0.0425 -0.1815  0.6407
12821TIP3   OH259877   6.483   1.189   5.792 -0.2091 -0.2335  0.4702
12821TIP3    H159878   6.411   1.135   5.760 -0.1440 -0.3411  0.5078
12821TIP3    H259879   6.482   1.179   5.887  0.2412 -0.7252  0.4306
12822TIP3   OH259880   1.133   1.440   4.674 -0.0016  0.1840  0.0755
12822TIP3    H159881   1.194   1.440   4.601 -0.0579  3.2470 -0.0972
12822TIP3    H259882   1.179   1.486   4.744 -1.5660  1.3611  0.3886
12823TIP3   OH259883   5.792   2.742   6.634  1.0556 -0.4810 -0.0116
12823TIP3    H159884   5.716   2.799   6.623  1.9295  1.1224  1.7103
12823TIP3    H259885   5.763   2.657   6.601 -1.8129 -0.1901  1.4381
12824TIP3   OH259886   3.691   3.535   3.824 -0.7574  0.3321 -0.1576
12824TIP3    H159887   3.763   3.489   3.866 -0.6119  1.9768  1.5344
12824TIP3    H259888   3.635   3.465   3.789  0.9825 -1.0039 -0.4180
12825TIP3   OH259889   0.939   4.692  15.945  0.2141  0.0853 -0.4458
12825TIP3    H159890   1.002   4.676  15.874 -0.3939 -0.5003 -0.8751
12825TIP3    H259891   0.902   4.605  15.963  0.7202  0.1417  0.9420
12826TIP3   OH259892   5.624   0.937  14.114  0.1833  0.2607  0.1197
12826TIP3    H159893   5.673   0.999  14.168 -1.4864  1.4209  0.3950
12826TIP3    H259894   5.572   0.886  14.176 -2.2545  2.0481 -0.3004
12827TIP3   OH259895   3.830   4.884  12.443 -0.0197  0.2133  0.9613
12827TIP3    H159896   3.736   4.881  12.425  0.2746 -1.4279 -0.5423
12827TIP3    H259897   3.857   4.972  12.417 -0.4595 -0.5744 -2.5509
12828TIP3   OH259898   2.187   5.084  13.852 -0.0123 -0.6353 -0.0927
12828TIP3    H159899   2.143   5.000  13.859  0.2240 -0.6770  0.9862
12828TIP3    H259900   2.131   5.136  13.794 -0.1558 -1.5234 -0.7720
12829TIP3   OH259901   3.337   6.664   4.629 -0.4528  0.5833 -0.2129
12829TIP3    H159902   3.333   6.570   4.609 -0.0145  0.6677 -0.7222
12829TIP3    H259903   3.388   6.669   4.710 -0.7657  0.3590  0.0004
12830TIP3   OH259904   4.284   6.637   1.459  0.1652  0.1761 -0.1946
12830TIP3    H159905   4.341   6.607   1.388 -1.5384  0.9894 -2.0006
12830TIP3    H259906   4.270   6.560   1.513  3.1540  0.0012  0.5249
12831TIP3   OH259907   4.555   3.965  14.059 -0.3676  1.1178  0.9134
12831TIP3    H159908   4.530   4.048  14.019  1.2396  0.4714 -1.6246
12831TIP3    H259909   4.476   3.912  14.056 -0.8425  1.8237  0.6055
12832TIP3   OH259910   3.431   5.223   1.448 -0.1564  0.0698 -0.7288
12832TIP3    H159911   3.343   5.233   1.412  0.1684 -0.2617 -1.6409
12832TIP3    H259912   3.420   5.165   1.523 -0.6758 -0.1910 -1.0054
12833TIP3   OH259913   1.733   4.594   4.792 -0.1886 -0.3120  0.6194
12833TIP3    H159914   1.648   4.558   4.816 -0.3924  0.0476  0.4472
12833TIP3    H259915   1.714   4.683   4.762  0.0084 -0.8289 -1.1827
12834TIP3   OH259916   3.158   4.137   5.993  0.0792 -0.1272  0.0635
12834TIP3    H159917   3.124   4.075   5.929 -0.8340 -0.5690  0.9448
12834TIP3    H259918   3.117   4.221   5.971  0.5875 -0.0316 -0.5550
12835TIP3   OH259919   5.548   5.755   1.043  0.6212  0.5931 -0.4422
12835TIP3    H159920   5.532   5.665   1.069 -0.1283  1.0059  0.6035
12835TIP3    H259921   5.630   5.779   1.086 -0.7096  1.3391  1.9418
12836TIP3   OH259922   2.405   3.667   5.411 -0.0535 -0.2270  0.3816
12836TIP3    H159923   2.334   3.610   5.383  1.2965 -0.9832 -1.7867
12836TIP3    H259924   2.475   3.607   5.437  1.1856  0.3799 -1.3808
12837TIP3   OH259925   2.561   0.967   4.725 -0.5328 -0.2697 -0.2203
12837TIP3    H159926   2.571   0.952   4.630 -0.5354  1.8310 -0.5991
12837TIP3    H259927   2.478   0.927   4.747 -0.0667 -1.6619 -0.8862
12838TIP3   OH259928   5.134   5.166  16.004  0.0748 -0.0757  0.5384
12838TIP3    H159929   5.160   5.078  15.976 -0.8737 -0.5391  1.0865
12838TIP3    H259930   5.089   5.153  16.087 -1.4636  0.7532 -0.1353
12839TIP3   OH259931   3.759   3.219   1.874  0.0048 -0.4269  0.3404
12839TIP3    H159932   3.666   3.233   1.891 -0.6673 -3.1200 -0.6390
12839TIP3    H259933   3.798   3.217   1.961 -1.0703 -0.5271  0.8422
12840TIP3   OH259934   4.427   3.512   5.030 -0.5439 -0.1448 -0.4976
12840TIP3    H159935   4.444   3.576   5.098  0.4967  0.0317 -0.9033
12840TIP3    H259936   4.508   3.461   5.023 -0.2994  0.3926 -2.1606
12841TIP3   OH259937   5.373   5.631   4.862 -0.4689 -0.2759 -0.2199
12841TIP3    H159938   5.361   5.714   4.815 -0.2214  0.3296  0.7709
12841TIP3    H259939   5.468   5.623   4.872 -0.2705 -1.9703 -2.5443
12842TIP3   OH259940   1.739   2.204   0.290  0.1525  0.2620  0.0356
12842TIP3    H159941   1.754   2.216   0.383  0.0030  1.4863 -0.0827
12842TIP3    H259942   1.825   2.216   0.249 -0.0424  1.2164 -0.1081
12843TIP3   OH259943   0.860   4.081  17.467  0.5958 -0.0318  0.1232
12843TIP3    H159944   0.791   4.019  17.444  1.5988 -1.0774 -0.1631
12843TIP3    H259945   0.865   4.140  17.392  1.6277 -1.4338 -0.9570
12844TIP3   OH259946   1.947   2.604  13.339  0.1603 -0.2943  0.4083
12844TIP3    H159947   1.969   2.696  13.355  0.9792 -0.7665  2.3079
12844TIP3    H259948   1.878   2.585  13.404 -1.5891 -0.4822 -1.4068
12845TIP3   OH259949   6.107   0.885   3.443  0.2841 -0.1582 -0.4658
12845TIP3    H159950   6.175   0.952   3.442  1.3438 -1.2099 -0.4327
12845TIP3    H259951   6.097   0.858   3.352  1.6227 -1.6617 -0.2073
12846TIP3   OH259952   0.129   5.818   0.067  0.0288 -0.2875  0.2456
12846TIP3    H159953   0.211   5.842   0.025 -0.5358  0.5771 -0.3935
12846TIP3    H259954   0.150   5.740   0.118  1.0549 -0.5506 -0.5515
12847TIP3   OH259955   4.631   2.662   1.546 -0.7705 -0.1673 -0.4158
12847TIP3    H159956   4.661   2.680   1.457  1.4444 -1.3478  0.0236
12847TIP3    H259957   4.620   2.748   1.586 -1.2043  0.3586 -1.6189
12848TIP3   OH259958   5.576   0.195  13.918  0.6830  0.3085  0.1267
12848TIP3    H159959   5.517   0.171  13.847 -0.4403 -1.2836  1.5447
12848TIP3    H259960   5.640   0.124  13.921  1.4391  0.9599 -0.0040
12849TIP3   OH259961   1.880   3.091  11.887 -0.0821  0.0736 -0.5090
12849TIP3    H159962   1.927   3.172  11.868  0.7987 -0.0068  1.0833
12849TIP3    H259963   1.789   3.117  11.898  0.2331  0.9202  0.2450
12850TIP3   OH259964   3.972   5.180   1.383 -0.3036 -0.0459  0.1081
12850TIP3    H159965   4.065   5.185   1.405 -0.2524 -1.9510  0.5011
12850TIP3    H259966   3.928   5.181   1.468 -0.4715 -1.3589  0.0620
12851TIP3   OH259967   5.247   4.336   0.017 -0.3446 -0.4990 -0.9048
12851TIP3    H159968   5.194   4.386  -0.045  0.6409 -1.4218 -2.5426
12851TIP3    H259969   5.239   4.245  -0.012  0.6819 -0.8749 -0.0892
12852TIP3   OH259970   0.662   0.704  11.884  0.0076 -0.1466 -0.4160
12852TIP3    H159971   0.576   0.676  11.854 -0.1107  0.5835 -0.7925
12852TIP3    H259972   0.651   0.719  11.978  0.0454 -1.2202 -0.2370
12853TIP3   OH259973   2.762   5.832  14.045  0.0451 -0.0676 -0.0701
12853TIP3    H159974   2.833   5.891  14.069 -0.9991  0.4336  2.0132
12853TIP3    H259975   2.748   5.849  13.952  0.8605  1.7921  0.0993
12854TIP3   OH259976   2.497   2.460  13.220 -0.3951  0.2904  0.0279
12854TIP3    H159977   2.537   2.434  13.137 -0.9065 -1.4722  0.2933
12854TIP3    H259978   2.570   2.495  13.271  0.1134  0.4754 -0.7885
12855TIP3   OH259979   3.825   0.992   3.258 -0.1680 -0.1182 -0.6895
12855TIP3    H159980   3.831   0.970   3.165 -2.5581  0.3568 -1.0240
12855TIP3    H259981   3.736   0.966   3.283  0.5168 -0.5101  1.5619
12856TIP3   OH259982   3.291   0.406  14.038 -0.2368 -0.0865  0.4454
12856TIP3    H159983   3.331   0.431  13.954  0.6461 -0.6029  0.6993
12856TIP3    H259984   3.327   0.320  14.056  2.0927  1.2444  2.8773
12857TIP3   OH259985   6.567   0.392  13.117  0.2098  0.0925  0.2958
12857TIP3    H159986   6.653   0.428  13.099  0.2709 -1.0212 -1.9812
12857TIP3    H259987   6.507   0.466  13.108  0.8434  0.7492  1.3231
12858TIP3   OH259988   3.886   6.420  17.179 -0.5206  0.6250  0.0537
12858TIP3    H159989   3.831   6.345  17.157 -1.2457  0.4580  2.2328
12858TIP3    H259990   3.957   6.417  17.114 -0.8249 -1.6029 -0.2562
12859TIP3   OH259991   2.789   5.555  15.347 -0.1125  0.4428 -0.2878
12859TIP3    H159992   2.753   5.622  15.289 -1.7711  1.5546  1.8799
12859TIP3    H259993   2.747   5.473  15.319 -1.3548  1.0639 -0.3117
12860TIP3   OH259994   4.926   5.577  16.400  0.2320  0.4368 -0.2700
12860TIP3    H159995   4.893   5.618  16.480 -0.6670  0.1440 -0.4790
12860TIP3    H259996   4.962   5.494  16.428 -0.2952  0.2310 -0.1925
12861TIP3   OH259997   1.652   1.979  11.274 -0.6613  0.1334  0.6129
12861TIP3    H159998   1.684   1.933  11.197  0.4877  0.5220  0.8425
12861TIP3    H259999   1.588   2.042  11.240  0.0766  0.5362 -0.0773
12862TIP3   OH260000   5.883   3.323   1.584 -0.4985 -0.5640 -0.2264
12862TIP3    H160001   5.921   3.333   1.671  0.6769 -1.8513 -0.5576
12862TIP3    H260002   5.846   3.235   1.584  0.8459 -1.1817 -1.4674
12863TIP3   OH260003   1.955   3.200   0.399  0.4227 -0.2939  0.0021
12863TIP3    H160004   2.003   3.154   0.467 -1.1839 -0.7592  0.8872
12863TIP3    H260005   1.864   3.198   0.429 -0.1484  0.5943 -1.5563
12864TIP3   OH260006   2.066   4.974   0.344 -0.0371 -0.2396 -0.1350
12864TIP3    H160007   2.005   5.019   0.402  0.9626 -0.3821  1.0714
12864TIP3    H260008   2.105   4.906   0.398  0.9961 -0.3136 -0.9421
12865TIP3   OH260009   1.739   1.947   0.177 -0.0959  0.4513 -0.3390
12865TIP3    H160010   1.646   1.946   0.155  0.0334  0.5052 -0.9082
12865TIP3    H260011   1.751   2.030   0.224 -0.3598  0.3831 -0.1485
12866TIP3   OH260012   5.594   2.622   1.924 -0.4694 -0.4067 -0.0248
12866TIP3    H160013   5.614   2.624   2.018 -0.0694 -0.2311 -0.1118
12866TIP3    H260014   5.536   2.546   1.914 -0.6124 -0.3552  0.3821
12867TIP3   OH260015   2.501   2.318  15.301  0.1800  0.1705  0.0757
12867TIP3    H160016   2.497   2.323  15.205  1.1077  1.2166  0.0737
12867TIP3    H260017   2.446   2.390  15.331  0.9109  0.6436  0.3037
12868TIP3   OH260018   4.653   2.380   2.745 -0.2826  0.3037 -0.1412
12868TIP3    H160019   4.719   2.324   2.706  0.3613 -0.2689  1.6819
12868TIP3    H260020   4.585   2.319   2.776  0.0910  0.5559  1.2287
12869TIP3   OH260021   4.283   2.302  14.314 -0.0790 -0.2520  0.0167
12869TIP3    H160022   4.240   2.386  14.333  0.1387  0.0221 -0.6580
12869TIP3    H260023   4.354   2.325  14.253  0.4108 -0.8347  0.3558
12870TIP3   OH260024   1.449   1.395  14.651 -0.6156  0.1421 -0.3160
12870TIP3    H160025   1.522   1.437  14.605  1.5898 -2.4735  0.4557
12870TIP3    H260026   1.385   1.376  14.583  1.0793 -0.6640 -1.7581
12871TIP3   OH260027   1.979   4.824   2.921 -0.3717 -0.2907  0.5535
12871TIP3    H160028   1.889   4.825   2.953 -0.8732  0.3518 -0.7553
12871TIP3    H260029   2.003   4.917   2.918 -0.0745 -0.3855 -0.1483
12872TIP3   OH260030   6.637   6.139  15.815  0.1744  0.5947  0.2009
12872TIP3    H160031   6.545   6.150  15.838  0.4788  1.2515  1.1530
12872TIP3    H260032   6.668   6.226  15.792  0.7387  0.5184  0.6177
12873TIP3   OH260033   5.701   6.418   3.237  0.3871  0.1244 -0.1559
12873TIP3    H160034   5.643   6.476   3.285 -0.0643  1.5322 -2.2874
12873TIP3    H260035   5.779   6.470   3.220  0.7420 -0.5155 -0.5261
12874TIP3   OH260036   0.357   4.980   2.501 -0.0553 -0.4319 -0.5527
12874TIP3    H160037   0.317   4.945   2.421  2.0300  1.3395 -2.4963
12874TIP3    H260038   0.435   4.927   2.513 -0.1504 -0.4283  0.0967
12875TIP3   OH260039   5.646   6.057   5.464  0.0923  0.1109  0.2572
12875TIP3    H160040   5.659   6.111   5.543 -0.1789 -0.2404  0.5404
12875TIP3    H260041   5.697   6.102   5.397  1.6238 -0.4338  1.0067
12876TIP3   OH260042   2.822   3.370  13.527  0.9460  0.0502 -0.2971
12876TIP3    H160043   2.784   3.435  13.586  0.7701 -0.6545  0.3974
12876TIP3    H260044   2.848   3.298  13.585 -0.5040 -1.2827 -1.2051
12877TIP3   OH260045   5.036   4.573   2.414  0.4877 -0.4513  0.3042
12877TIP3    H160046   5.047   4.478   2.410  1.4840 -0.3570  0.5638
12877TIP3    H260047   4.948   4.588   2.380  1.2080 -1.2778 -2.2117
12878TIP3   OH260048   2.412   3.998   3.261  0.5057  0.0385 -0.2751
12878TIP3    H160049   2.468   3.937   3.309  0.3153 -0.3417 -0.5351
12878TIP3    H260050   2.349   4.029   3.326  1.3094  0.8450  0.1428
12879TIP3   OH260051   0.385   4.620   3.875  0.0004  0.3296  0.3254
12879TIP3    H160052   0.395   4.598   3.968 -2.0271  0.3279  0.5947
12879TIP3    H260053   0.332   4.549   3.840  0.1947  0.6751 -0.6830
12880TIP3   OH260054   3.211   4.915   5.186  0.2300  0.0542 -0.1386
12880TIP3    H160055   3.278   4.848   5.179  1.7853  1.3846  1.2436
12880TIP3    H260056   3.219   4.948   5.275 -3.0192 -0.4428  0.4802
12881TIP3   OH260057   1.517   1.968  16.471  0.1296  0.5545  0.2051
12881TIP3    H160058   1.571   1.975  16.392 -0.0685  2.5869  0.1906
12881TIP3    H260059   1.464   1.890  16.456  0.6018  0.4851 -1.3623
12882TIP3   OH260060   4.360   2.222  12.531 -0.5362  0.0555  0.1747
12882TIP3    H160061   4.345   2.133  12.499  1.6549  0.3066 -1.7389
12882TIP3    H260062   4.434   2.215  12.590 -0.8491  0.5156  0.6393
12883TIP3   OH260063   4.287   0.503  15.598  0.5384 -0.5320  0.1637
12883TIP3    H160064   4.320   0.563  15.531 -0.3703  0.4895  0.5931
12883TIP3    H260065   4.209   0.547  15.633  2.4338  0.3090  3.7922
12884TIP3   OH260066   5.218   3.393   4.207 -0.7282 -0.3354  0.3921
12884TIP3    H160067   5.271   3.319   4.237  0.0823  0.6307  1.4495
12884TIP3    H260068   5.210   3.380   4.112  0.9593 -0.8206  0.2692
12885TIP3   OH260069   5.220   4.975  12.578 -0.7084 -0.7298 -0.6252
12885TIP3    H160070   5.221   4.896  12.525 -0.9443  0.0326 -1.7959
12885TIP3    H260071   5.272   5.038  12.529 -0.9742  0.0158  0.0183
12886TIP3   OH260072   1.093   6.057  12.115 -0.5746 -0.3912  0.6465
12886TIP3    H160073   1.038   6.091  12.044  0.8433  3.2304  1.0233
12886TIP3    H260074   1.064   6.105  12.193  1.9383  0.5029  1.1577
12887TIP3   OH260075   0.520   3.144  13.364  0.1920 -0.1310  0.2065
12887TIP3    H160076   0.499   3.158  13.271  0.3087 -1.4495 -0.0374
12887TIP3    H260077   0.471   3.065  13.388  0.4879 -0.0327  1.1641
12888TIP3   OH260078   5.395   1.157  14.518 -0.6241  0.0078  0.3660
12888TIP3    H160079   5.345   1.190  14.592  2.6982  3.4167  1.4483
12888TIP3    H260080   5.351   1.193  14.441  0.7433  4.4541  1.3613
12889TIP3   OH260081   4.726   2.059   1.124 -0.5846  0.5850  0.4395
12889TIP3    H160082   4.786   2.020   1.188  0.4208  1.5524  0.1297
12889TIP3    H260083   4.702   1.987   1.067  1.9207  0.5070 -0.6507
12890TIP3   OH260084   0.457   4.090  12.225  0.3927  0.3189  0.4840
12890TIP3    H160085   0.466   4.123  12.314 -0.8362  1.4810  0.2112
12890TIP3    H260086   0.371   4.048  12.223  0.2424  0.6333 -0.2343
12891TIP3   OH260087   0.839   2.479  16.859  0.5825 -0.4710 -0.5717
12891TIP3    H160088   0.913   2.467  16.919 -0.3520  1.6970  1.1416
12891TIP3    H260089   0.778   2.409  16.883  0.3608  0.1732  0.8454
12892TIP3   OH260090   3.710   2.408   4.215  0.4035  0.3644  0.1818
12892TIP3    H160091   3.670   2.426   4.301  0.3969  1.7408 -0.0835
12892TIP3    H260092   3.784   2.468   4.210  1.2133 -0.6529 -0.2385
12893TIP3   OH260093   1.427   0.273   4.902 -0.2405 -0.0395 -0.1388
12893TIP3    H160094   1.368   0.264   4.977  0.1100  0.7261  0.2355
12893TIP3    H260095   1.403   0.356   4.862  0.9753  0.5872  0.3837
12894TIP3   OH260096   6.225   3.968  16.267  0.3030  0.3233  0.0988
12894TIP3    H160097   6.215   3.937  16.357  1.2131 -0.0835  0.0629
12894TIP3    H260098   6.228   4.063  16.275  0.7342  0.2755  0.5364
12895TIP3   OH260099   3.924   2.834  11.411 -0.5391  0.5346 -0.3910
12895TIP3    H160100   3.873   2.915  11.405 -1.1152  0.1826 -0.2396
12895TIP3    H260101   3.940   2.809  11.320 -0.1310  0.9566 -0.4415
12896TIP3   OH260102   0.711   3.414  15.971 -0.3737 -0.1877 -0.3890
12896TIP3    H160103   0.653   3.413  15.894 -0.8001 -0.2479 -0.0701
12896TIP3    H260104   0.761   3.332  15.964  0.6222  0.4753 -1.3703
12897TIP3   OH260105   6.062   4.775  12.204 -0.3856  0.1220 -0.5425
12897TIP3    H160106   5.976   4.817  12.196 -0.7754  0.6776  4.0672
12897TIP3    H260107   6.124   4.846  12.190 -0.9070  1.0886  1.7036
12898TIP3   OH260108   3.992   1.953  11.802 -0.2003 -0.9263  0.0736
12898TIP3    H160109   4.073   1.968  11.753  0.0610 -0.2341  0.7072
12898TIP3    H260110   3.924   1.991  11.748  0.0009 -0.7737 -0.0754
12899TIP3   OH260111   2.385   1.167  13.685  0.9505  0.0406 -0.6146
12899TIP3    H160112   2.297   1.141  13.714  0.4358  2.3200  0.0625
12899TIP3    H260113   2.442   1.140  13.757  0.2949  1.5799  0.5311
12900TIP3   OH260114   2.257   2.139  16.814  0.3223 -0.0245 -0.3578
12900TIP3    H160115   2.205   2.180  16.883 -0.0994 -0.9051 -0.1322
12900TIP3    H260116   2.198   2.076  16.774  0.9832 -0.5033 -0.6042
12901TIP3   OH260117   1.379   4.952  17.212 -0.0271 -0.3547  0.9409
12901TIP3    H160118   1.284   4.962  17.209 -0.1036 -1.2400 -0.6050
12901TIP3    H260119   1.405   4.996  17.293 -1.9219 -1.5430  2.2896
12902TIP3   OH260120   6.485   4.257  12.204  0.1829 -0.4505  0.2094
12902TIP3    H160121   6.436   4.196  12.258  1.2796 -1.6051 -0.0473
12902TIP3    H260122   6.485   4.339  12.253  0.2982 -1.1867  1.4687
12903TIP3   OH260123   3.038   6.401  11.190 -0.3400  0.0368  0.6009
12903TIP3    H160124   2.980   6.469  11.156 -0.7296  0.1158  1.3798
12903TIP3    H260125   3.094   6.378  11.117 -0.1281  1.2766  0.3397
12904TIP3   OH260126   5.032   4.119   3.778  0.0100 -0.6573 -0.4359
12904TIP3    H160127   4.987   4.134   3.695  1.3342  0.1077 -1.0254
12904TIP3    H260128   5.057   4.206   3.808 -1.6073 -0.7718  1.4726
12905TIP3   OH260129   4.718   6.568  12.817  1.0154 -0.1586  0.4574
12905TIP3    H160130   4.660   6.526  12.880  2.4415 -0.8944  1.3240
12905TIP3    H260131   4.715   6.510  12.740 -0.3952  0.5171 -0.0277
12906TIP3   OH260132   5.830   1.140   4.064  0.4008  0.6692 -0.0967
12906TIP3    H160133   5.832   1.236   4.055 -0.7564  0.6712 -0.4701
12906TIP3    H260134   5.832   1.108   3.974 -0.3702  0.3748 -0.0112
12907TIP3   OH260135   3.542   6.282   3.791 -0.0835 -0.1929  0.2858
12907TIP3    H160136   3.582   6.369   3.789  0.4339 -0.3797 -2.7597
12907TIP3    H260137   3.448   6.299   3.781  0.1101  0.0679 -1.5068
12908TIP3   OH260138   1.447   5.986  15.550 -0.1981 -0.1955  0.1623
12908TIP3    H160139   1.501   6.055  15.511  0.2985 -0.8332 -0.3235
12908TIP3    H260140   1.362   5.995  15.506 -0.7809  1.3157  1.4970
12909TIP3   OH260141   1.571   2.872  13.844 -0.6939  0.5161  0.7165
12909TIP3    H160142   1.614   2.939  13.897  0.8559 -0.1869  0.3879
12909TIP3    H260143   1.514   2.921  13.785  0.1062  1.5108  0.7443
12910TIP3   OH260144   1.034   2.252   1.547  0.1605  0.3330 -0.2268
12910TIP3    H160145   1.023   2.263   1.642  1.5710  1.2293 -0.1279
12910TIP3    H260146   1.036   2.158   1.534 -1.8927  0.1593  0.3735
12911TIP3   OH260147   2.224   3.228   3.732 -0.3886 -0.1794 -0.0161
12911TIP3    H160148   2.293   3.228   3.665 -0.0083  1.0069  0.3445
12911TIP3    H260149   2.161   3.292   3.701  0.4807  1.4572  1.3960
12912TIP3   OH260150   5.582   2.994  17.165  0.1749  0.1211 -0.3847
12912TIP3    H160151   5.572   2.899  17.167  0.2396  0.0994 -0.9524
12912TIP3    H260152   5.568   3.022  17.256  0.7189 -0.4820 -0.1143
12913TIP3   OH260153   6.607   5.901  15.936  0.2043 -0.2566 -0.1221
12913TIP3    H160154   6.701   5.884  15.942  0.2867  0.6960  2.6223
12913TIP3    H260155   6.600   5.982  15.886  0.8188 -0.4114 -0.4642
12914TIP3   OH260156   5.981   4.138  13.265 -0.0765 -0.3236 -0.0011
12914TIP3    H160157   5.943   4.051  13.261  2.4694 -1.5045 -0.4376
12914TIP3    H260158   6.020   4.152  13.179  0.3351  0.8620  0.3514
12915TIP3   OH260159   6.443   4.291   3.301  0.0482 -0.0187 -0.0073
12915TIP3    H160160   6.389   4.288   3.222 -0.5830 -0.1923  0.4197
12915TIP3    H260161   6.483   4.204   3.306  0.2558  0.0614 -0.2443
12916TIP3   OH260162   2.069   4.468  12.824 -0.2879  0.3014 -0.0533
12916TIP3    H160163   2.141   4.418  12.785 -0.8227  1.6718 -3.0891
12916TIP3    H260164   2.086   4.558  12.798 -2.3929  0.8651  0.3583
12917TIP3   OH260165   5.615   1.946  13.015  0.4073  0.2483 -0.1468
12917TIP3    H160166   5.666   1.877  13.057 -2.8099 -1.8615  0.6878
12917TIP3    H260167   5.615   1.922  12.922  1.7144  0.9071 -0.3494
12918TIP3   OH260168   0.481   5.840  14.632 -0.5968  0.0348 -0.0957
12918TIP3    H160169   0.490   5.745  14.636 -1.6228 -0.0829 -0.2456
12918TIP3    H260170   0.548   5.868  14.570  1.0903 -0.3555  1.4734
12919TIP3   OH260171   6.222   0.707   0.367 -0.0341  0.3215  0.2352
12919TIP3    H160172   6.188   0.768   0.301  2.8358  0.7739 -0.9501
12919TIP3    H260173   6.190   0.742   0.450 -0.4956  2.0410 -0.6182
12920TIP3   OH260174   2.309   4.792  14.079  0.1331  0.4065  0.0172
12920TIP3    H160175   2.370   4.781  14.152 -0.3987  1.1303  0.5984
12920TIP3    H260176   2.223   4.793  14.121 -0.1606  1.1390 -0.5801
12921TIP3   OH260177   4.271   0.513  10.562  0.0764 -0.1194  0.1394
12921TIP3    H160178   4.255   0.492  10.654  2.4104 -0.2135  0.5732
12921TIP3    H260179   4.262   0.608  10.557  0.0204 -0.1063  0.4834
12922TIP3   OH260180   5.879   1.583  13.453 -0.3122  0.5682 -0.1683
12922TIP3    H160181   5.937   1.591  13.529 -0.1211  0.2886 -0.2841
12922TIP3    H260182   5.791   1.587  13.489 -0.2218  0.6227  0.0478
12923TIP3   OH260183   0.761   4.872   1.013 -0.2683 -0.4847 -0.0106
12923TIP3    H160184   0.815   4.851   1.090 -0.0045  1.2937  0.3216
12923TIP3    H260185   0.810   4.940   0.967 -2.0875  1.0122  0.1542
12924TIP3   OH260186   1.626   0.525  14.349  0.4669 -0.8589 -0.1144
12924TIP3    H160187   1.719   0.545  14.348  0.2711  0.1083 -1.1186
12924TIP3    H260188   1.605   0.500  14.259 -0.3470 -0.4657 -0.0510
12925TIP3   OH260189   3.616   3.959  15.820 -0.1532 -0.1315 -0.5761
12925TIP3    H160190   3.576   3.999  15.743 -0.2511  2.7258  0.8430
12925TIP3    H260191   3.704   3.996  15.823 -0.3983  0.3899  1.0589
12926TIP3   OH260192   4.187   5.932  15.940  0.2131  0.5015  0.0232
12926TIP3    H160193   4.167   5.839  15.938 -0.2953  0.5822  0.7787
12926TIP3    H260194   4.101   5.975  15.937  0.3835  0.9141  0.7885
12927TIP3   OH260195   4.902   0.822  16.421 -0.0822 -1.0464 -0.2520
12927TIP3    H160196   4.994   0.845  16.409 -0.6978  1.7426 -0.4257
12927TIP3    H260197   4.894   0.803  16.515  0.5664 -0.7262 -0.1275
12928TIP3   OH260198   2.483   5.697  17.169  0.3249 -0.2356  0.5790
12928TIP3    H160199   2.551   5.716  17.234 -0.3568 -0.8249  1.4828
12928TIP3    H260200   2.435   5.779  17.161  2.4776  0.9699 -1.8069
12929TIP3   OH260201   3.901   1.749   5.229 -0.4658 -0.4734 -0.3341
12929TIP3    H160202   3.834   1.813   5.206  0.9500  0.5897 -1.7006
12929TIP3    H260203   3.888   1.677   5.167 -0.3182 -0.2439 -0.6336
12930TIP3   OH260204   5.161   5.255  11.942  0.4433  0.3059 -0.2058
12930TIP3    H160205   5.171   5.227  12.033  0.9775 -0.0547 -0.3718
12930TIP3    H260206   5.210   5.190  11.892 -0.5883 -0.0217 -0.8327
12931TIP3   OH260207   0.179   0.856  15.723  0.2643  0.4995  0.0864
12931TIP3    H160208   0.135   0.873  15.807  0.2824  2.5097 -0.2720
12931TIP3    H260209   0.125   0.788  15.682 -0.1099 -0.0613  1.4338
12932TIP3   OH260210   6.077   2.755  15.947  0.2061  0.2634  0.4894
12932TIP3    H160211   6.041   2.667  15.936  0.3686  0.3205 -0.6499
12932TIP3    H260212   6.104   2.758  16.039 -1.5522 -0.1950  1.0559
12933TIP3   OH260213   4.681   6.097   1.995  0.1291  0.3345  0.5616
12933TIP3    H160214   4.592   6.129   2.010 -0.8989 -1.2977 -1.6043
12933TIP3    H260215   4.696   6.035   2.066 -0.6338  0.2945  0.7015
12934TIP3   OH260216   6.009   0.114   3.744 -0.2168  0.1640  0.5537
12934TIP3    H160217   6.036   0.066   3.822  3.1344  1.5763  0.4321
12934TIP3    H260218   6.048   0.065   3.671  2.2116  2.2067  0.3482
12935TIP3   OH260219   2.178   1.806  17.010  0.4654  0.0342 -0.1147
12935TIP3    H160220   2.243   1.793  16.940  0.7387 -0.6194  0.2527
12935TIP3    H260221   2.230   1.810  17.090  0.1878  1.2280  0.0131
12936TIP3   OH260222   4.159   4.041   1.950  0.3801 -0.1790  0.0152
12936TIP3    H160223   4.116   4.122   1.977  0.8339  0.3146 -0.7166
12936TIP3    H260224   4.248   4.049   1.984  1.1865  0.7853 -2.1608
12937TIP3   OH260225   0.041   6.239  13.510  0.1804 -0.8130  0.4423
12937TIP3    H160226   0.037   6.179  13.585  1.6960 -0.2837  0.9783
12937TIP3    H260227   0.134   6.243  13.488  0.2350  1.9170  0.8946
12938TIP3   OH260228   0.673   2.908  12.460 -0.5273  0.4487  0.0811
12938TIP3    H160229   0.672   2.990  12.410  1.9737 -1.0622 -2.7446
12938TIP3    H260230   0.607   2.853  12.417 -0.3474  0.0822  0.2699
12939TIP3   OH260231   4.504   5.111  14.549  0.6290 -0.1614  0.3262
12939TIP3    H160232   4.547   5.170  14.488  0.1249 -0.0123  0.1144
12939TIP3    H260233   4.425   5.158  14.577 -1.3852 -1.8403 -2.0738
12940TIP3   OH260234   4.510   0.080   0.818 -0.0141  0.0484  0.2209
12940TIP3    H160235   4.437   0.132   0.852 -0.4700 -0.2503 -0.2693
12940TIP3    H260236   4.566   0.064   0.893 -1.3695 -1.2201  1.0129
12941TIP3   OH260237   0.473   1.704   0.205 -0.8838 -0.0440  0.1093
12941TIP3    H160238   0.478   1.661   0.291 -1.6568  1.5575  0.9919
12941TIP3    H260239   0.443   1.792   0.224 -1.6309  0.1760 -1.8886
12942TIP3   OH260240   1.180   6.419  11.641  0.2702 -0.0296  0.0089
12942TIP3    H160241   1.165   6.326  11.658 -0.9485  0.1654  0.1225
12942TIP3    H260242   1.269   6.435  11.673 -0.0287 -0.8441  1.3520
12943TIP3   OH260243   3.977   5.193   4.651  0.0422 -0.1587 -0.5023
12943TIP3    H160244   3.968   5.098   4.659 -1.6089  0.0432  0.4153
12943TIP3    H260245   3.891   5.223   4.623  0.3456  1.1368 -0.1169
12944TIP3   OH260246   2.952   3.666   4.648  0.1384  0.2088  0.3181
12944TIP3    H160247   3.031   3.719   4.641 -1.1981  2.4241  0.7404
12944TIP3    H260248   2.901   3.689   4.571 -1.5466  1.5230  1.7305
12945TIP3   OH260249   2.957   2.328   3.592  0.2074 -0.5283 -0.1263
12945TIP3    H160250   3.014   2.354   3.664 -0.7720  0.3281  0.3629
12945TIP3    H260251   3.016   2.287   3.528  1.2571 -0.2631  0.6471
12946TIP3   OH260252   2.849   0.314  15.180  0.0687 -0.5009 -0.2707
12946TIP3    H160253   2.765   0.325  15.226  0.1021 -1.6240  0.1024
12946TIP3    H260254   2.868   0.400  15.144  0.0499  0.4555  1.8618
12947TIP3   OH260255   1.416   5.253  16.218  0.2051 -0.6702  0.4749
12947TIP3    H160256   1.503   5.217  16.236  0.2799 -1.7193 -1.6881
12947TIP3    H260257   1.359   5.177  16.209 -0.8080 -0.0153  1.1383
12948TIP3   OH260258   2.007   3.822   2.591  0.2080 -0.3580 -0.2492
12948TIP3    H160259   2.097   3.790   2.599 -0.5115 -2.3517  0.6099
12948TIP3    H260260   1.988   3.818   2.498  1.5392  1.7746 -0.6695
12949TIP3   OH260261   1.515   5.320  13.376  0.1618  0.6559  0.0004
12949TIP3    H160262   1.509   5.401  13.326 -0.3636  1.4568  1.2860
12949TIP3    H260263   1.543   5.349  13.463  0.1560 -0.5736  0.4216
12950TIP3   OH260264   6.405   5.630   1.454  0.0862 -0.2081 -0.3459
12950TIP3    H160265   6.381   5.606   1.544  1.7508 -1.0667 -0.0815
12950TIP3    H260266   6.499   5.613   1.450  0.0342 -0.2085 -2.2632
12951TIP3   OH260267   0.190   2.868   5.158 -0.1925  0.2407 -0.0713
12951TIP3    H160268   0.282   2.847   5.170  0.1893  1.3290 -0.9267
12951TIP3    H260269   0.151   2.788   5.123  0.2115 -0.5357  1.1890
12952TIP3   OH260270   3.782   5.770  15.396 -0.2101 -0.4588 -0.3126
12952TIP3    H160271   3.818   5.693  15.438  0.6134 -0.0549 -0.2665
12952TIP3    H260272   3.688   5.767  15.416 -0.1734 -1.4056 -0.2615
12953TIP3   OH260273   4.467   1.802   1.301 -0.3680 -0.4580  0.0588
12953TIP3    H160274   4.440   1.860   1.372  1.8487 -0.0342  0.6511
12953TIP3    H260275   4.495   1.722   1.345 -0.5360 -0.8222 -0.4891
12954TIP3   OH260276   1.812   2.108  13.647  0.5176 -0.5844 -0.8893
12954TIP3    H160277   1.860   2.108  13.729 -0.8663  2.5869  0.0833
12954TIP3    H260278   1.726   2.072  13.669  0.8774 -1.9314 -1.5569
12955TIP3   OH260279   4.826   0.615  13.571  0.1996 -0.4167 -0.2928
12955TIP3    H160280   4.918   0.599  13.590 -0.1560 -1.2795  0.7681
12955TIP3    H260281   4.780   0.597  13.653 -1.0467 -1.2402 -1.1396
12956TIP3   OH260282   1.981   3.629   4.185 -0.2244  0.2752  0.0544
12956TIP3    H160283   1.976   3.617   4.090 -0.4748  2.4239 -0.2594
12956TIP3    H260284   1.911   3.574   4.220  0.5901 -1.4230 -0.8773
12957TIP3   OH260285   4.156   2.680   4.552 -0.4638  0.4369  0.2202
12957TIP3    H160286   4.149   2.709   4.643  0.5447  1.6102 -0.0462
12957TIP3    H260287   4.229   2.618   4.552 -0.1000  0.8581  0.1287
12958TIP3   OH260288   0.786   4.564  11.847  0.1954  0.4142 -0.1643
12958TIP3    H160289   0.718   4.548  11.781  1.8725 -1.7210 -1.5583
12958TIP3    H260290   0.859   4.600  11.797  1.1851 -0.3661  0.6640
12959TIP3   OH260291   6.575   1.491  13.551  0.7078 -0.6243  0.6460
12959TIP3    H160292   6.629   1.437  13.608  0.9824 -0.4940  0.5080
12959TIP3    H260293   6.636   1.528  13.487  0.4209 -0.6769  0.3384
12960TIP3   OH260294   3.383   0.166   5.688  0.1699  0.3167  0.4211
12960TIP3    H160295   3.309   0.118   5.725 -1.0139  1.3316 -0.5406
12960TIP3    H260296   3.381   0.251   5.733  0.1123  0.7176 -0.3231
12961TIP3   OH260297   4.112   4.403   0.463  0.1184  0.7274  0.2905
12961TIP3    H160298   4.202   4.427   0.440  0.1621 -0.5997 -1.0902
12961TIP3    H260299   4.057   4.459   0.407  0.1805 -0.5853 -1.1564
12962TIP3   OH260300   5.272   0.684  14.073  0.4074 -0.4839  0.3228
12962TIP3    H160301   5.349   0.685  14.129 -0.3255 -1.0497  1.3681
12962TIP3    H260302   5.224   0.764  14.095 -0.0862 -0.9052  0.8294
12963TIP3   OH260303   1.653   4.361  12.189 -0.2557  0.6970  0.1708
12963TIP3    H160304   1.568   4.387  12.152 -0.3734 -1.0715 -0.8973
12963TIP3    H260305   1.632   4.325  12.275 -0.6325  0.0020 -0.2078
12964TIP3   OH260306   5.639   1.050  14.979 -0.0285 -0.5682 -0.5436
12964TIP3    H160307   5.588   1.086  14.906 -0.9130 -1.9290 -0.6265
12964TIP3    H260308   5.663   0.962  14.951  3.7447  0.4578 -1.1552
12965TIP3   OH260309   5.405   1.192   6.383  0.0542 -0.2472 -0.0816
12965TIP3    H160310   5.450   1.226   6.460  0.4234  0.0081 -0.4098
12965TIP3    H260311   5.324   1.243   6.378 -0.6288 -1.1716  0.9064
12966TIP3   OH260312   0.099   6.272   6.001 -0.1840  0.5157  0.4914
12966TIP3    H160313   0.012   6.239   5.981  0.1717  0.8565 -1.9824
12966TIP3    H260314   0.150   6.254   5.922  1.4203  2.2058  1.0621
12967TIP3   OH260315   6.021   2.277   2.032  0.3236  0.0330 -0.4103
12967TIP3    H160316   5.947   2.270   1.973 -0.7378 -1.3576  1.0028
12967TIP3    H260317   6.039   2.187   2.059  1.1264  0.5601  0.9359
12968TIP3   OH260318   6.293   4.224  14.489  0.3116 -0.4475 -0.0936
12968TIP3    H160319   6.340   4.149  14.524  0.7041 -0.2216 -0.1380
12968TIP3    H260320   6.294   4.288  14.561  0.5698 -0.2241 -0.2981
12969TIP3   OH260321   6.256   1.919  14.600  0.6229  0.1079 -0.3159
12969TIP3    H160322   6.295   1.842  14.641 -0.2562 -0.5916 -0.7575
12969TIP3    H260323   6.177   1.937  14.652  0.1563 -0.0500 -0.9533
12970TIP3   OH260324   4.646   3.442  14.219 -1.1349  0.1401 -0.4300
12970TIP3    H160325   4.695   3.521  14.197 -2.4776  1.1818  0.1983
12970TIP3    H260326   4.696   3.371  14.179 -0.5400  1.4080 -2.0345
12971TIP3   OH260327   3.343   3.571  13.643 -0.5090  0.2993  0.1618
12971TIP3    H160328   3.414   3.621  13.603  1.8889 -1.2087  2.2275
12971TIP3    H260329   3.291   3.637  13.689  0.1462  1.3369 -0.5316
12972TIP3   OH260330   0.351   0.594   0.616 -0.1462 -0.1199  0.5266
12972TIP3    H160331   0.357   0.556   0.528  0.0231  1.0359  0.0146
12972TIP3    H260332   0.352   0.519   0.675 -0.1276 -0.9122 -0.4529
12973TIP3   OH260333   4.967   5.556   5.987  0.2748 -0.0738  0.0670
12973TIP3    H160334   4.934   5.544   5.898 -1.0815  0.6704  0.4362
12973TIP3    H260335   4.945   5.647   6.008 -0.0730 -0.4488  1.4118
12974TIP3   OH260336   5.040   1.677  15.397  0.0973 -0.1358 -0.3518
12974TIP3    H160337   5.033   1.588  15.362 -0.2373  0.1987 -1.1489
12974TIP3    H260338   5.053   1.732  15.320  0.3292  0.5042  0.1423
12975TIP3   OH260339   2.654   2.048   4.507  0.0561 -0.3869 -0.4480
12975TIP3    H160340   2.615   2.116   4.454  0.4616  0.5233  0.3903
12975TIP3    H260341   2.606   2.052   4.590  1.1003 -0.0887  0.1468
12976TIP3   OH260342   4.730   1.659  11.884 -0.0610  0.1048  0.7161
12976TIP3    H160343   4.766   1.574  11.911 -0.2291 -0.6702 -1.3721
12976TIP3    H260344   4.806   1.708  11.854 -0.0959  0.3506  1.0234
12977TIP3   OH260345   4.930   5.194   3.402 -0.0521  0.0376  0.2262
12977TIP3    H160346   4.895   5.198   3.491 -0.4722  0.2313  0.0569
12977TIP3    H260347   4.955   5.102   3.390  2.0269  0.4086  1.2973
12978TIP3   OH260348   0.080   0.321   0.381  0.6559 -0.3027 -0.2931
12978TIP3    H160349   0.077   0.394   0.443 -0.0459 -2.1685  2.0373
12978TIP3    H260350  -0.003   0.326   0.334  0.6758  0.4622 -0.2526
12979TIP3   OH260351   5.226   3.070  14.293  0.0883  0.1350 -0.4649
12979TIP3    H160352   5.154   3.024  14.337  1.8435  0.0369  2.6081
12979TIP3    H260353   5.197   3.160  14.286 -2.0199 -0.6190 -3.4315
12980TIP3   OH260354   6.471   5.447  14.624 -0.3406  0.2361 -0.7121
12980TIP3    H160355   6.455   5.526  14.676 -2.2547 -0.2736 -0.4733
12980TIP3    H260356   6.440   5.469  14.537  0.5759  0.2416 -1.0541
12981TIP3   OH260357   1.133   2.247   0.970  0.0114  0.1026  0.3239
12981TIP3    H160358   1.084   2.328   0.959 -3.2482 -1.7406 -0.0359
12981TIP3    H260359   1.178   2.233   0.886 -0.7040  0.7450 -0.1704
12982TIP3   OH260360   2.633   0.934  17.541  0.0423 -0.5464  0.1649
12982TIP3    H160361   2.572   0.890  17.481  0.9679  0.1452 -1.3411
12982TIP3    H260362   2.714   0.885  17.535  0.3794 -0.0164  0.2632
12983TIP3   OH260363   0.806   2.276  13.856  0.1571  0.6864 -0.1319
12983TIP3    H160364   0.740   2.345  13.864  0.1267  0.5584  0.7920
12983TIP3    H260365   0.875   2.315  13.802 -0.9310  0.6113 -1.6483
12984TIP3   OH260366   6.321   3.287  12.999  0.0894 -0.2249  0.8689
12984TIP3    H160367   6.264   3.356  13.033 -0.4143 -0.0027 -0.4064
12984TIP3    H260368   6.273   3.206  13.016 -0.4099 -0.0736  0.2066
12985TIP3   OH260369   5.815   5.819   3.915 -0.3393 -0.1967  0.0371
12985TIP3    H160370   5.815   5.747   3.851 -1.0077  0.5375 -0.8177
12985TIP3    H260371   5.788   5.895   3.864 -0.8094  0.4257  1.1998
12986TIP3   OH260372   3.845   1.507   0.758  0.0827 -0.2852  0.1545
12986TIP3    H160373   3.802   1.427   0.788 -2.1809  0.9977  0.5762
12986TIP3    H260374   3.898   1.480   0.683 -0.3064 -2.2370  0.5479
12987TIP3   OH260375   5.021   2.875  13.499 -0.4170 -0.1435 -0.3030
12987TIP3    H160376   5.030   2.938  13.428 -0.5812  0.1953 -0.0334
12987TIP3    H260377   4.943   2.825  13.476 -0.7004  0.2279 -0.1721
12988TIP3   OH260378   5.493   5.581  12.883  0.2555  0.0920 -0.3415
12988TIP3    H160379   5.468   5.517  12.949 -2.1195  1.6220  0.3989
12988TIP3    H260380   5.524   5.656  12.933 -1.8136  1.3743 -0.8298
12989TIP3   OH260381   2.091   4.062   2.762  0.3836 -0.0671 -0.1958
12989TIP3    H160382   2.054   4.002   2.698 -1.2398  1.3630 -0.6479
12989TIP3    H260383   2.040   4.142   2.754  1.6590  0.9695  1.2715
12990TIP3   OH260384   4.768   5.490  11.756  0.1134 -0.2657  0.1610
12990TIP3    H160385   4.856   5.466  11.787  0.6366 -0.0451 -1.0879
12990TIP3    H260386   4.726   5.530  11.831  0.2104 -2.5203  1.5183
12991TIP3   OH260387   2.652   5.466  13.309  0.4690 -1.0428  0.0645
12991TIP3    H160388   2.652   5.376  13.341  0.8478 -1.5112 -1.2272
12991TIP3    H260389   2.663   5.459  13.215  0.6050  0.3697 -0.0510
12992TIP3   OH260390   0.236   5.240   1.095 -0.1202  0.2547 -0.9967
12992TIP3    H160391   0.222   5.334   1.096  1.9511  0.6064 -1.2458
12992TIP3    H260392   0.265   5.220   1.006  1.2321 -0.2980 -0.4645
12993TIP3   OH260393   2.902   2.332  11.835  0.1225  0.0328 -0.6923
12993TIP3    H160394   2.973   2.384  11.871 -0.3620  0.2226  0.0207
12993TIP3    H260395   2.847   2.395  11.789 -0.3095  0.1139 -0.0749
12994TIP3   OH260396   1.797   2.463  17.478  0.0176  0.3487 -0.0665
12994TIP3    H160397   1.802   2.371  17.502  0.8535  0.4541  0.2249
12994TIP3    H260398   1.708   2.490  17.502  0.5726  0.2770  2.3940
12995TIP3   OH260399   2.115   5.849   1.408  0.8754 -0.5503 -0.1014
12995TIP3    H160400   2.185   5.806   1.456 -0.5652 -3.6283 -0.5351
12995TIP3    H260401   2.088   5.921   1.465  2.1119 -1.4119  1.6642
12996TIP3   OH260402   2.139   4.627  11.524  0.4733  0.2137 -0.6477
12996TIP3    H160403   2.156   4.536  11.550  0.2540 -0.0718 -1.4854
12996TIP3    H260404   2.133   4.624  11.429 -4.2655  0.2348 -0.5934
12997TIP3   OH260405   4.958   1.971  12.880  0.0632  0.6025 -0.3324
12997TIP3    H160406   4.976   2.008  12.966  0.3072  0.5053 -0.3416
12997TIP3    H260407   5.026   1.905  12.867 -0.6782 -0.2257 -0.0903
12998TIP3   OH260408   0.946   5.425  11.618  0.3510 -0.6718 -0.5946
12998TIP3    H160409   1.013   5.472  11.569  0.2570  0.3999  0.2565
12998TIP3    H260410   0.864   5.447  11.575  0.1706  0.9803  0.5185
12999TIP3   OH260411   5.430   6.417  16.120  0.0826 -0.2995  0.1476
12999TIP3    H160412   5.507   6.395  16.067  0.7301 -1.1227  1.3953
12999TIP3    H260413   5.447   6.376  16.205 -1.3984  0.1467  0.6764
13000TIP3   OH260414   4.880   4.786  13.292  0.6401 -0.2542  0.2071
13000TIP3    H160415   4.914   4.788  13.382  0.4698 -0.3554  0.2750
13000TIP3    H260416   4.924   4.710  13.252  0.0457 -0.7475  0.4776
13001TIP3   OH260417   4.138   5.232  12.001 -0.5733  0.0407 -0.2702
13001TIP3    H160418   4.146   5.143  11.968 -0.1735 -0.1454  0.3154
13001TIP3    H260419   4.045   5.253  11.992 -0.9590 -1.0000  1.0412
13002TIP3   OH260420   3.575   1.673   5.270 -0.4357  0.4006 -0.5031
13002TIP3    H160421   3.631   1.750   5.272 -2.2433  1.8162  2.4340
13002TIP3    H260422   3.487   1.706   5.288 -1.5201 -2.1712 -0.6169
13003TIP3   OH260423   1.279   4.026  13.101 -0.5776 -0.8423 -1.0361
13003TIP3    H160424   1.371   4.014  13.124 -0.0532  0.3408 -2.3835
13003TIP3    H260425   1.235   4.040  13.185  0.5793 -0.7411 -0.4302
13004TIP3   OH260426   1.349   6.441  15.740  0.5195 -0.6609 -0.3194
13004TIP3    H160427   1.355   6.412  15.831 -1.3019  0.9694  0.3964
13004TIP3    H260428   1.259   6.419  15.714  1.1319 -1.4874 -1.9000
13005TIP3   OH260429   4.812   3.491  16.943  0.3597  0.2674 -0.2979
13005TIP3    H160430   4.817   3.403  16.907 -1.4620  1.0362 -2.6785
13005TIP3    H260431   4.885   3.538  16.903  2.0687 -0.3337  1.8772
13006TIP3   OH260432   0.029   0.069  16.911 -0.1409  0.1596 -0.4571
13006TIP3    H160433  -0.051   0.112  16.939 -1.1855 -1.0707 -1.4394
13006TIP3    H260434   0.017   0.054  16.817  1.4505  0.3937 -0.7236
13007TIP3   OH260435   5.354   2.543   4.986  0.1752  0.4684  0.8364
13007TIP3    H160436   5.302   2.554   4.907  0.4974 -0.1229  0.5383
13007TIP3    H260437   5.354   2.449   5.003 -0.0393  0.6063  1.6403
13008TIP3   OH260438   0.815   0.678  13.179  0.1119  0.3684 -0.1376
13008TIP3    H160439   0.720   0.676  13.189  0.0991  0.4023 -0.2547
13008TIP3    H260440   0.848   0.626  13.252 -0.0142  0.0055 -0.3410
13009TIP3   OH260441   1.160   4.877   0.961 -0.0003  0.0050  0.4521
13009TIP3    H160442   1.097   4.919   0.903  1.6493  1.3873 -0.4027
13009TIP3    H260443   1.110   4.857   1.040 -1.8601 -0.3230 -0.7478
13010TIP3   OH260444   6.701   2.162   5.615 -0.5261  0.4523 -0.4975
13010TIP3    H160445   6.687   2.254   5.636 -1.5428  0.3045 -0.5197
13010TIP3    H260446   6.795   2.156   5.597 -0.0860  1.0767  1.4546
13011TIP3   OH260447   3.919   4.200   6.652 -1.1156  0.0670 -0.3671
13011TIP3    H160448   3.899   4.111   6.623  1.6544 -0.9313  0.5188
13011TIP3    H260449   3.996   4.191   6.707  0.6121  3.2576 -2.0110
13012TIP3   OH260450   0.508   3.290  16.855  0.0360  0.2912  0.3308
13012TIP3    H160451   0.568   3.294  16.781 -0.1382  1.1403  0.2280
13012TIP3    H260452   0.560   3.320  16.930  0.1025 -0.1990  0.4827
13013TIP3   OH260453   1.561   5.077   1.648  0.0154 -0.2594 -0.0963
13013TIP3    H160454   1.655   5.088   1.635 -0.0245  1.1290  0.6683
13013TIP3    H260455   1.525   5.080   1.559  0.6552 -0.5627 -0.3783
13014TIP3   OH260456   3.122   3.140  15.558 -0.0714  0.1720  0.2453
13014TIP3    H160457   3.147   3.115  15.469  1.4686 -2.1140  1.2333
13014TIP3    H260458   3.194   3.196  15.587  0.4607 -0.7532  0.7316
13015TIP3   OH260459   5.838   2.552  17.284  0.2084  0.0349  0.1526
13015TIP3    H160460   5.806   2.564  17.195  2.3379 -0.2807 -0.7160
13015TIP3    H260461   5.802   2.467  17.311 -0.8760  0.3681 -0.1773
13016TIP3   OH260462   2.098   3.942  13.910 -0.0310 -0.1011  0.7994
13016TIP3    H160463   2.029   3.880  13.933 -0.7762  0.8843  1.3088
13016TIP3    H260464   2.136   3.968  13.994  0.2097  0.2025  0.5982
13017TIP3   OH260465   2.795   2.543   2.257 -0.1147 -0.1414  0.3605
13017TIP3    H160466   2.780   2.461   2.211 -0.5752  0.8788 -1.4307
13017TIP3    H260467   2.728   2.545   2.326  1.0175 -2.0047  1.5841
13018TIP3   OH260468   3.362   3.731   0.078  0.0240 -0.0547  0.5957
13018TIP3    H160469   3.423   3.665   0.111  1.1044  0.4091 -0.4255
13018TIP3    H260470   3.344   3.706  -0.012 -1.1252 -0.0317  0.7924
13019TIP3   OH260471   4.861   0.491   6.214  0.2367 -0.0692  0.5761
13019TIP3    H160472   4.857   0.422   6.147 -1.6526  2.2117 -1.9118
13019TIP3    H260473   4.784   0.475   6.269  1.0042 -1.1201  1.3955
13020TIP3   OH260474   1.859   6.389   5.226  0.6582  0.1906  0.3348
13020TIP3    H160475   1.876   6.300   5.196  0.1736  0.2859 -0.2373
13020TIP3    H260476   1.831   6.436   5.147  0.5584  0.7541  0.7023
13021TIP3   OH260477   6.298   0.378   4.831  0.3130  0.1282 -0.0316
13021TIP3    H160478   6.357   0.447   4.802  1.7832 -1.6087 -1.3693
13021TIP3    H260479   6.220   0.389   4.776  1.4580 -0.6317 -1.8855
13022TIP3   OH260480   0.393   4.519  12.099  0.0639  0.3629  0.1310
13022TIP3    H160481   0.455   4.523  12.026  1.4071  0.4050  1.2241
13022TIP3    H260482   0.357   4.608  12.105  2.3380  1.2926  1.4416
13023TIP3   OH260483   5.405   1.796   1.833 -0.4574  0.0263 -0.6996
13023TIP3    H160484   5.394   1.705   1.858  1.9513 -0.1134  0.1051
13023TIP3    H260485   5.375   1.846   1.909  0.0411 -0.1743 -0.3661
13024TIP3   OH260486   2.526   1.462   6.366 -0.1993  0.4754  0.1609
13024TIP3    H160487   2.561   1.490   6.451  0.4371  2.0474 -0.5600
13024TIP3    H260488   2.431   1.471   6.374 -0.3186 -1.3515  1.3219
13025TIP3   OH260489   2.890   5.469  14.998 -0.4835 -0.7653 -0.1083
13025TIP3    H160490   2.879   5.554  14.955  0.1864 -1.0335 -0.8228
13025TIP3    H260491   2.866   5.486  15.089 -0.3259  0.2054 -0.2310
13026TIP3   OH260492   3.292   5.031  12.154  0.4578  0.7084  0.2996
13026TIP3    H160493   3.318   5.114  12.193  1.1822  0.4145  0.4535
13026TIP3    H260494   3.280   5.051  12.061  0.6984  0.9687  0.3241
13027TIP3   OH260495   3.601   1.489   2.464 -0.2450 -0.7857 -0.9486
13027TIP3    H160496   3.520   1.539   2.463 -0.4031 -0.9154  1.3534
13027TIP3    H260497   3.670   1.554   2.480 -0.2298 -1.0324  0.0195
13028TIP3   OH260498   5.560   4.316   5.523  0.0462  0.2504  0.3576
13028TIP3    H160499   5.632   4.376   5.543 -0.5737  0.9196  0.5994
13028TIP3    H260500   5.493   4.335   5.589 -1.3598  1.3594 -1.3098
13029TIP3   OH260501   5.326   3.710  14.288 -0.1090 -0.0847  0.1293
13029TIP3    H160502   5.314   3.716  14.383 -1.0053 -0.4107  0.0523
13029TIP3    H260503   5.301   3.796  14.255 -0.1613 -0.0867  0.1630
13030TIP3   OH260504   1.733   4.666   2.189  0.2276  0.0246 -0.4847
13030TIP3    H160505   1.765   4.712   2.112 -0.8376  1.3597 -0.1786
13030TIP3    H260506   1.782   4.584   2.191  0.2093 -0.0815 -2.6185
13031TIP3   OH260507   2.687   6.245   0.840 -0.0513  0.4903 -0.6021
13031TIP3    H160508   2.768   6.220   0.885 -0.5370  0.3309  0.1953
13031TIP3    H260509   2.714   6.259   0.749  0.9298  0.7236 -0.2938
13032TIP3   OH260510   5.590   5.021  16.836  0.0766 -0.4730 -0.0249
13032TIP3    H160511   5.579   4.933  16.801 -0.2737 -0.9264  1.1840
13032TIP3    H260512   5.501   5.055  16.844 -0.0228 -1.0861  2.1141
13033TIP3   OH260513   5.572   2.268  15.480 -0.2093 -0.0500 -0.5759
13033TIP3    H160514   5.523   2.282  15.399 -1.2279 -3.1263 -0.5997
13033TIP3    H260515   5.623   2.188  15.464  0.2665 -0.2208  1.5109
13034TIP3   OH260516   2.052   1.935  15.488  0.2172 -0.6905 -0.1505
13034TIP3    H160517   2.079   2.013  15.536  0.6528 -1.1066  0.2892
13034TIP3    H260518   1.980   1.965  15.433 -0.8078 -0.3502  1.2981
13035TIP3   OH260519   4.790   4.099  15.704  0.0596  0.0939  0.0228
13035TIP3    H160520   4.708   4.075  15.660 -0.2183 -2.4206  1.7097
13035TIP3    H260521   4.762   4.142  15.785  0.3316 -1.2259  0.8505
13036TIP3   OH260522   5.334   0.113   5.976 -0.0318 -0.6607 -0.0237
13036TIP3    H160523   5.280   0.092   5.900 -0.6283 -0.5311  0.3630
13036TIP3    H260524   5.295   0.065   6.048 -1.0554  1.2090  0.7444
13037TIP3   OH260525   2.928   2.270   6.084 -0.2505  0.3688 -0.0896
13037TIP3    H160526   2.854   2.288   6.142 -0.3628  0.3821 -0.2353
13037TIP3    H260527   2.989   2.220   6.138  0.4514  1.8925  0.5948
13038TIP3   OH260528   5.445   5.815   4.161 -0.2872  0.3865  0.1501
13038TIP3    H160529   5.379   5.837   4.227  0.3350 -1.0125  1.2773
13038TIP3    H260530   5.412   5.735   4.120  0.6335 -0.2657  0.6563
13039TIP3   OH260531   1.220   0.873  16.197  0.2361 -0.0936 -0.0298
13039TIP3    H160532   1.273   0.953  16.199 -1.3694  1.0007  0.3412
13039TIP3    H260533   1.264   0.815  16.259  1.1571  0.6736  0.0741
13040TIP3   OH260534   0.880   0.149   2.331 -0.2146  0.1728 -0.5753
13040TIP3    H160535   0.825   0.227   2.321 -1.2824 -0.5044 -0.1877
13040TIP3    H260536   0.969   0.182   2.328 -0.6259  1.6901  1.4570
13041TIP3   OH260537   3.877   2.913   5.007 -0.6605  0.3648 -0.3703
13041TIP3    H160538   3.798   2.894   4.956 -1.0246 -1.5078  0.7793
13041TIP3    H260539   3.946   2.863   4.964 -0.3781  0.9347 -0.5892
13042TIP3   OH260540   0.567   2.954   2.381 -0.0513  0.3492  0.3862
13042TIP3    H160541   0.497   2.954   2.447  0.6446  0.7504  1.1495
13042TIP3    H260542   0.636   3.006   2.421 -0.6302  2.9965 -1.8071
13043TIP3   OH260543   3.037   2.615  16.148 -0.1603 -0.2568  0.4773
13043TIP3    H160544   3.022   2.551  16.218 -0.8079  0.2986  0.8590
13043TIP3    H260545   3.132   2.614  16.136 -0.2058 -1.8431 -0.0714
13044TIP3   OH260546   0.723   1.225  12.310 -0.1553  0.3397 -0.7764
13044TIP3    H160547   0.817   1.210  12.322 -0.1121  0.1163 -1.4084
13044TIP3    H260548   0.699   1.282  12.384 -0.2711 -2.4052  1.4799
13045TIP3   OH260549   0.183   4.652  15.055 -0.2867 -0.1521 -0.4841
13045TIP3    H160550   0.250   4.596  15.093  0.9127  1.4841 -0.0924
13045TIP3    H260551   0.228   4.703  14.987 -0.7675  1.8853  0.6235
13046TIP3   OH260552   0.470   4.718   2.645 -0.4903 -0.0173 -0.0672
13046TIP3    H160553   0.477   4.669   2.728  0.2419  0.0809 -0.0603
13046TIP3    H260554   0.427   4.657   2.585 -1.4785  0.0897  0.5172
13047TIP3   OH260555   6.243   2.112  17.615  0.1819 -0.6641 -0.2788
13047TIP3    H160556   6.181   2.056  17.662  1.7451 -1.3349  1.0885
13047TIP3    H260557   6.196   2.194  17.602 -2.1841 -2.1572 -2.2886
13048TIP3   OH260558   3.197   2.236  15.143 -0.0395 -0.0356  0.1667
13048TIP3    H160559   3.264   2.168  15.133 -2.2521 -2.4571  0.5741
13048TIP3    H260560   3.124   2.205  15.089 -1.2268  1.9660  0.5408
13049TIP3   OH260561   4.973   1.300   3.192  0.1381  0.0608 -0.2908
13049TIP3    H160562   4.953   1.354   3.268 -1.0469 -0.8777  0.0988
13049TIP3    H260563   4.967   1.210   3.224 -0.1760 -0.3460 -1.4387
13050TIP3   OH260564   0.999   2.004  11.935  0.7043  0.3140 -0.0349
13050TIP3    H160565   0.911   2.019  11.900 -0.0218  0.3525  1.6839
13050TIP3    H260566   1.043   2.089  11.927  0.6212  0.2731 -0.9821
13051TIP3   OH260567   4.289   2.850  11.891 -0.6969  0.2554  0.1184
13051TIP3    H160568   4.210   2.803  11.867  0.2944 -1.1942 -0.4586
13051TIP3    H260569   4.352   2.781  11.914  0.1434  1.3934  1.3972
13052TIP3   OH260570   3.145   4.709  15.796  0.1202  0.0617 -0.6282
13052TIP3    H160571   3.230   4.664  15.796  0.3764  0.5432 -0.3908
13052TIP3    H260572   3.159   4.788  15.744  0.4429  1.2872  1.2372
13053TIP3   OH260573   2.040   4.606   1.514  0.6075  0.5495 -0.0131
13053TIP3    H160574   2.056   4.628   1.423  2.2073 -0.8365 -0.1269
13053TIP3    H260575   1.995   4.521   1.511  4.2599 -1.6199  0.3870
13054TIP3   OH260576   6.243   0.328  13.171 -0.1197 -0.2623 -0.4479
13054TIP3    H160577   6.156   0.312  13.208 -0.8162  0.4775 -1.6954
13054TIP3    H260578   6.280   0.241  13.157 -0.7076 -0.5902 -0.0079
13055TIP3   OH260579   3.318   0.332   1.622 -0.5105 -0.0200 -0.5851
13055TIP3    H160580   3.374   0.393   1.670  1.3715 -0.1393 -2.4735
13055TIP3    H260581   3.301   0.376   1.538 -1.8561 -0.7366 -0.7180
13056TIP3   OH260582   2.868   2.369   2.539 -0.5757 -0.5217  0.0598
13056TIP3    H160583   2.834   2.349   2.626 -0.4267 -0.3120  0.1649
13056TIP3    H260584   2.874   2.284   2.496  1.1745 -0.8617  0.9035
13057TIP3   OH260585   3.392   0.232  13.617 -0.2122  0.3741 -0.2033
13057TIP3    H160586   3.486   0.243  13.602 -0.5079  1.2390 -1.6898
13057TIP3    H260587   3.384   0.152  13.668  1.2500 -0.5772 -1.4050
13058TIP3   OH260588   5.806   2.808   0.910 -1.0331  0.7185  0.0158
13058TIP3    H160589   5.857   2.818   0.990  1.2960  0.8532 -1.4071
13058TIP3    H260590   5.740   2.877   0.915  1.3844  3.1919  0.1698
13059TIP3   OH260591   0.996   5.602   0.724 -0.5151 -0.2371  0.5373
13059TIP3    H160592   0.903   5.627   0.719 -0.7009 -0.8204  0.9720
13059TIP3    H260593   1.012   5.554   0.642 -0.7493 -0.6235  0.7139
13060TIP3   OH260594   5.560   3.841   6.253 -0.4751 -0.3229  0.4206
13060TIP3    H160595   5.598   3.928   6.242  0.4425 -0.9057 -1.4099
13060TIP3    H260596   5.597   3.809   6.336 -0.2093  0.7104  0.7158
13061TIP3   OH260597   4.682   1.999  11.721  0.2669  0.3764 -0.3964
13061TIP3    H160598   4.614   2.062  11.696  0.4646  0.2074 -1.3921
13061TIP3    H260599   4.641   1.914  11.711 -0.0003  0.3247  0.9552
13062TIP3   OH260600   0.694   2.777  13.067 -0.1466 -0.5840  0.0155
13062TIP3    H160601   0.719   2.869  13.066 -1.1449 -0.3018 -0.1107
13062TIP3    H260602   0.777   2.729  13.068  0.3783  0.3112 -0.0116
13063TIP3   OH260603   3.096   3.805  12.393 -0.0031 -0.3270 -0.2022
13063TIP3    H160604   3.122   3.834  12.481  2.6801  0.2218 -1.0700
13063TIP3    H260605   3.107   3.883  12.338  1.0071 -1.3240 -1.4642
13064TIP3   OH260606   2.579   6.084  11.723  0.0332  0.2001  0.0722
13064TIP3    H160607   2.515   6.096  11.653  2.8501 -2.2140 -3.2938
13064TIP3    H260608   2.631   6.164  11.722 -1.8542  1.5421  1.8080
13065TIP3   OH260609   3.761   0.491  12.730 -0.3563  0.1634 -0.6785
13065TIP3    H160610   3.742   0.457  12.643  0.5199 -0.7315 -0.5301
13065TIP3    H260611   3.821   0.428  12.769 -0.2737  0.8502  0.3626
13066TIP3   OH260612   4.173   5.448  14.216 -0.3132  0.0417  0.1594
13066TIP3    H160613   4.152   5.355  14.205  0.2888 -0.4344  2.4369
13066TIP3    H260614   4.246   5.449  14.279 -0.5918  2.0683  0.5307
13067TIP3   OH260615   5.423   4.118   6.419  0.4620  0.2993  0.1581
13067TIP3    H160616   5.396   4.205   6.447  0.5482  1.1217 -2.0762
13067TIP3    H260617   5.456   4.131   6.330 -1.5650 -2.3364 -1.1117
13068TIP3   OH260618   0.650   5.097  15.296  0.1994  0.1515  0.1014
13068TIP3    H160619   0.716   5.167  15.294 -1.3372  1.7328  1.3083
13068TIP3    H260620   0.577   5.132  15.244  0.2425 -1.5593 -1.1921
13069TIP3   OH260621   5.182   5.143   2.486 -0.3212  0.5916 -0.0158
13069TIP3    H160622   5.270   5.132   2.523 -1.0581 -1.8454  1.2049
13069TIP3    H260623   5.124   5.147   2.562 -1.5763 -1.4040 -0.7959
13070TIP3   OH260624   0.481   5.217   1.961 -0.1502  0.1135 -0.4784
13070TIP3    H160625   0.425   5.270   1.904  0.6592  2.4229  0.6979
13070TIP3    H260626   0.541   5.172   1.902 -1.8212 -0.6984 -1.6194
13071TIP3   OH260627   1.668   2.811   5.262 -0.5017  0.2198 -0.0751
13071TIP3    H160628   1.669   2.877   5.331 -1.4703 -0.6188  0.7747
13071TIP3    H260629   1.750   2.763   5.273  0.5351  1.6590 -1.1236
13072TIP3   OH260630   6.118   4.790  13.349  0.3718 -0.3406 -0.4342
13072TIP3    H160631   6.199   4.840  13.354 -0.6743  1.4900 -0.8691
13072TIP3    H260632   6.084   4.806  13.261 -1.2604  0.2662  0.2541
13073TIP3   OH260633   2.678   3.241  15.808 -0.0365  0.3798 -0.0425
13073TIP3    H160634   2.750   3.249  15.745  1.1803 -0.1570  1.2191
13073TIP3    H260635   2.699   3.163  15.859 -1.2726  0.4890  0.6773
13074TIP3   OH260636   2.102   2.955   1.551  0.0134  0.0482  0.4380
13074TIP3    H160637   2.106   3.037   1.600  1.0591 -0.1163  0.6461
13074TIP3    H260638   2.193   2.924   1.548 -0.3585 -1.0688  0.3001
13075TIP3   OH260639   1.938   5.374   6.324 -0.0371 -0.7068  1.2546
13075TIP3    H160640   1.970   5.285   6.311  0.0781 -0.7924  2.0668
13075TIP3    H260641   2.002   5.429   6.278 -0.7621 -1.0956 -0.2765
13076TIP3   OH260642   5.198   0.080   2.366  0.1921 -0.1138 -0.2182
13076TIP3    H160643   5.221  -0.012   2.378  0.3727 -0.3162 -1.9444
13076TIP3    H260644   5.173   0.087   2.274 -1.9280  1.1286  0.3776
13077TIP3   OH260645   3.978   0.968  15.200 -0.1204 -0.4039  0.8541
13077TIP3    H160646   3.916   1.034  15.170  1.0633  0.3644  0.0024
13077TIP3    H260647   3.963   0.893  15.143 -0.1498 -0.1566  0.5332
13078TIP3   OH260648   1.290   5.412   1.119 -0.0419 -0.3090 -0.3657
13078TIP3    H160649   1.195   5.414   1.125 -0.1369  0.8457 -1.6523
13078TIP3    H260650   1.310   5.469   1.045  1.7215  0.5991  0.7367
13079TIP3   OH260651   6.546   5.334  16.648  0.2561  0.4082  0.2730
13079TIP3    H160652   6.567   5.309  16.738 -0.6634 -1.1808  0.0876
13079TIP3    H260653   6.508   5.422  16.656 -2.1039 -0.6411  1.7860
13080TIP3   OH260654   3.778   3.759  14.523 -0.1876  0.1340 -0.0862
13080TIP3    H160655   3.723   3.689  14.557  0.6820 -1.4147 -1.6893
13080TIP3    H260656   3.858   3.754  14.577 -0.1216 -0.1309 -0.2054
13081TIP3   OH260657   4.112   3.864   0.805 -0.7227  0.0951 -0.2477
13081TIP3    H160658   4.062   3.938   0.840 -0.7973 -0.2875  0.4716
13081TIP3    H260659   4.116   3.801   0.878  2.2707  0.8230  0.3403
13082TIP3   OH260660   4.089   4.443  11.966 -0.2087 -0.1906 -0.0166
13082TIP3    H160661   4.049   4.412  12.047  2.3534  0.5006  1.6216
13082TIP3    H260662   4.046   4.526  11.947 -0.6690 -0.2528  0.7399
13083TIP3   OH260663   6.302   5.085   3.584 -0.0674 -0.1102 -0.6232
13083TIP3    H160664   6.391   5.077   3.619 -0.2516  2.2314  0.5888
13083TIP3    H260665   6.250   5.024   3.637  0.2185  1.1625  1.2238
13084TIP3   OH260666   0.754   5.474   5.567  0.1134  0.6648  0.0202
13084TIP3    H160667   0.685   5.538   5.585 -0.2469  0.7082 -1.4077
13084TIP3    H260668   0.755   5.467   5.472  0.3878 -1.1852  0.1307
13085TIP3   OH260669   0.679   2.160  15.289 -0.3079 -0.3085 -0.1859
13085TIP3    H160670   0.654   2.206  15.369  2.0412 -0.7744  0.8910
13085TIP3    H260671   0.660   2.223  15.219 -0.6819  0.8294  0.8963
13086TIP3   OH260672   1.498   0.512  13.100  0.3601 -0.3790 -0.2308
13086TIP3    H160673   1.583   0.527  13.143  0.3440  0.0508 -0.3482
13086TIP3    H260674   1.496   0.574  13.028 -0.4205  0.2073  0.2839
13087TIP3   OH260675   1.010   2.631   1.722 -0.8087  0.1650 -0.4286
13087TIP3    H160676   0.973   2.716   1.747 -0.3488  0.2277  0.0711
13087TIP3    H260677   1.014   2.634   1.626 -0.4921  0.8443 -0.4016
13088TIP3   OH260678   1.410   0.027  15.700 -0.0859  0.4666  0.0559
13088TIP3    H160679   1.411  -0.055  15.651  0.1996 -0.5165  1.6647
13088TIP3    H260680   1.362   0.007  15.780 -0.8488  2.1383  0.0601
13089TIP3   OH260681   3.064   0.746  13.713 -0.4178  0.3338  0.1756
13089TIP3    H160682   3.134   0.799  13.673  2.4954 -2.9864  0.3384
13089TIP3    H260683   3.051   0.785  13.799  1.4604  0.9613  0.2272
13090TIP3   OH260684   2.871   5.666   4.846 -0.3490 -0.2661 -0.0634
13090TIP3    H160685   2.823   5.749   4.853  0.3511  0.1214  0.2059
13090TIP3    H260686   2.811   5.608   4.799 -1.4657 -0.0884  1.0813
13091TIP3   OH260687   2.033   4.007  15.207 -0.1563  0.9430 -0.1088
13091TIP3    H160688   1.998   4.091  15.237 -1.8319 -0.4785  2.2484
13091TIP3    H260689   2.128   4.016  15.215 -0.2616  2.8131 -0.5602
13092TIP3   OH260690   1.551   1.591   3.739  0.2089  0.2866  0.8591
13092TIP3    H160691   1.565   1.512   3.790  1.3570  1.3090  2.2221
13092TIP3    H260692   1.507   1.651   3.799 -2.2000  0.1612 -0.6705
13093TIP3   OH260693   0.348   1.993   3.823 -0.2080  0.0742  0.3342
13093TIP3    H160694   0.389   2.070   3.783  0.6660  0.8238  2.4852
13093TIP3    H260695   0.287   2.029   3.887 -2.0762 -1.0690 -0.7126
13094TIP3   OH260696   3.345   6.365  15.508  0.5439 -0.1048  0.6275
13094TIP3    H160697   3.386   6.448  15.530 -1.3802  0.5431  2.0413
13094TIP3    H260698   3.288   6.385  15.434  0.0700 -0.1539  0.9764
13095TIP3   OH260699   2.526   1.034  16.322 -0.7323 -0.1740 -0.4120
13095TIP3    H160700   2.523   0.950  16.275  0.9774  0.2443 -1.3473
13095TIP3    H260701   2.470   1.020  16.399  0.3640 -2.5400  0.0493
13096TIP3   OH260702   3.782   2.493   2.511  0.5110 -0.7169  0.3909
13096TIP3    H160703   3.711   2.432   2.530 -1.6451  1.4977 -0.0103
13096TIP3    H260704   3.819   2.462   2.428 -1.0266 -1.0606 -0.1835
13097TIP3   OH260705   0.965   1.504  14.857  0.0044 -0.0366 -0.1465
13097TIP3    H160706   0.957   1.562  14.932 -1.8047  0.5688 -0.7629
13097TIP3    H260707   1.003   1.559  14.788 -0.0932 -0.0650 -0.2235
13098TIP3   OH260708   0.974   4.187  15.033  0.3745  0.5048 -0.0595
13098TIP3    H160709   1.056   4.162  15.075  0.8673  1.6762 -0.2740
13098TIP3    H260710   0.942   4.260  15.086 -0.4223  0.2089 -0.1143
13099TIP3   OH260711   3.694   6.481   0.660  0.3971  0.0379 -0.2247
13099TIP3    H160712   3.641   6.402   0.674  0.8666  0.0678  2.0202
13099TIP3    H260713   3.649   6.528   0.590 -0.6156 -1.5919 -0.7154
13100TIP3   OH260714   4.798   0.872  14.592  0.5958  0.1107 -0.1282
13100TIP3    H160715   4.812   0.935  14.521  2.5790 -1.5333 -1.2843
13100TIP3    H260716   4.770   0.792  14.547  1.8330 -0.9431  0.9285
13101TIP3   OH260717   3.754   3.985  15.169 -0.1619  0.1980  0.5357
13101TIP3    H160718   3.822   4.048  15.194 -0.1651  2.5884 -4.1684
13101TIP3    H260719   3.672   4.035  15.173 -0.5869 -0.3758 -0.4611
13102TIP3   OH260720   1.017   0.811  14.820 -0.0193 -0.0722 -0.2243
13102TIP3    H160721   1.097   0.766  14.846 -0.8392 -0.3822  1.9381
13102TIP3    H260722   1.021   0.896  14.865 -0.9578 -0.1385  0.0010
13103TIP3   OH260723   5.381   4.903   0.306  0.2530 -0.3158 -0.2346
13103TIP3    H160724   5.345   4.989   0.285  0.9156  0.6830  2.4376
13103TIP3    H260725   5.475   4.911   0.291  0.3597 -0.4499  0.3287
13104TIP3   OH260726   2.008   6.451   2.240 -0.2545 -0.1646 -0.6257
13104TIP3    H160727   1.915   6.459   2.261 -0.2717 -0.7818 -0.4307
13104TIP3    H260728   2.044   6.394   2.309  0.2235 -0.0982 -0.8122
13105TIP3   OH260729   0.427   6.691   1.685  0.4795 -0.2535  0.5635
13105TIP3    H160730   0.408   6.762   1.745  4.0691  0.0892  1.5235
13105TIP3    H260731   0.427   6.612   1.739 -0.7623 -0.6469  0.0372
13106TIP3   OH260732   2.588   0.477   2.732  0.1650 -0.8679  0.2830
13106TIP3    H160733   2.615   0.458   2.642 -0.9919  0.6488 -0.4302
13106TIP3    H260734   2.649   0.544   2.762 -0.8736  0.3767 -0.2688
13107TIP3   OH260735   2.330   3.937   4.127 -0.0221 -0.0875  0.0925
13107TIP3    H160736   2.258   3.903   4.178 -0.1459  0.6086  0.4003
13107TIP3    H260737   2.311   4.031   4.118 -0.5770 -0.3485 -2.1544
13108TIP3   OH260738   3.462   5.251   2.076  0.0632  0.0944  0.3810
13108TIP3    H160739   3.475   5.338   2.114  0.4617 -0.8093  2.4086
13108TIP3    H260740   3.367   5.238   2.077 -0.3077  1.5435 -2.5558
13109TIP3   OH260741   5.851   6.118  15.986  0.0712  0.2310 -0.4992
13109TIP3    H160742   5.927   6.061  15.984  2.1299  2.8273 -1.1638
13109TIP3    H260743   5.841   6.149  15.896 -2.9249 -1.2883 -0.8482
13110TIP3   OH260744   2.839   6.109   4.881 -0.6395 -0.0752 -0.4261
13110TIP3    H160745   2.775   6.048   4.845  0.3521 -0.6935 -1.2069
13110TIP3    H260746   2.854   6.078   4.970 -2.7514  1.1780  0.4290
13111TIP3   OH260747   3.610   2.036   4.259  0.2180  0.4280  0.2489
13111TIP3    H160748   3.682   2.030   4.322 -0.2960 -0.3323  0.7810
13111TIP3    H260749   3.531   2.019   4.310 -0.1677 -0.7919 -0.6871
13112TIP3   OH260750   1.171   1.600   1.992  0.3756 -0.5140  0.1657
13112TIP3    H160751   1.087   1.569   2.025  0.0925  0.6483  0.5905
13112TIP3    H260752   1.177   1.691   2.022  2.2991 -0.9055  1.1122
13113TIP3   OH260753   2.167   2.257  12.085  0.2561  0.5018  0.6221
13113TIP3    H160754   2.190   2.320  12.153  0.5396 -0.9803  1.9535
13113TIP3    H260755   2.178   2.306  12.003 -0.2764  2.3948  1.6074
13114TIP3   OH260756   2.193   5.757   2.381 -0.3323  0.1650 -0.0718
13114TIP3    H160757   2.129   5.744   2.451 -1.6506 -2.0288 -1.5492
13114TIP3    H260758   2.239   5.673   2.375  0.3919  0.6227 -1.2079
13115TIP3   OH260759   3.868   2.211   5.284  0.1211 -0.7606  0.5851
13115TIP3    H160760   3.799   2.254   5.232 -1.0930 -2.3929  0.7663
13115TIP3    H260761   3.949   2.236   5.240 -0.6933 -0.2089 -0.7051
13116TIP3   OH260762   4.889   4.922   4.771 -0.4000  0.0765 -0.0232
13116TIP3    H160763   4.922   4.910   4.682  3.7277  2.3392  0.9901
13116TIP3    H260764   4.889   5.016   4.785 -1.6933 -0.1780  2.1576
13117TIP3   OH260765   1.418   4.351   4.802 -0.0087 -0.0617 -0.3680
13117TIP3    H160766   1.447   4.442   4.808 -0.5839  0.1074  0.0230
13117TIP3    H260767   1.340   4.354   4.745 -1.1683 -0.0028  1.1579
13118TIP3   OH260768   1.417   3.741   0.676  0.1855 -0.3390  0.5741
13118TIP3    H160769   1.467   3.667   0.709  0.0034 -0.4701  0.5601
13118TIP3    H260770   1.391   3.716   0.587  0.4135 -0.1148  0.4440
13119TIP3   OH260771   3.315   2.557  12.700 -0.1581  0.1628 -0.0543
13119TIP3    H160772   3.272   2.631  12.657 -0.0727  0.3866  0.2412
13119TIP3    H260773   3.253   2.484  12.689 -0.8257  0.5828  0.7297
13120TIP3   OH260774   3.778   4.249  15.547  0.3930 -0.2869  0.3848
13120TIP3    H160775   3.726   4.302  15.607 -0.5707 -1.0245  0.2147
13120TIP3    H260776   3.715   4.212  15.485  1.5040  2.0519 -2.4279
13121TIP3   OH260777   4.416   0.124   1.870  0.1883 -0.3034  0.1755
13121TIP3    H160778   4.449   0.114   1.780  1.5119 -1.5207  0.7466
13121TIP3    H260779   4.471   0.065   1.922 -3.0157 -2.6638  1.2132
13122TIP3   OH260780   2.858   1.889   2.657 -0.2122  0.4747 -0.5358
13122TIP3    H160781   2.783   1.939   2.688 -1.0387 -1.2948  0.4350
13122TIP3    H260782   2.872   1.823   2.725  1.0041 -0.4504 -1.6507
13123TIP3   OH260783   3.465   1.843  14.546  0.2015  0.4437 -0.2580
13123TIP3    H160784   3.502   1.777  14.605 -1.7111  1.7606  2.7228
13123TIP3    H260785   3.420   1.793  14.478  0.3780 -1.2874  0.8355
13124TIP3   OH260786   2.383   5.778  13.577  0.0628  0.0790 -0.2007
13124TIP3    H160787   2.476   5.758  13.569  0.2793 -0.2414  2.1787
13124TIP3    H260788   2.374   5.811  13.667 -1.8903  1.5333 -0.8618
13125TIP3   OH260789   0.687   3.475   1.735 -0.2300  0.1849 -0.0538
13125TIP3    H160790   0.759   3.520   1.779 -0.3712  0.3762 -0.0201
13125TIP3    H260791   0.706   3.485   1.641  0.5834 -1.0365 -0.0482
13126TIP3   OH260792   4.918   5.378  15.345  0.0228  0.2475  0.6398
13126TIP3    H160793   4.904   5.446  15.279 -0.8728 -1.7081 -1.3303
13126TIP3    H260794   4.974   5.314  15.302  0.9917 -0.2049  2.4905
13127TIP3   OH260795   0.324   0.588   5.336  0.2931  0.7497 -0.1670
13127TIP3    H160796   0.335   0.499   5.300 -1.3406  0.2280  0.5485
13127TIP3    H260797   0.394   0.638   5.295  1.5892 -0.9808 -0.2107
13128TIP3   OH260798   0.995   3.565  11.569  0.5544  0.8399  0.3035
13128TIP3    H160799   1.001   3.472  11.547 -1.1471  0.8571 -0.4062
13128TIP3    H260800   1.037   3.610  11.496  1.5361  0.6368  0.7321
13129TIP3   OH260801   4.984   3.628   5.678  0.0828 -0.2615  0.4566
13129TIP3    H160802   4.937   3.712   5.675 -1.9446 -1.3730 -0.7339
13129TIP3    H260803   5.054   3.638   5.614 -0.0611  0.5800  0.4184
13130TIP3   OH260804   2.218   5.037  15.792 -0.2365  0.0821  0.0240
13130TIP3    H160805   2.162   4.978  15.842 -0.8237  2.1986  2.0654
13130TIP3    H260806   2.226   5.115  15.847  1.6747  1.3545 -1.8737
13131TIP3   OH260807   6.143   4.942   6.005  0.0404  0.1373  0.4160
13131TIP3    H160808   6.140   4.942   6.101 -0.1398  0.9938  0.4220
13131TIP3    H260809   6.184   5.026   5.983 -0.5070  0.2331 -0.2687
13132TIP3   OH260810   1.535   1.378   5.515 -0.6286  0.8807 -0.1151
13132TIP3    H160811   1.585   1.447   5.471 -1.0516  2.5403  1.8299
13132TIP3    H260812   1.593   1.302   5.513  0.5328  1.7319 -0.9256
13133TIP3   OH260813   2.714   1.663  15.805 -0.2252  0.1891 -0.5979
13133TIP3    H160814   2.751   1.749  15.782 -0.1919 -0.1281 -1.7944
13133TIP3    H260815   2.620   1.673  15.791 -0.0143 -0.5989 -3.0116
13134TIP3   OH260816   3.602   0.679  16.892 -0.3826  0.1402 -0.2046
13134TIP3    H160817   3.547   0.601  16.890  0.0148 -0.1764  0.4826
13134TIP3    H260818   3.561   0.740  16.832 -1.5230 -0.0619  0.3484
13135TIP3   OH260819   4.463   0.072   0.073  0.1462 -0.1934 -0.2787
13135TIP3    H160820   4.410   0.005   0.115  0.0377  1.2862  2.1812
13135TIP3    H260821   4.404   0.146   0.061  1.2549  1.0361  1.3451
13136TIP3   OH260822   2.348   3.822   0.451 -0.4831 -0.0218 -0.5052
13136TIP3    H160823   2.291   3.794   0.522 -0.5396 -1.0885 -0.9556
13136TIP3    H260824   2.424   3.861   0.494 -1.7390  1.9003  0.1086
13137TIP3   OH260825   2.025   0.317  15.167  0.1194  0.1526 -0.3393
13137TIP3    H160826   2.029   0.366  15.249 -0.3135 -1.4990  0.7177
13137TIP3    H260827   2.076   0.370  15.105  2.7156  0.1768  1.6543
13138TIP3   OH260828   2.511   0.466  12.148 -0.3139  0.7415  0.9451
13138TIP3    H160829   2.419   0.439  12.137 -0.1204  0.4148  0.0436
13138TIP3    H260830   2.551   0.394  12.196 -0.2052  0.1987  0.0699
13139TIP3   OH260831   3.543   3.780  17.017  0.0845 -0.6671  0.2222
13139TIP3    H160832   3.605   3.708  17.021  1.5032  0.5291  0.5376
13139TIP3    H260833   3.485   3.766  17.092 -0.2648 -1.9913 -0.2777
13140TIP3   OH260834   2.664   6.511  17.037 -0.4515 -0.5180 -0.6205
13140TIP3    H160835   2.650   6.518  16.942 -2.6425 -1.4050 -0.4170
13140TIP3    H260836   2.579   6.486  17.072  0.4347 -0.6886  1.5556
13141TIP3   OH260837   3.696   2.422   3.118 -0.2962  0.1346 -0.6421
13141TIP3    H160838   3.640   2.378   3.182 -0.7195  0.8263 -0.5273
13141TIP3    H260839   3.768   2.457   3.171 -0.0180 -0.3071 -0.7183
13142TIP3   OH260840   4.455   2.044  15.694  0.5223 -0.1418  0.0413
13142TIP3    H160841   4.369   2.057  15.734  0.3412  1.5487 -0.7842
13142TIP3    H260842   4.499   1.982  15.751 -0.9476 -0.3958  0.9469
13143TIP3   OH260843   5.897   1.516  16.465 -0.3090 -0.5020 -0.3749
13143TIP3    H160844   5.940   1.499  16.549  0.2936 -1.0122 -0.7858
13143TIP3    H260845   5.866   1.431  16.436 -2.2631 -0.0471  0.2560
13144TIP3   OH260846   4.420   3.262  11.859 -0.3969  0.7230  0.2771
13144TIP3    H160847   4.511   3.288  11.870 -1.2727  3.5320  1.6755
13144TIP3    H260848   4.400   3.209  11.937  0.0197  0.0072 -0.0884
13145TIP3   OH260849   0.243   0.903   5.289 -0.1419 -0.2240 -0.7131
13145TIP3    H160850   0.337   0.890   5.306 -0.0567  0.1271 -0.8925
13145TIP3    H260851   0.199   0.838   5.344  0.2554 -1.2025 -1.5204
13146TIP3   OH260852   4.717   0.697   4.447 -0.3082  0.5078 -0.2300
13146TIP3    H160853   4.679   0.782   4.466 -3.4582 -0.8719  0.2664
13146TIP3    H260854   4.734   0.699   4.353  1.4364  2.2485  0.0568
13147TIP3   OH260855   2.923   2.413  14.613  0.6261  0.2372 -0.4221
13147TIP3    H160856   2.946   2.460  14.693  1.6331  0.5209 -0.8556
13147TIP3    H260857   2.843   2.455  14.582 -0.4079 -0.6037  1.0078
13148TIP3   OH260858   4.852   2.906   4.716  0.1756 -0.1998  0.0906
13148TIP3    H160859   4.935   2.953   4.721  0.3872 -0.5321 -0.2835
13148TIP3    H260860   4.791   2.968   4.676 -0.1544  0.5837  1.7150
13149TIP3   OH260861   5.800   6.234  12.237 -0.4015 -0.1131 -0.0487
13149TIP3    H160862   5.771   6.320  12.207 -0.4035 -0.2954 -0.5629
13149TIP3    H260863   5.733   6.173  12.208 -1.3343 -0.0873  1.8547
13150TIP3   OH260864   5.992   1.703  16.902  0.0350 -0.2638  0.4190
13150TIP3    H160865   6.012   1.637  16.968  1.7905  0.9660  1.2073
13150TIP3    H260866   5.899   1.724  16.916 -0.1521 -1.4894  1.1255
13151TIP3   OH260867   4.030   2.429  12.577 -0.3205  0.6227 -0.4814
13151TIP3    H160868   4.072   2.515  12.582  0.7455  0.0824  0.6636
13151TIP3    H260869   4.100   2.368  12.602 -1.3781 -0.4605 -0.1134
13152TIP3   OH260870   1.079   2.133  17.501  0.1708  0.4341  0.7334
13152TIP3    H160871   1.022   2.057  17.503 -0.3180  0.7826  0.3230
13152TIP3    H260872   1.156   2.107  17.551  0.7348 -0.9164 -0.7422
13153TIP3   OH260873   1.100   2.799  16.688 -0.1869 -0.4867 -0.3233
13153TIP3    H160874   1.137   2.838  16.768 -1.4379 -0.4273  0.2547
13153TIP3    H260875   1.078   2.875  16.634 -1.4277 -0.4016  0.2576
13154TIP3   OH260876   3.309   2.942  17.225  0.2305 -0.8171 -0.5622
13154TIP3    H160877   3.332   3.010  17.288 -0.2380 -0.6258 -0.5928
13154TIP3    H260878   3.255   2.987  17.160  0.0817 -1.1776 -0.6880
13155TIP3   OH260879   3.830   0.962   4.094 -0.1097  0.2543 -0.6235
13155TIP3    H160880   3.842   0.954   3.999  0.9271 -2.1336 -0.3702
13155TIP3    H260881   3.860   0.878   4.129  1.0927  1.6473  1.9812
13156TIP3   OH260882   1.196   1.947   2.348 -0.1452 -0.1240  0.3531
13156TIP3    H160883   1.176   2.040   2.341 -2.4890 -0.6139 -0.4239
13156TIP3    H260884   1.240   1.925   2.265  0.8032  0.3369  0.7174
13157TIP3   OH260885   6.139   3.742   2.349  0.1176 -0.1940  0.0377
13157TIP3    H160886   6.084   3.819   2.335 -0.4877 -0.7374 -0.6804
13157TIP3    H260887   6.189   3.733   2.267 -1.3217 -1.7356 -0.7238
13158TIP3   OH260888   3.754   3.937  16.336 -0.5233  0.0890  0.2717
13158TIP3    H160889   3.802   3.987  16.402  0.1226 -1.0058  0.6632
13158TIP3    H260890   3.696   4.001  16.296  2.5443  1.9892 -1.5657
13159TIP3   OH260891   0.102   2.533  16.865 -0.3069  0.3554  0.5803
13159TIP3    H160892   0.062   2.584  16.795  0.0565  1.4088  1.1139
13159TIP3    H260893   0.065   2.569  16.945  1.2206  0.9462  1.0578
13160TIP3   OH260894   0.313   0.010   5.174  0.2347 -0.2471 -0.4023
13160TIP3    H160895   0.357   0.093   5.156  0.2035 -0.0773  0.2573
13160TIP3    H260896   0.286  -0.022   5.088  0.5415  0.2628 -0.6952
13161TIP3   OH260897   3.992   1.587   1.000  0.0019 -0.3159 -0.0259
13161TIP3    H160898   3.922   1.600   0.937 -0.3046  0.2427  0.4191
13161TIP3    H260899   4.035   1.506   0.972 -0.2274 -0.1620 -0.8472
13162TIP3   OH260900   6.073   6.470   3.440  0.5309  0.0946 -1.0150
13162TIP3    H160901   6.048   6.384   3.407  0.1259  0.1453 -0.8489
13162TIP3    H260902   6.157   6.455   3.485  0.0205 -0.4000 -0.1949
13163TIP3   OH260903   3.864   3.934   2.465 -0.3822  0.3235 -0.4789
13163TIP3    H160904   3.774   3.957   2.441 -1.0409 -2.4054 -1.0189
13163TIP3    H260905   3.907   3.918   2.381 -0.5039 -1.8951 -0.1842
13164TIP3   OH260906   6.008   3.726  15.561 -0.1978  0.0025 -1.0851
13164TIP3    H160907   5.945   3.790  15.529  0.8378  1.5492 -0.1358
13164TIP3    H260908   6.094   3.767  15.549  0.3507 -0.0761  1.8995
13165TIP3   OH260909   3.414   4.715  15.199 -0.0936 -0.3999 -0.6498
13165TIP3    H160910   3.346   4.746  15.139 -1.0205  0.6411  0.8633
13165TIP3    H260911   3.470   4.792  15.214 -0.4793 -0.3408  0.5868
13166TIP3   OH260912   5.827   3.577   3.300 -0.8668  0.0405  0.0364
13166TIP3    H160913   5.819   3.586   3.205 -0.7581  3.1736  0.1915
13166TIP3    H260914   5.920   3.587   3.317 -0.6601 -2.1991  0.4147
13167TIP3   OH260915   2.580   4.060  17.221  0.4316  0.4183  0.0135
13167TIP3    H160916   2.653   4.008  17.254 -0.5899  0.1075  1.9045
13167TIP3    H260917   2.521   3.997  17.180  0.0161  0.2932  0.7824
13168TIP3   OH260918   6.533   1.390   1.870 -0.0200  0.6022 -0.1417
13168TIP3    H160919   6.466   1.382   1.938  0.2397 -2.4226 -0.0773
13168TIP3    H260920   6.486   1.379   1.787  0.1689  0.1198 -0.1901
13169TIP3   OH260921   4.006   4.755   2.849  0.0832 -0.0004 -0.2499
13169TIP3    H160922   3.965   4.676   2.814  3.7072 -1.5920 -1.3041
13169TIP3    H260923   4.038   4.802   2.773  0.2865  1.1560  0.5183
13170TIP3   OH260924   0.854   3.764   0.797  0.1911 -0.1688  0.2851
13170TIP3    H160925   0.791   3.713   0.745 -0.6098  0.1866  0.8767
13170TIP3    H260926   0.936   3.756   0.750  0.1766 -2.2767  0.5408
13171TIP3   OH260927   4.616   0.907  13.645 -0.4675  0.0690 -0.2190
13171TIP3    H160928   4.621   0.931  13.737  1.6375 -1.4286  0.1243
13171TIP3    H260929   4.554   0.834  13.642 -3.5393  2.4918 -0.6524
13172TIP3   OH260930   5.124   3.851   4.729 -0.1311 -0.1537  0.7797
13172TIP3    H160931   5.160   3.769   4.697  1.4438  0.6992  0.2359
13172TIP3    H260932   5.045   3.826   4.777 -0.4705 -1.8204 -0.5673
13173TIP3   OH260933   3.267   2.969   5.869 -0.1369  0.5879 -0.1230
13173TIP3    H160934   3.350   2.978   5.915 -0.0021  1.0704 -0.4466
13173TIP3    H260935   3.234   2.883   5.895 -0.0858  0.8670  0.8917
13174TIP3   OH260936   1.207   1.223  15.931 -0.1686 -0.1591  0.3660
13174TIP3    H160937   1.212   1.127  15.926  2.4169 -0.0708  0.0383
13174TIP3    H260938   1.208   1.252  15.840 -0.3314  0.2128  0.4791
13175TIP3   OH260939   5.523   4.199  12.651 -0.1036 -0.1221 -0.2621
13175TIP3    H160940   5.465   4.271  12.631 -0.2263  0.1377  0.9334
13175TIP3    H260941   5.478   4.149  12.719  1.1184  0.1916  0.8312
13176TIP3   OH260942   1.009   5.519   3.479 -0.0884 -0.3014 -0.1327
13176TIP3    H160943   1.053   5.438   3.504 -1.5893 -0.5732  1.8660
13176TIP3    H260944   1.080   5.579   3.458  1.1378 -1.4801  0.4745
13177TIP3   OH260945   1.021   6.359  15.504 -0.0195 -0.0298  0.1679
13177TIP3    H160946   1.015   6.299  15.430  0.6177 -0.2905  0.3217
13177TIP3    H260947   0.977   6.439  15.474  0.1612 -0.1623 -0.4608
13178TIP3   OH260948   4.919   3.342  14.864  0.2325 -0.5930  0.5462
13178TIP3    H160949   4.831   3.373  14.882  1.0980  2.0716  0.6698
13178TIP3    H260950   4.926   3.342  14.769 -0.2209 -1.9306  0.4925
13179TIP3   OH260951   0.676   3.212  12.752 -0.0613  0.5794  0.1041
13179TIP3    H160952   0.686   3.287  12.811 -1.7998  0.7507  0.2420
13179TIP3    H260953   0.593   3.172  12.778 -1.4074  1.2230 -2.7721
13180TIP3   OH260954   4.299   0.168   1.007  0.1739 -0.4588  0.2814
13180TIP3    H160955   4.206   0.142   1.006 -0.7382  2.3657 -2.2880
13180TIP3    H260956   4.321   0.172   1.100 -2.6706 -0.0355  1.0278
13181TIP3   OH260957   5.779   5.178   0.913  0.2281 -0.1684  0.5910
13181TIP3    H160958   5.790   5.192   1.007 -1.3866 -1.6934  1.0562
13181TIP3    H260959   5.694   5.218   0.892 -0.2966 -1.4227  0.1951
13182TIP3   OH260960   4.282   1.271  14.937  0.5282  0.3327 -0.1446
13182TIP3    H160961   4.214   1.205  14.925 -0.3873  1.1671  0.3631
13182TIP3    H260962   4.257   1.342  14.878 -0.8754  2.0301  2.3247
13183TIP3   OH260963   1.588   5.094  14.023 -0.4835  0.3932 -0.4045
13183TIP3    H160964   1.549   5.088  14.110 -1.3037 -0.7443 -0.8208
13183TIP3    H260965   1.567   5.182  13.993  1.5145  1.5176  1.3049
13184TIP3   OH260966   3.198   0.606  16.989 -0.8486  0.2531 -0.0796
13184TIP3    H160967   3.177   0.683  16.936 -1.4190  0.4532  0.4272
13184TIP3    H260968   3.256   0.639  17.058 -2.8341  0.7162  1.4707
13185TIP3   OH260969   4.464   0.637   4.027 -0.1876  0.0321  0.5743
13185TIP3    H160970   4.455   0.731   4.014 -0.5426 -0.0295  0.3665
13185TIP3    H260971   4.479   0.602   3.939 -1.2314 -0.2330  0.4856
13186TIP3   OH260972   0.577   1.476   1.650  0.1236 -0.0576  0.8127
13186TIP3    H160973   0.595   1.472   1.744 -0.2871 -0.9802  0.8655
13186TIP3    H260974   0.509   1.543   1.642  0.8633  0.7386  1.0450
13187TIP3   OH260975   3.466   3.819   1.071 -0.3247  0.1444  0.1787
13187TIP3    H160976   3.505   3.831   0.984 -0.4972  0.7682  0.1766
13187TIP3    H260977   3.387   3.767   1.055 -0.3775  0.2909 -0.0515
13188TIP3   OH260978   2.460   4.835   6.044  0.0235  0.0141  0.0104
13188TIP3    H160979   2.386   4.847   6.104  0.9704 -1.0682  1.4554
13188TIP3    H260980   2.493   4.747   6.063  2.0109  0.6599 -0.1842
13189TIP3   OH260981   4.540   5.212   2.943 -0.4385  0.1476  0.3573
13189TIP3    H160982   4.618   5.231   2.994 -0.7118  0.9880  0.4778
13189TIP3    H260983   4.480   5.169   3.004 -0.7623  1.1436  0.7617
13190TIP3   OH260984   5.096   1.557   0.211 -0.3011  0.5638  0.8751
13190TIP3    H160985   5.071   1.469   0.240 -2.9949  1.2827  1.0385
13190TIP3    H260986   5.125   1.545   0.121  1.7179 -0.7715  1.6275
13191TIP3   OH260987   2.431   6.152  14.623 -0.2325 -0.0461  0.6874
13191TIP3    H160988   2.445   6.062  14.595 -0.0094  0.4343 -0.8310
13191TIP3    H260989   2.352   6.180  14.577  1.2553  1.4052 -1.1559
13192TIP3   OH260990   0.745   0.138  12.820 -0.1060 -0.3605 -0.5454
13192TIP3    H160991   0.663   0.173  12.785 -0.9433 -2.3912 -0.7658
13192TIP3    H260992   0.795   0.112  12.743 -0.2603 -1.2052 -0.3782
13193TIP3   OH260993   3.551   5.803   6.003  0.3536 -0.2305  0.0840
13193TIP3    H160994   3.470   5.758   5.978 -1.2561  0.9346  2.6993
13193TIP3    H260995   3.606   5.735   6.041 -0.6917 -0.6028  0.9957
13194TIP3   OH260996   1.060   5.043   0.177  0.5233 -0.5425  0.1487
13194TIP3    H160997   1.106   5.125   0.193  0.2962 -0.4365  0.2600
13194TIP3    H260998   0.974   5.069   0.146  0.9172 -0.7426 -1.1862
13195TIP3   OH260999   5.820   5.145   1.200  0.3946  0.4925 -0.2146
13195TIP3    H161000   5.799   5.201   1.275  0.6804  0.0069  0.2433
13195TIP3    H261001   5.909   5.115   1.218  0.1172 -0.3876 -0.2658
13196TIP3   OH261002   5.934   2.756   5.657 -0.7155  0.4162  0.7883
13196TIP3    H161003   5.964   2.821   5.720  1.4750 -0.9874  1.3467
13196TIP3    H261004   5.948   2.672   5.701 -1.5147 -0.5076 -0.6344
13197TIP3   OH261005   6.114   0.893   0.177 -0.1681  0.1915  0.3292
13197TIP3    H161006   6.026   0.873   0.209 -0.7434  2.4887  0.3596
13197TIP3    H261007   6.102   0.912   0.084  0.3019  0.4118  0.3102
13198TIP3   OH261008   4.622   4.662   4.779 -0.0810 -0.2761 -0.0883
13198TIP3    H161009   4.662   4.696   4.859  0.1160 -0.8944  0.0816
13198TIP3    H261010   4.630   4.567   4.787 -2.0051 -0.4519  0.1724
13199TIP3   OH261011   6.008   1.012  15.252  0.2305 -0.0121 -0.3410
13199TIP3    H161012   6.046   0.938  15.205 -2.9093 -2.5733  0.7547
13199TIP3    H261013   5.982   1.074  15.183 -1.6708 -2.3465 -1.9037
13200TIP3   OH261014   2.957   4.590  11.695 -0.0601 -0.0315  0.1780
13200TIP3    H161015   2.891   4.521  11.684  2.0121 -2.1674  0.2378
13200TIP3    H261016   2.941   4.625  11.783 -0.8245 -0.8171  0.3685
13201TIP3   OH261017   5.243   2.235  11.118 -0.0145 -0.2382  0.6273
13201TIP3    H161018   5.306   2.243  11.046 -1.0222 -2.3346 -0.5792
13201TIP3    H261019   5.159   2.218  11.075 -1.0031  0.1657  2.2759
13202TIP3   OH261020   2.968   6.344  14.028  0.1073 -0.2756  0.4661
13202TIP3    H161021   3.062   6.342  14.047 -0.2154 -0.7005  2.1780
13202TIP3    H261022   2.933   6.409  14.089 -0.7821 -0.4825  0.1859
13203TIP3   OH261023   5.986   3.731   1.204  0.5343  0.1514  0.0840
13203TIP3    H161024   5.996   3.698   1.115  3.0201 -0.8700  0.6624
13203TIP3    H261025   5.892   3.724   1.222  0.2480 -1.4230 -1.7672
13204TIP3   OH261026   0.618   0.322   4.094 -0.5226 -0.0359 -0.4255
13204TIP3    H161027   0.628   0.241   4.144  3.4495 -0.1287 -1.0152
13204TIP3    H261028   0.551   0.371   4.141  0.7997 -1.3649  3.2376
13205TIP3   OH261029   4.310   1.187   5.680 -0.4779 -0.3113  0.2010
13205TIP3    H161030   4.276   1.206   5.768  0.4183 -1.1737  0.7597
13205TIP3    H261031   4.352   1.101   5.689  2.6645  1.0498 -0.1737
13206TIP3   OH261032   3.603   2.338  11.770  0.7878  0.0287  0.2545
13206TIP3    H161033   3.618   2.251  11.733 -1.2803 -0.6684  0.9358
13206TIP3    H261034   3.607   2.324  11.865 -0.9874  0.3482  0.4042
13207TIP3   OH261035   6.558   1.160   1.283 -0.2175  0.1208 -0.2072
13207TIP3    H161036   6.611   1.096   1.331 -1.5422 -0.3850  0.6461
13207TIP3    H261037   6.502   1.200   1.350  0.6043  2.2486 -0.7076
13208TIP3   OH261038   3.771   0.069   5.925  0.1605 -0.0285 -0.7617
13208TIP3    H161039   3.735  -0.016   5.902  1.9780 -1.2599  0.7063
13208TIP3    H261040   3.717   0.098   5.999 -0.2514 -0.0427 -1.0517
13209TIP3   OH261041   6.315   5.713  14.532 -0.3384 -0.6018  0.0175
13209TIP3    H161042   6.255   5.640  14.515 -2.1082  0.5757  0.8344
13209TIP3    H261043   6.260   5.791  14.522  1.0401  0.5291  0.9385
13210TIP3   OH261044   2.219   4.550   6.275  0.2415  0.2847  0.3733
13210TIP3    H161045   2.248   4.461   6.291 -0.3023  0.5798  3.7034
13210TIP3    H261046   2.134   4.556   6.320 -0.1725  2.2269 -0.5556
13211TIP3   OH261047   5.876   4.180  12.502 -0.3160  0.1188  0.0484
13211TIP3    H161048   5.911   4.115  12.441  0.2014  1.4380 -1.1181
13211TIP3    H261049   5.944   4.190  12.568  0.0900  0.2811 -0.3896
13212TIP3   OH261050   3.683   5.039   0.529 -0.8749  0.2629 -0.3933
13212TIP3    H161051   3.723   5.126   0.532  0.8919 -0.4851 -1.0868
13212TIP3    H261052   3.658   5.028   0.437  2.5510 -1.4528 -1.2598
13213TIP3   OH261053   6.282   3.306   4.107  0.3793  0.1117 -0.1577
13213TIP3    H161054   6.205   3.252   4.090 -0.4438  1.0344  0.5584
13213TIP3    H261055   6.344   3.282   4.038 -1.1818  0.5724 -1.7751
13214TIP3   OH261056   0.603   0.815   0.981 -0.4780 -0.4237  0.0561
13214TIP3    H161057   0.576   0.850   0.896  0.9594  0.8094  0.0682
13214TIP3    H261058   0.666   0.746   0.960 -0.6466 -0.5958  0.1120
13215TIP3   OH261059   3.808   3.642   2.925  0.5893  0.4571  0.5367
13215TIP3    H161060   3.792   3.557   2.883  0.8920  1.1058 -0.9587
13215TIP3    H261061   3.887   3.628   2.977  1.2309  0.0654 -0.5020
13216TIP3   OH261062   5.025   6.324   3.918 -0.0931  0.0143  0.1045
13216TIP3    H161063   5.051   6.250   3.972  0.9310 -0.3241 -0.8267
13216TIP3    H261064   5.093   6.331   3.852 -0.7356  1.1254 -0.4712
13217TIP3   OH261065   3.001   1.713  15.198  0.3861 -0.5596 -0.1740
13217TIP3    H161066   2.949   1.723  15.278  1.4918  1.4809  0.3491
13217TIP3    H261067   2.960   1.639  15.153 -1.3184 -0.7040  1.4587
13218TIP3   OH261068   4.616   5.049  16.396 -0.0607 -0.1206 -0.1115
13218TIP3    H161069   4.606   5.012  16.308 -0.9008 -0.2837  0.0374
13218TIP3    H261070   4.547   5.006  16.447 -0.5784  1.0890  0.2461
13219TIP3   OH261071   3.743   4.536   3.592  0.1220  1.0840  0.0964
13219TIP3    H161072   3.664   4.499   3.555  0.8121 -2.5607  1.8547
13219TIP3    H261073   3.813   4.510   3.532  0.3407  1.7895  0.0334
13220TIP3   OH261074   3.160   2.489   4.351 -0.7373 -0.0778  0.3318
13220TIP3    H161075   3.089   2.545   4.382  0.5086  2.6360 -1.2876
13220TIP3    H261076   3.143   2.480   4.257 -0.2625 -1.4938  0.3707
13221TIP3   OH261077   4.277   1.949   0.691  0.5592  0.7669 -0.8930
13221TIP3    H161078   4.264   1.980   0.781  1.0697 -0.2480 -0.4430
13221TIP3    H261079   4.321   1.865   0.702 -1.1664 -0.3507 -2.0234
13222TIP3   OH261080   0.682   5.203   5.174  0.3140  0.2989  0.0274
13222TIP3    H161081   0.616   5.249   5.122  1.4889 -0.0575 -1.9006
13222TIP3    H261082   0.765   5.247   5.151  1.1738 -1.3985 -0.2516
13223TIP3   OH261083   0.225   3.772  16.293 -0.2367 -0.5089 -0.3156
13223TIP3    H161084   0.230   3.802  16.384 -0.1867 -0.0092 -0.4800
13223TIP3    H261085   0.191   3.847  16.245  1.0045 -0.3234 -0.9289
13224TIP3   OH261086   5.429   5.147   4.900 -0.0822 -0.7339  0.0741
13224TIP3    H161087   5.475   5.196   4.968 -1.5777 -0.6520  1.0573
13224TIP3    H261088   5.432   5.204   4.823  1.2063 -0.6234  0.1883
13225TIP3   OH261089   5.848   4.757  16.605  0.7631  0.3322  0.0693
13225TIP3    H161090   5.825   4.739  16.514 -0.6400 -0.0076  0.4701
13225TIP3    H261091   5.926   4.704  16.621 -0.2293 -1.3274 -0.3193
13226TIP3   OH261092   4.861   1.071   3.309  0.6193  0.0515 -0.0244
13226TIP3    H161093   4.866   1.011   3.384 -0.8600 -1.7618 -1.2801
13226TIP3    H261094   4.870   1.015   3.233  0.5114  1.6300 -1.2520
13227TIP3   OH261095   4.429   1.642  17.214  0.0808 -0.3887  0.6288
13227TIP3    H161096   4.369   1.612  17.282  0.4391  0.2210  1.2245
13227TIP3    H261097   4.394   1.605  17.133  0.0281 -1.6929  1.2237
13228TIP3   OH261098   1.341   0.259   1.285  0.3702  0.4360 -0.0696
13228TIP3    H161099   1.252   0.292   1.273  0.2771  0.0575 -0.4896
13228TIP3    H261100   1.361   0.215   1.202  0.6890 -0.0673  0.2640
13229TIP3   OH261101   2.234   2.534  14.304  0.2436 -0.2149  0.1107
13229TIP3    H161102   2.221   2.458  14.247  1.6391 -0.4220  0.0434
13229TIP3    H261103   2.161   2.593  14.282  0.9368 -0.1082 -2.2014
13230TIP3   OH261104   4.329   1.422   2.890  0.5191  0.4810  0.4295
13230TIP3    H161105   4.334   1.366   2.967 -0.6394  0.0333  0.2151
13230TIP3    H261106   4.270   1.374   2.831  0.3102  1.4588 -0.1698
13231TIP3   OH261107   0.115   0.433  10.503  0.5931  0.1961  0.4238
13231TIP3    H161108   0.121   0.497  10.574  1.7014  0.7943 -0.1838
13231TIP3    H261109   0.027   0.397  10.511  0.6627  0.3096  2.0385
13232TIP3   OH261110   5.918   2.898  12.356 -0.0882  0.4254  0.1615
13232TIP3    H161111   5.925   2.965  12.287 -0.6714  0.6244  0.2894
13232TIP3    H261112   5.865   2.829  12.316 -0.1231  0.3800  0.2876
13233TIP3   OH261113   4.876   3.704   0.554 -0.0469  0.3112 -0.8843
13233TIP3    H161114   4.906   3.789   0.521 -0.0748  0.1041 -1.4538
13233TIP3    H261115   4.785   3.698   0.523 -0.8730  1.1338  1.1898
13234TIP3   OH261116   4.910   1.864  15.700  0.0674  0.4816 -0.6065
13234TIP3    H161117   4.823   1.848  15.664  0.5538 -0.4443 -1.4303
13234TIP3    H261118   4.959   1.784  15.682  1.1797  1.0903 -0.4163
13235TIP3   OH261119   4.592   2.319  16.190  0.4281  0.2036  0.3217
13235TIP3    H161120   4.596   2.402  16.237  0.1694  0.6251 -0.3790
13235TIP3    H261121   4.506   2.283  16.212  1.7100 -1.4711  3.1921
13236TIP3   OH261122   1.012   3.179   2.670 -0.1530 -0.3427 -0.0398
13236TIP3    H161123   1.087   3.135   2.629 -1.0331 -0.4130 -1.6771
13236TIP3    H261124   1.044   3.267   2.691  1.1715 -1.2185  1.8647
13237TIP3   OH261125   6.480   6.548   4.471  0.6970 -0.0487 -0.7243
13237TIP3    H161126   6.506   6.493   4.398  0.0910 -0.2881 -0.7662
13237TIP3    H261127   6.406   6.599   4.438  1.2327  0.7905 -0.6852
13238TIP3   OH261128   3.752   4.739   5.316 -0.2626 -0.2795  0.4743
13238TIP3    H161129   3.792   4.659   5.283  0.1213 -0.1503  0.6259
13238TIP3    H261130   3.801   4.760   5.395 -1.6108 -0.9714  1.5507
13239TIP3   OH261131   0.427   0.034   5.421 -0.0226  0.0925 -0.3570
13239TIP3    H161132   0.480  -0.044   5.408  0.0516  0.2012 -0.6899
13239TIP3    H261133   0.362   0.031   5.351  0.7542  0.9898 -1.1427
13240TIP3   OH261134   0.215   6.393  14.372 -0.0085  0.8138  0.1083
13240TIP3    H161135   0.309   6.411  14.381 -0.0730  1.1096  0.2094
13240TIP3    H261136   0.204   6.373  14.279  0.1039  1.0993  0.0293
13241TIP3   OH261137   4.634   4.994   4.901  0.0657  0.1583 -0.4409
13241TIP3    H161138   4.596   5.026   4.983  0.0398 -0.4577 -0.2073
13241TIP3    H261139   4.726   4.976   4.923 -0.3013 -1.4439 -0.1326
13242TIP3   OH261140   6.204   2.858   4.062  0.5346  0.0688  0.0155
13242TIP3    H161141   6.246   2.794   4.004  1.8342  0.1549  0.8285
13242TIP3    H261142   6.156   2.804   4.126  1.5889 -0.1249  0.6718
13243TIP3   OH261143   1.668   5.554  16.241 -0.0917  0.0699  0.2707
13243TIP3    H161144   1.662   5.643  16.276  1.0427 -0.3350  1.6154
13243TIP3    H261145   1.673   5.498  16.318  1.5000 -0.9637 -0.5071
13244TIP3   OH261146   3.999   5.874  16.357  0.8605  0.2429 -0.2532
13244TIP3    H161147   4.022   5.852  16.448  1.9316 -1.5450 -0.9066
13244TIP3    H261148   4.025   5.796  16.307 -1.3757  0.4717 -1.8660
13245TIP3   OH261149   2.429   1.052  15.018 -0.1883 -0.0864 -0.1672
13245TIP3    H161150   2.505   1.105  15.043 -1.0396  0.8523  0.4992
13245TIP3    H261151   2.386   1.102  14.949 -2.0115  1.0795  1.6903
13246TIP3   OH261152   2.247   5.454   2.627 -0.0892 -0.6933 -0.0596
13246TIP3    H161153   2.271   5.424   2.715  1.9757 -1.8008 -0.9470
13246TIP3    H261154   2.248   5.375   2.573  3.0824  0.4492 -1.9514
13247TIP3   OH261155   5.310   5.639   4.005  0.2748 -0.0506  0.0927
13247TIP3    H161156   5.324   5.556   3.959  2.1470  1.5897 -2.5824
13247TIP3    H261157   5.217   5.637   4.031  0.1133 -2.6674 -0.4043
13248TIP3   OH261158   6.541   4.640  15.274  0.1077 -0.6271 -0.1132
13248TIP3    H161159   6.461   4.587  15.276 -0.3169 -0.0065 -0.0854
13248TIP3    H261160   6.509   4.730  15.281  0.7933 -0.3516 -0.5029
13249TIP3   OH261161   3.969   2.736   3.509 -0.0920  0.6501 -0.2140
13249TIP3    H161162   3.999   2.712   3.597  0.6448 -1.8945 -1.0711
13249TIP3    H261163   3.875   2.717   3.510 -0.4222  2.1837  0.4655
13250TIP3   OH261164   5.617   2.778  15.359  0.4203 -0.0863  0.0341
13250TIP3    H161165   5.578   2.691  15.349 -0.4339  0.3282 -0.3762
13250TIP3    H261166   5.656   2.796  15.273 -1.5348  0.9193 -0.7107
13251TIP3   OH261167   0.046   2.211  15.139 -0.0991 -0.3329 -0.3885
13251TIP3    H161168   0.029   2.180  15.228  1.0072 -1.0457 -0.3972
13251TIP3    H261169  -0.040   2.223  15.100 -0.5789 -1.5837  0.2518
13252TIP3   OH261170   5.284   3.660   4.589 -0.1090 -0.1311 -0.1859
13252TIP3    H161171   5.243   3.706   4.516  0.4869 -2.4411 -2.0949
13252TIP3    H261172   5.364   3.709   4.607 -1.0059  1.3286 -0.0135
13253TIP3   OH261173   0.903   2.404  13.537  0.5944 -0.1416  0.1225
13253TIP3    H161174   0.967   2.339  13.509  0.1062 -0.2280 -0.8776
13253TIP3    H261175   0.818   2.360  13.529  0.1828  0.8073 -1.3249
13254TIP3   OH261176   4.359   4.567   3.231  0.2207  0.5799  0.2291
13254TIP3    H161177   4.429   4.626   3.203  1.6326 -0.7291  0.8678
13254TIP3    H261178   4.303   4.621   3.287  1.6484  1.2566  1.0735
13255TIP3   OH261179   4.898   2.968  14.489 -0.0202  0.1414 -0.3799
13255TIP3    H161180   4.948   3.012  14.557 -3.0173 -0.5128  2.5380
13255TIP3    H261181   4.857   3.038  14.439  0.7969  0.6445 -0.3525
13256TIP3   OH261182   1.236   4.214   1.553  0.2509  0.3112 -0.6211
13256TIP3    H161183   1.155   4.216   1.502 -1.4155 -0.9243  1.7927
13256TIP3    H261184   1.232   4.292   1.608 -0.7458 -1.1003  1.4361
13257TIP3   OH261185   4.483   2.737  17.124  0.6467  0.4520 -0.1724
13257TIP3    H161186   4.503   2.759  17.215 -0.7866  0.3108  0.1987
13257TIP3    H261187   4.490   2.820  17.077 -1.9921  1.2754  0.7186
13258TIP3   OH261188   3.016   6.136  12.865 -0.0732 -0.4665  0.0010
13258TIP3    H161189   3.097   6.159  12.910  1.1094 -2.4635 -0.9736
13258TIP3    H261190   2.983   6.060  12.912 -1.4138  0.3064  0.3676
13259TIP3   OH261191   5.947   3.659   1.795  0.0856 -0.3209 -0.3582
13259TIP3    H161192   5.930   3.671   1.702 -0.7166 -0.0234 -0.1832
13259TIP3    H261193   5.975   3.745   1.826  0.2488 -0.3929 -0.3063
13260TIP3   OH261194   2.941   2.836   0.560 -0.3325  0.3458 -0.2253
13260TIP3    H161195   3.003   2.908   0.549 -0.5802  0.5473 -0.3193
13260TIP3    H261196   2.874   2.851   0.493 -0.4456  0.0924 -0.1716
13261TIP3   OH261197   0.303   2.176   1.775  0.0043 -0.2324 -0.3004
13261TIP3    H161198   0.231   2.192   1.714 -0.4115  0.1603  0.2890
13261TIP3    H261199   0.347   2.099   1.740 -0.4075 -0.1869 -0.9338
13262TIP3   OH261200   1.725   5.457  16.736  0.4690  0.5048 -0.1721
13262TIP3    H161201   1.801   5.428  16.685 -0.2873 -2.4031  0.1977
13262TIP3    H261202   1.763   5.505  16.810  1.9759 -0.8317 -0.0275
13263TIP3   OH261203   0.480   1.785  12.102  0.2708 -0.1348  0.2479
13263TIP3    H161204   0.446   1.785  12.012  1.5763 -1.9796 -0.3209
13263TIP3    H261205   0.491   1.692  12.123 -1.2655  0.2086  2.8689
13264TIP3   OH261206   4.076   2.530   3.122  0.1223  0.2266  0.1708
13264TIP3    H161207   4.136   2.557   3.191 -0.5904  1.4512  0.3506
13264TIP3    H261208   4.015   2.470   3.165 -0.2714  0.9233  0.5982
13265TIP3   OH261209   5.029   4.786   0.454 -0.5895 -0.3296  0.1456
13265TIP3    H161210   4.967   4.748   0.516  0.0585 -0.6870  0.5812
13265TIP3    H261211   5.115   4.757   0.485 -0.2247 -0.1092 -0.6375
13266TIP3   OH261212   6.551   3.116   3.336  0.1594  0.1060 -0.5051
13266TIP3    H161213   6.611   3.188   3.315 -1.1782  2.1323  1.9935
13266TIP3    H261214   6.597   3.064   3.401 -0.3806  1.1586  0.7618
13267TIP3   OH261215   6.076   5.880  12.068  0.3265  0.1338  0.0886
13267TIP3    H161216   6.110   5.793  12.090 -0.8987 -0.9898 -2.0801
13267TIP3    H261217   5.982   5.867  12.056  0.4890  0.9899 -3.2161
13268TIP3   OH261218   0.072   4.511  13.381  0.0111 -0.0489  0.8332
13268TIP3    H161219   0.094   4.512  13.288  0.0930 -0.2915  0.8478
13268TIP3    H261220   0.070   4.603  13.406  1.0893 -0.0094  0.8468
13269TIP3   OH261221   5.721   5.195  14.275  0.3245 -0.6611  0.3803
13269TIP3    H161222   5.738   5.109  14.238  0.7710 -0.2398 -0.4250
13269TIP3    H261223   5.692   5.178  14.365  2.0876 -1.5651  0.8222
13270TIP3   OH261224   3.620   3.708   3.613 -0.4223  0.5036  0.1353
13270TIP3    H161225   3.677   3.672   3.681 -0.6746  2.8103  1.6952
13270TIP3    H261226   3.532   3.681   3.639 -0.3441 -0.4388 -0.5316
13271TIP3   OH261227   5.582   5.047   1.801 -0.0746 -0.6668  0.4723
13271TIP3    H161228   5.524   5.091   1.739 -0.8614 -1.0681  0.9053
13271TIP3    H261229   5.526   5.025   1.875  1.2522  1.5673  2.2616
13272TIP3   OH261230   5.613   6.684   2.280 -0.2950  0.0423  0.3461
13272TIP3    H161231   5.596   6.777   2.261  2.1001  0.5955  0.5440
13272TIP3    H261232   5.552   6.662   2.350 -1.7839  1.0884 -0.5620
13273TIP3   OH261233   4.684   4.943  11.194 -0.2014  0.0766 -1.0943
13273TIP3    H161234   4.723   4.878  11.253 -2.2621 -0.3737 -0.1306
13273TIP3    H261235   4.706   4.912  11.106  0.2169 -1.0345 -0.6126
13274TIP3   OH261236   2.427   2.047  15.362 -0.1024  1.0453  0.4509
13274TIP3    H161237   2.407   2.037  15.455  1.3520  1.5798  0.8474
13274TIP3    H261238   2.473   2.131  15.356 -0.0681  0.9630 -0.7424
13275TIP3   OH261239   3.460   2.931   3.614  0.6177  0.9101  0.0666
13275TIP3    H161240   3.404   2.863   3.575  0.9329  1.1606 -0.8528
13275TIP3    H261241   3.416   3.013   3.593  0.3225  1.0173  1.0390
13276TIP3   OH261242   0.285   3.632   5.480  0.2337 -0.1121  1.0952
13276TIP3    H161243   0.309   3.688   5.406  1.4788 -0.8361  0.9245
13276TIP3    H261244   0.264   3.694   5.550  0.4947  0.5800  0.5729
13277TIP3   OH261245   5.289   5.376   3.864 -0.4462 -0.5116  0.0368
13277TIP3    H161246   5.249   5.315   3.803 -0.0954 -1.1840  0.4685
13277TIP3    H261247   5.380   5.381   3.838 -0.4963 -0.0796 -0.0669
13278TIP3   OH261248   3.051   4.808   1.711 -0.4897  0.1872 -0.5736
13278TIP3    H161249   3.072   4.873   1.643 -0.4807 -0.7285 -1.4762
13278TIP3    H261250   2.958   4.823   1.729 -0.5842  0.2096 -1.0477
13279TIP3   OH261251   4.894   2.913  16.666  0.1411  0.0408 -0.3586
13279TIP3    H161252   4.943   2.983  16.623  0.7286  0.2754  0.6490
13279TIP3    H261253   4.943   2.896  16.747 -1.9430  1.0013  1.2044
13280TIP3   OH261254   5.459   1.228  16.279  0.1405 -0.1895  0.0889
13280TIP3    H161255   5.528   1.294  16.271 -1.6116  2.1018  2.5290
13280TIP3    H261256   5.402   1.244  16.204  0.0322  0.7236  0.3583
13281TIP3   OH261257   5.432   5.158   2.919  0.3717  0.2538 -0.1753
13281TIP3    H161258   5.399   5.223   2.981 -1.1906 -0.9088  0.2714
13281TIP3    H261259   5.456   5.209   2.841  1.5631  1.6358  1.0491
13282TIP3   OH261260   4.094   0.429   1.340 -0.1211  0.7700 -0.6718
13282TIP3    H161261   4.014   0.481   1.336 -0.1481  0.6819 -1.3711
13282TIP3    H261262   4.096   0.395   1.430  0.0670  2.2241 -0.1060
13283TIP3   OH261263   4.288   2.622   1.904 -0.3512  0.8157 -0.1130
13283TIP3    H161264   4.326   2.650   1.820 -1.4134  0.4187 -0.7416
13283TIP3    H261265   4.196   2.649   1.899 -1.0185 -1.2524 -0.0530
13284TIP3   OH261266   0.278   3.181  17.359  0.0191  0.5595 -0.0762
13284TIP3    H161267   0.206   3.123  17.335  0.4331  0.2954 -0.7135
13284TIP3    H261268   0.335   3.182  17.281  0.6428  0.8472  0.3748
13285TIP3   OH261269   3.022   1.016   5.964 -0.1229 -0.3482  0.1068
13285TIP3    H161270   3.039   1.031   6.057 -2.3018  0.0333  0.4945
13285TIP3    H261271   2.974   0.933   5.961  0.7948 -0.8703 -0.7917
13286TIP3   OH261272   5.703   6.691   5.152  0.2020  0.2477 -0.1093
13286TIP3    H161273   5.781   6.642   5.129  0.7144  1.1128 -0.2450
13286TIP3    H261274   5.722   6.781   5.127 -1.0482  0.3840 -0.6450
13287TIP3   OH261275   1.724   3.246   6.473  0.5105 -0.0631  0.0852
13287TIP3    H161276   1.669   3.312   6.430  0.6449 -0.6032 -0.9562
13287TIP3    H261277   1.674   3.165   6.464  1.5904 -0.6307 -1.1771
13288TIP3   OH261278   0.881   3.410  14.345 -0.5394  0.1798 -0.2944
13288TIP3    H161279   0.848   3.500  14.337 -0.8255 -0.0142 -1.4078
13288TIP3    H261280   0.872   3.373  14.257 -0.3472 -0.9143  0.1311
13289TIP3   OH261281   4.684   2.210   4.339  0.1432 -0.4500  0.0102
13289TIP3    H161282   4.614   2.162   4.383  0.9098  0.3311  2.1986
13289TIP3    H261283   4.648   2.298   4.327 -0.2597 -0.7861 -1.5252
13290TIP3   OH261284   1.570   1.828  12.582 -0.4181  0.2375  0.1195
13290TIP3    H161285   1.604   1.886  12.513 -0.6295  0.3834  0.1377
13290TIP3    H261286   1.555   1.745  12.538  2.0593 -0.5261  0.5711
13291TIP3   OH261287   0.233   1.825  11.571 -0.0513 -0.0366  0.0199
13291TIP3    H161288   0.206   1.912  11.544  1.5384  1.8045  3.6181
13291TIP3    H261289   0.326   1.820  11.547  0.3185  0.0320  1.3445
13292TIP3   OH261290   0.050   4.113   5.108  0.0727  0.6522 -0.8666
13292TIP3    H161291  -0.029   4.064   5.087 -0.2028  0.9556 -0.5275
13292TIP3    H261292   0.019   4.194   5.147  0.5733 -0.1318  1.3111
13293TIP3   OH261293   0.684   4.671  14.283 -0.5298 -0.1233 -0.4849
13293TIP3    H161294   0.730   4.592  14.256 -0.1057 -0.2025  0.4338
13293TIP3    H261295   0.746   4.717  14.339 -1.0507  0.4864 -0.3945
13294TIP3   OH261296   6.434   2.012   3.180  0.0683 -0.2855 -0.8876
13294TIP3    H161297   6.375   1.978   3.247  1.2241 -1.5486 -0.4452
13294TIP3    H261298   6.488   2.077   3.225  0.0074 -0.2191 -0.9112
13295TIP3   OH261299   3.698   4.132   4.380  0.2230  0.2088  0.0217
13295TIP3    H161300   3.755   4.164   4.450  1.7493 -0.7786 -0.7236
13295TIP3    H261301   3.680   4.209   4.326  1.0884  0.4898  0.1237
13296TIP3   OH261302   3.790   5.826  16.125  0.3381  0.3240  0.3386
13296TIP3    H161303   3.779   5.918  16.105 -0.1804  0.1281 -0.3125
13296TIP3    H261304   3.875   5.821  16.169 -0.4799  1.3573  2.1343
13297TIP3   OH261305   6.447   1.962   0.840  0.5445  0.1125 -0.4204
13297TIP3    H161306   6.472   2.047   0.805 -1.4735  1.0932  0.3766
13297TIP3    H261307   6.364   1.942   0.798  0.5083 -1.0099  0.1422
13298TIP3   OH261308   4.373   4.139  13.490  0.3584  0.0912 -0.1559
13298TIP3    H161309   4.455   4.152  13.537  0.3218 -1.9066  0.5372
13298TIP3    H261310   4.308   4.125  13.559 -0.0848 -0.8254 -0.7456
13299TIP3   OH261311   3.571   4.391   3.825  0.6357 -0.0853 -0.2660
13299TIP3    H161312   3.530   4.395   3.911  1.4313 -0.6272  0.1375
13299TIP3    H261313   3.530   4.464   3.777  0.1657  0.2040  0.5450
13300TIP3   OH261314   1.823   1.585  12.485  0.9185 -0.3769  0.2552
13300TIP3    H161315   1.833   1.587  12.580  0.6725  1.0261  0.2720
13300TIP3    H261316   1.729   1.586  12.471  0.9517  0.6032  0.0073
13301TIP3   OH261317   6.108   3.228   4.612  0.2319 -0.0124  0.4862
13301TIP3    H161318   6.026   3.278   4.616 -0.8246 -1.1469 -3.0109
13301TIP3    H261319   6.098   3.173   4.535  2.9930 -2.6781  1.8254
13302TIP3   OH261320   0.214   5.060   1.568  0.0239  0.3695  0.0006
13302TIP3    H161321   0.256   5.094   1.489 -0.0604  1.0304  0.2294
13302TIP3    H261322   0.186   5.139   1.615 -0.0987 -0.0236  0.5909
13303TIP3   OH261323   6.558   4.945  15.798 -0.0663 -0.2445 -0.6840
13303TIP3    H161324   6.471   4.909  15.816 -0.0390  0.1297  0.2704
13303TIP3    H261325   6.618   4.880  15.836  0.0789 -0.5457 -1.4205
13304TIP3   OH261326   2.426   6.170  12.080  0.2899 -0.2336 -0.2741
13304TIP3    H161327   2.479   6.102  12.119  1.3872  1.8223  2.1321
13304TIP3    H261328   2.481   6.209  12.012  0.0536 -1.0394 -0.9367
13305TIP3   OH261329   1.245   3.708  13.377 -0.0190 -0.0623 -0.2803
13305TIP3    H161330   1.209   3.751  13.299 -2.2029  0.3284  0.8797
13305TIP3    H261331   1.185   3.730  13.447 -0.2799 -3.4907  0.7899
13306TIP3   OH261332   1.874   0.464   5.450 -0.0399  0.4792  0.0257
13306TIP3    H161333   1.904   0.476   5.540  1.6706 -0.8242 -0.3079
13306TIP3    H261334   1.879   0.552   5.411  2.2805  0.5655  0.3653
13307TIP3   OH261335   3.330   4.799   1.572  0.2942  0.4218 -0.4409
13307TIP3    H161336   3.381   4.879   1.587 -1.5102  1.4393  0.7381
13307TIP3    H261337   3.289   4.781   1.657  1.0142 -2.0768 -0.5508
13308TIP3   OH261338   6.613   3.074   6.385  0.1285  0.0256 -0.5864
13308TIP3    H161339   6.579   3.162   6.370 -1.7113 -0.4739  0.3658
13308TIP3    H261340   6.660   3.052   6.305  1.4288  2.1965 -0.4899
13309TIP3   OH261341   3.830   1.582  12.307  0.2903 -0.1003  0.1225
13309TIP3    H161342   3.772   1.625  12.244 -0.1272 -0.9410 -0.0878
13309TIP3    H261343   3.918   1.612  12.283 -0.0257  1.0384  0.3264
13310TIP3   OH261344   6.618   3.744  12.373 -0.2592 -0.5771  0.0718
13310TIP3    H161345   6.544   3.791  12.410 -1.0337  0.9234 -3.0426
13310TIP3    H261346   6.652   3.803  12.306  3.7188 -1.2615  1.2067
13311TIP3   OH261347   5.829   3.327   4.687 -0.0034 -0.6997  0.0382
13311TIP3    H161348   5.869   3.313   4.772  0.5590  0.4065 -0.0332
13311TIP3    H261349   5.763   3.395   4.701  3.0345  2.8445 -1.1249
13312TIP3   OH261350   1.366   2.913  13.005  0.6131 -0.5011  0.3068
13312TIP3    H161351   1.333   2.992  13.048 -0.0619 -2.2835  3.3866
13312TIP3    H261352   1.461   2.920  13.012  0.6801  0.9239 -1.3406
13313TIP3   OH261353   3.817   6.488   4.751 -0.3281 -0.0568 -0.1258
13313TIP3    H161354   3.785   6.577   4.736  1.1382  0.3639 -0.8656
13313TIP3    H261355   3.738   6.438   4.771 -1.6035  0.8094 -2.5244
13314TIP3   OH261356   2.015   5.517   5.971  0.4440 -0.1465  0.1523
13314TIP3    H161357   2.034   5.432   5.930 -0.4868  0.2534 -1.1968
13314TIP3    H261358   2.065   5.516   6.052  0.5984 -1.9125  0.0858
13315TIP3   OH261359   4.498   5.609   1.390 -0.3733  0.2697  0.4315
13315TIP3    H161360   4.482   5.670   1.318  0.3844 -1.1721 -1.0391
13315TIP3    H261361   4.412   5.573   1.410 -0.5955  0.6888  0.2396
13316TIP3   OH261362   5.722   3.589   5.152 -0.4973  0.1455  0.1520
13316TIP3    H161363   5.645   3.569   5.206 -0.1858 -0.3882  0.4004
13316TIP3    H261364   5.721   3.521   5.084 -0.0290 -0.0879  0.3791
13317TIP3   OH261365   3.877   6.542  11.206  0.5771 -0.2021  0.0164
13317TIP3    H161366   3.961   6.565  11.167  0.8558 -1.2530 -0.0247
13317TIP3    H261367   3.818   6.530  11.132  0.4737  0.1794  0.0316
13318TIP3   OH261368   1.319   0.565  12.459  0.1750  0.3252  0.0105
13318TIP3    H161369   1.254   0.625  12.496  0.5829 -0.4061  2.0006
13318TIP3    H261370   1.356   0.519  12.534 -0.0174 -2.3568 -1.4210
13319TIP3   OH261371   3.518   2.303  13.584  0.2189 -0.4846  0.1233
13319TIP3    H161372   3.490   2.218  13.615 -0.2453  1.1355  5.0031
13319TIP3    H261373   3.453   2.328  13.518 -0.5750 -3.1406 -0.1795
13320TIP3   OH261374   6.529   1.599  17.184 -0.4830 -0.4531  0.3606
13320TIP3    H161375   6.571   1.619  17.101  0.1049 -0.5678  0.6295
13320TIP3    H261376   6.454   1.660  17.188 -0.3870 -0.2974 -0.1449
13321TIP3   OH261377   0.389   3.333   6.868 -0.0569 -0.5871 -0.7575
13321TIP3    H161378   0.454   3.374   6.810  2.4446 -0.4585  1.8797
13321TIP3    H261379   0.359   3.404   6.925 -0.1376 -1.2539  0.0554
13322TIP3   OH261380   3.270   3.083   6.339  0.3317  0.2103  0.4678
13322TIP3    H161381   3.229   3.042   6.415  1.3663  0.6499  1.2861
13322TIP3    H261382   3.277   3.012   6.275  2.7008 -1.1547  2.0890
13323TIP3   OH261383   0.025   4.767   1.252  0.1515  0.5088  0.2083
13323TIP3    H161384   0.003   4.688   1.202 -0.5186 -0.7407  2.3607
13323TIP3    H261385   0.050   4.831   1.185 -0.1454 -1.2292 -1.6719
13324TIP3   OH261386   1.028   2.962  13.651  0.0757  0.0257  0.2156
13324TIP3    H161387   0.988   3.001  13.574  1.5628  0.9593 -0.1268
13324TIP3    H261388   1.002   3.019  13.723  1.3745  1.0877 -0.1240
13325TIP3   OH261389   1.630   4.774   2.433  0.0994  0.0536 -0.4190
13325TIP3    H161390   1.588   4.832   2.369 -0.3904 -1.4377 -1.5186
13325TIP3    H261391   1.677   4.709   2.380  0.0108 -1.0076  0.7415
13326TIP3   OH261392   4.010   0.239  17.270  0.0413 -0.0996  0.6521
13326TIP3    H161393   4.057   0.268  17.348 -0.6409 -1.0218  1.4429
13326TIP3    H261394   4.061   0.273  17.196  0.2801  1.4421  1.4897
13327TIP3   OH261395   3.479   6.115  14.570  0.6837 -0.3206 -0.4432
13327TIP3    H161396   3.542   6.170  14.523 -0.1056  1.4665  0.5128
13327TIP3    H261397   3.512   6.111  14.660 -1.2437  1.9197  0.4698
13328TIP3   OH261398   0.045   4.392  11.160 -0.6967 -0.2097  1.3688
13328TIP3    H161399   0.098   4.326  11.204  0.3587  0.2572  0.8158
13328TIP3    H261400   0.107   4.460  11.134 -1.1559 -0.7395 -1.4203
13329TIP3   OH261401   3.609   4.895  16.255  0.1087 -0.3438  0.3917
13329TIP3    H161402   3.661   4.829  16.301  1.7212  1.2514  0.9553
13329TIP3    H261403   3.573   4.950  16.324  0.1517  0.3349 -0.1116
13330TIP3   OH261404   4.006   0.323   4.258  0.9312 -0.2045 -0.3260
13330TIP3    H161405   4.080   0.272   4.291  1.4032  0.7653  0.1563
13330TIP3    H261406   4.021   0.411   4.293  0.2041  0.2931 -1.2435
13331TIP3   OH261407   0.291   5.680   5.336 -0.1319 -0.2996 -0.1340
13331TIP3    H161408   0.227   5.750   5.326 -2.4828 -2.1911  0.5669
13331TIP3    H261409   0.250   5.619   5.398  2.2882 -1.7404  0.1834
13332TIP3   OH261410   2.358   1.295   2.557  0.5760  0.1270 -0.4416
13332TIP3    H161411   2.356   1.295   2.461  0.1172  1.2248 -0.4461
13332TIP3    H261412   2.278   1.250   2.583  0.6902 -0.1540 -0.5657
13333TIP3   OH261413   4.094   4.280  14.992  0.0216 -0.0794 -0.1487
13333TIP3    H161414   4.057   4.353  14.942 -2.5825 -1.0057  0.2594
13333TIP3    H261415   4.136   4.225  14.926  3.4666  2.3951 -0.3074
13334TIP3   OH261416   1.906   3.252  13.913 -0.0534 -0.0772 -0.1247
13334TIP3    H161417   1.817   3.278  13.890 -0.5238 -0.0266  1.5913
13334TIP3    H261418   1.926   3.180  13.854 -0.9876  0.3071 -0.9491
13335TIP3   OH261419   4.606   4.232   5.193  0.3832  0.4516 -0.0926
13335TIP3    H161420   4.677   4.255   5.133 -0.7787 -0.5539 -1.9321
13335TIP3    H261421   4.649   4.187   5.265  1.8502  1.9212  0.0132
13336TIP3   OH261422   3.491   4.097  17.192 -0.2146  0.3437  0.3019
13336TIP3    H161423   3.439   4.054  17.124  1.6933 -2.1816  0.2694
13336TIP3    H261424   3.498   4.188  17.165 -3.6444  0.5587 -0.2090
13337TIP3   OH261425   2.412   5.200  13.009  0.7966 -0.1861  0.2693
13337TIP3    H161426   2.431   5.293  12.996  0.9860 -0.2413  0.1449
13337TIP3    H261427   2.487   5.155  12.972 -0.3883 -0.4878 -1.9096
13338TIP3   OH261428   2.785   6.660  15.324  0.0364  0.4269 -0.1936
13338TIP3    H161429   2.768   6.627  15.412  0.3460  0.3717 -0.1508
13338TIP3    H261430   2.800   6.581  15.271  0.3425  0.4754 -0.1853
13339TIP3   OH261431   6.356   6.169   1.771 -0.4364 -0.5639 -0.1420
13339TIP3    H161432   6.354   6.078   1.743 -0.9204 -0.7453  0.4550
13339TIP3    H261433   6.449   6.189   1.779 -0.3265 -1.0282 -0.2122
13340TIP3   OH261434   1.170   0.645   1.454 -0.7452  0.2099  0.3975
13340TIP3    H161435   1.085   0.618   1.490 -1.4114  1.8200  0.1228
13340TIP3    H261436   1.178   0.594   1.374 -1.0619 -0.5756  0.8561
13341TIP3   OH261437   6.407   3.105  17.561 -0.5114  0.2783  0.2537
13341TIP3    H161438   6.346   3.150  17.502 -0.0074 -0.8512 -1.1617
13341TIP3    H261439   6.485   3.159  17.560 -0.8169  0.7404  0.6204
13342TIP3   OH261440   3.881   1.739   2.960  0.1087 -0.0658 -0.1241
13342TIP3    H161441   3.888   1.668   3.024 -0.2662  0.1717  0.1788
13342TIP3    H261442   3.825   1.804   3.001 -1.1668 -0.4661 -1.1838
13343TIP3   OH261443   0.219   3.411  13.270 -0.7717 -0.6492 -0.0034
13343TIP3    H161444   0.130   3.400  13.239 -0.7538 -1.2837  0.1519
13343TIP3    H261445   0.235   3.505  13.265 -1.4538 -0.5292 -0.0090
13344TIP3   OH261446   1.231   2.609  11.971 -0.0718  0.6406 -0.1700
13344TIP3    H161447   1.147   2.569  11.950  0.0181  0.5634 -0.3817
13344TIP3    H261448   1.236   2.607  12.067  1.0631 -2.2488 -0.1971
13345TIP3   OH261449   4.231   5.479   2.638 -0.3508  0.1820 -0.4798
13345TIP3    H161450   4.255   5.443   2.724  0.5027  0.2789 -0.6710
13345TIP3    H261451   4.297   5.444   2.578 -0.5686  0.6213 -0.9821
13346TIP3   OH261452   3.391   5.302   5.875  0.0014 -0.1782 -0.2359
13346TIP3    H161453   3.318   5.245   5.851  0.5000 -0.7307 -0.4751
13346TIP3    H261454   3.357   5.391   5.868 -0.7896 -0.4440  0.1314
13347TIP3   OH261455   2.371   6.586  14.713 -0.3825 -0.2218  0.2781
13347TIP3    H161456   2.280   6.578  14.686  0.5125 -0.6461 -3.0596
13347TIP3    H261457   2.397   6.497  14.737 -0.6636 -0.2163  0.6025
13348TIP3   OH261458   4.168   0.437  13.382  0.5582  0.3673  0.1252
13348TIP3    H161459   4.249   0.473  13.345 -0.6900  1.1597 -2.0000
13348TIP3    H261460   4.100   0.499  13.356 -0.4511  1.3360  4.3585
13349TIP3   OH261461   1.948   0.676   5.040 -0.5159  0.4294  0.0980
13349TIP3    H161462   1.992   0.722   5.111  1.4305 -0.4382 -0.4589
13349TIP3    H261463   1.948   0.739   4.967  0.2505  0.2948 -0.0302
13350TIP3   OH261464   3.264   4.707   6.913 -0.0094  0.0401  0.4083
13350TIP3    H161465   3.193   4.659   6.871 -0.8648  0.0013  1.8659
13350TIP3    H261466   3.340   4.689   6.858 -0.3946 -2.5947  0.6451
13351TIP3   OH261467   1.725   3.859   1.808 -0.4716  0.6438  0.4074
13351TIP3    H161468   1.766   3.789   1.858 -0.5575  1.9366  2.4585
13351TIP3    H261469   1.764   3.854   1.721  0.7770 -0.8496  1.0165
13352TIP3   OH261470   3.132   2.237  16.583 -0.0180  0.1882  0.7654
13352TIP3    H161471   3.182   2.176  16.637  0.5605  0.6844  0.8152
13352TIP3    H261472   3.184   2.246  16.503 -0.5280 -0.0306  0.4100
13353TIP3   OH261473   1.328   2.928   2.592 -0.2098  0.0753  0.3210
13353TIP3    H161474   1.242   2.899   2.562 -0.4946 -1.1714  2.1628
13353TIP3    H261475   1.324   3.023   2.588 -1.5243  0.0256 -0.0220
13354TIP3   OH261476   5.633   5.716   6.190  0.1300  0.1703  0.2407
13354TIP3    H161477   5.689   5.778   6.143 -2.7907  0.6400 -3.0510
13354TIP3    H261478   5.567   5.771   6.232  0.6523 -0.5061  2.0391
13355TIP3   OH261479   4.145   5.140   2.764  0.1079 -0.1466  0.4267
13355TIP3    H161480   4.087   5.066   2.745  0.3136 -0.2813  0.3273
13355TIP3    H261481   4.179   5.167   2.679 -1.3496  1.2165  0.2049
13356TIP3   OH261482   0.862   6.209   1.608 -0.0600  0.5307  0.3485
13356TIP3    H161483   0.948   6.225   1.647 -0.1463 -0.3812  0.9348
13356TIP3    H261484   0.829   6.131   1.653 -0.2925 -0.3802 -1.3301
13357TIP3   OH261485   3.715   1.330   0.264  0.0994  0.6687 -0.1367
13357TIP3    H161486   3.638   1.332   0.322 -0.0471 -4.6374  0.3659
13357TIP3    H261487   3.679   1.341   0.176 -1.0353 -0.0834  0.2110
13358TIP3   OH261488   1.672   6.096  15.731  0.2045  0.1414 -0.0752
13358TIP3    H161489   1.730   6.152  15.783 -0.7029 -0.3859  1.5968
13358TIP3    H261490   1.638   6.153  15.663  2.7228  0.4358 -1.1748
13359TIP3   OH261491   1.969   1.491  17.398  0.7787  0.1750 -0.0735
13359TIP3    H161492   1.899   1.554  17.379  1.4704  1.1724  0.5580
13359TIP3    H261493   1.966   1.429  17.325  0.4689  1.3128 -1.0675
13360TIP3   OH261494   2.374   5.782   6.109 -0.2513 -0.2058  0.4414
13360TIP3    H161495   2.330   5.866   6.099 -0.9096 -0.2612  2.3935
13360TIP3    H261496   2.408   5.783   6.199  1.6509 -1.1581 -0.2070
13361TIP3   OH261497   4.403   3.217   2.814  0.1334 -0.3722 -0.4143
13361TIP3    H161498   4.479   3.260   2.776  0.7818  0.4607  1.6581
13361TIP3    H261499   4.435   3.176   2.895 -1.1944 -1.8444 -0.5632
13362TIP3   OH261500   0.106   3.025   3.476 -0.4898  0.2026 -0.1120
13362TIP3    H161501   0.148   3.027   3.390 -1.0897  0.1037 -0.4168
13362TIP3    H261502   0.177   3.042   3.538 -0.7032  4.9839 -0.8366
13363TIP3   OH261503   0.273   5.617   4.693 -0.2235 -0.6414  0.2579
13363TIP3    H161504   0.300   5.608   4.602 -1.5598 -1.4566 -0.0841
13363TIP3    H261505   0.224   5.537   4.712  0.0024 -0.4689  1.6876
13364TIP3   OH261506   0.521   4.960  16.706  0.3470 -0.1329  0.3435
13364TIP3    H161507   0.448   4.925  16.757  0.6503 -0.0430  0.8501
13364TIP3    H261508   0.567   5.017  16.767  0.0213  0.9382 -0.3774
13365TIP3   OH261509   2.971   2.064   5.322 -0.1950 -0.4512  1.0565
13365TIP3    H161510   3.031   2.087   5.393 -0.7204 -0.0752  1.3913
13365TIP3    H261511   3.020   2.083   5.242  0.2387 -0.4417  1.3181
13366TIP3   OH261512   3.494   3.872   0.324  0.3210  0.3644  0.1183
13366TIP3    H161513   3.497   3.965   0.302  0.2812  0.2183 -0.5372
13366TIP3    H261514   3.428   3.836   0.264 -0.2261  0.0481  0.8879
13367TIP3   OH261515   3.902   3.646   4.844 -0.1413 -0.2504 -0.3001
13367TIP3    H161516   3.920   3.593   4.766 -0.7870  0.3209 -0.8427
13367TIP3    H261517   3.861   3.586   4.906  0.4425 -0.7237 -0.3668
13368TIP3   OH261518   5.306   6.352  12.837  0.2146 -0.1929 -0.1734
13368TIP3    H161519   5.345   6.294  12.902  1.5695 -0.2393 -0.9870
13368TIP3    H261520   5.358   6.337  12.758 -0.0648  1.3778 -0.6822
13369TIP3   OH261521   1.752   5.117  11.340  0.7272  0.1863 -0.0588
13369TIP3    H161522   1.796   5.033  11.355  3.1863  0.9052 -2.5792
13369TIP3    H261523   1.681   5.096  11.279  0.6328 -0.2308  0.1918
13370TIP3   OH261524   3.874   1.402  14.383  0.2359 -0.2953 -0.0149
13370TIP3    H161525   3.840   1.474  14.435 -1.3958 -1.2899  0.3762
13370TIP3    H261526   3.797   1.349  14.362  1.4264 -2.1511  0.0525
13371TIP3   OH261527   3.061   3.958  17.460  0.0663 -0.5057 -0.3027
13371TIP3    H161528   3.025   4.043  17.437  0.0481 -0.6173 -0.6885
13371TIP3    H261529   3.152   3.976  17.483 -0.2304 -0.2160  0.7231
13372TIP3   OH261530   2.251   0.480   6.458  0.3264  0.5318  0.2058
13372TIP3    H161531   2.316   0.542   6.490  0.4232  1.3120 -1.4155
13372TIP3    H261532   2.302   0.412   6.413  0.0691  2.3013 -3.0792
13373TIP3   OH261533   4.686   3.276  15.133 -0.4823 -0.2631 -0.3810
13373TIP3    H161534   4.651   3.188  15.146 -1.1138  0.2645  2.0515
13373TIP3    H261535   4.736   3.294  15.212  2.5936  0.3254 -2.2853
13374TIP3   OH261536   0.565   1.494   2.590  0.2453 -0.3092 -0.7100
13374TIP3    H161537   0.643   1.543   2.617  0.0538 -1.1225  1.5536
13374TIP3    H261538   0.492   1.551   2.614  0.0951 -0.0221 -1.8022
13375TIP3   OH261539   3.398   5.363  13.313 -0.3731  0.1204 -0.4952
13375TIP3    H161540   3.458   5.303  13.269  1.0629  0.0639  1.3912
13375TIP3    H261541   3.341   5.306  13.365 -3.4078  0.0291 -3.5908
13376TIP3   OH261542   6.482   1.091   2.901  0.4254 -0.1232  0.4858
13376TIP3    H161543   6.550   1.047   2.850  1.4941 -0.1895  1.9289
13376TIP3    H261544   6.513   1.182   2.908  0.1808 -0.0673  0.8472
13377TIP3   OH261545   0.495   6.309   0.374 -0.1104 -0.2893 -0.5593
13377TIP3    H161546   0.503   6.235   0.314  0.3086 -0.5917 -0.1384
13377TIP3    H261547   0.401   6.327   0.377 -0.1885 -0.6185 -0.8888
13378TIP3   OH261548   6.353   0.030   6.429 -0.3778 -0.3713 -0.4027
13378TIP3    H161549   6.440   0.048   6.464 -1.8015 -0.6133  3.8469
13378TIP3    H261550   6.361  -0.054   6.385  1.3231 -1.0059  1.0114
13379TIP3   OH261551   0.381   4.101   1.509 -0.0203 -0.4959  0.5772
13379TIP3    H161552   0.431   4.152   1.446 -0.3459 -0.1965  0.5549
13379TIP3    H261553   0.411   4.011   1.497  1.8251 -0.0920  1.8156
13380TIP3   OH261554   5.612   5.503  11.905  0.0593  0.2039  0.6369
13380TIP3    H161555   5.575   5.433  11.853  2.1768 -1.1730  0.8673
13380TIP3    H261556   5.645   5.566  11.841  0.1638 -0.1025  0.3894
13381TIP3   OH261557   3.303   2.342   1.911 -0.1523  0.5874  0.5485
13381TIP3    H161558   3.285   2.430   1.877 -0.1238  0.8569  1.2130
13381TIP3    H261559   3.219   2.297   1.908 -0.1897  0.6742  0.3017
13382TIP3   OH261560   0.219   5.138   4.528  0.2201 -0.0753 -0.2599
13382TIP3    H161561   0.171   5.219   4.511  0.9861  0.1361 -1.6447
13382TIP3    H261562   0.217   5.128   4.623 -1.3542  0.6429 -0.1838
13383TIP3   OH261563   5.786   0.761  13.471  0.2781 -0.1582  0.0324
13383TIP3    H161564   5.694   0.759  13.446  0.2226 -2.5258  0.2135
13383TIP3    H261565   5.833   0.734  13.392  0.4449 -2.9910  0.9782
13384TIP3   OH261566   0.989   1.270   3.964  0.0183  0.2082 -0.7171
13384TIP3    H161567   1.061   1.334   3.966  0.0768  0.1419  0.8057
13384TIP3    H261568   0.911   1.323   3.977  0.0714  0.0176  0.6118
13385TIP3   OH261569   6.446   5.788  13.269  0.0589  0.4095 -0.7306
13385TIP3    H161570   6.430   5.844  13.346  1.8202  0.6208 -0.4866
13385TIP3    H261571   6.407   5.837  13.196 -1.8058  0.1184  0.0115
13386TIP3   OH261572   0.947   2.221   0.221 -0.5338 -0.2127  0.3171
13386TIP3    H161573   1.021   2.239   0.164 -1.6798  2.5829 -0.4700
13386TIP3    H261574   0.889   2.165   0.169  0.7587 -2.0554  0.7836
13387TIP3   OH261575   3.277   0.827   4.212 -0.6052  0.0218 -0.4999
13387TIP3    H161576   3.258   0.878   4.290 -0.8262  0.8211 -1.0626
13387TIP3    H261577   3.234   0.742   4.227  0.0792 -0.1446  0.5999
13388TIP3   OH261578   5.736   5.005  14.696  0.4649 -0.3402  0.1374
13388TIP3    H161579   5.721   4.993  14.789  0.4622 -2.3943 -0.0774
13388TIP3    H261580   5.650   4.995  14.656  0.3431  1.2616 -0.0563
13389TIP3   OH261581   5.668   6.327  12.641 -0.2254 -0.1124  0.5205
13389TIP3    H161582   5.718   6.245  12.645  1.4310  0.8988  3.2546
13389TIP3    H261583   5.731   6.392  12.612 -0.4227  0.8529  2.1552
13390TIP3   OH261584   5.458   6.284   1.605 -0.0151  0.4709  0.0773
13390TIP3    H161585   5.478   6.263   1.697  1.1563 -0.5682 -0.3724
13390TIP3    H261586   5.523   6.350   1.581 -0.6366  1.1105  0.1179
13391TIP3   OH261587   6.548   4.082  17.552  1.1814 -0.3976 -0.3914
13391TIP3    H161588   6.522   3.991  17.542  0.4018 -0.3568  0.9697
13391TIP3    H261589   6.642   4.083  17.532  0.7379 -1.0336 -2.7807
13392TIP3   OH261590   4.907   0.291  11.707  0.4294  0.1126  0.1352
13392TIP3    H161591   4.924   0.327  11.794 -1.8356 -1.9238  1.5315
13392TIP3    H261592   4.992   0.292  11.664  1.3437  2.5965  1.7579
13393TIP3   OH261593   6.517   5.624   3.155  0.2690 -0.5539 -0.3107
13393TIP3    H161594   6.607   5.596   3.169  0.6307 -1.0983 -3.0612
13393TIP3    H261595   6.509   5.632   3.059 -2.2425  0.6914 -0.0826
13394TIP3   OH261596   0.241   3.612   3.064  0.1682 -0.0688  0.5877
13394TIP3    H161597   0.176   3.543   3.049 -0.7276  0.7646  0.4736
13394TIP3    H261598   0.292   3.616   2.983 -0.4314  0.0630  0.2081
13395TIP3   OH261599   1.656   5.937  11.251 -0.1597  0.9013 -0.1690
13395TIP3    H161600   1.716   5.984  11.309  1.7326 -0.0923 -1.2427
13395TIP3    H261601   1.676   5.970  11.163 -1.5525  0.8962 -0.5162
13396TIP3   OH261602   0.191   5.632   3.677  0.1514  0.3582  0.3682
13396TIP3    H161603   0.285   5.640   3.661 -0.2986  1.5278 -2.3606
13396TIP3    H261604   0.167   5.549   3.637 -0.0717  0.3560  0.5029
13397TIP3   OH261605   2.976   3.020  14.280 -0.1428  1.0405  0.5780
13397TIP3    H161606   2.951   3.021  14.372 -2.7776 -2.5038  0.1103
13397TIP3    H261607   2.913   3.079  14.238  1.1683  2.7977  0.9221
13398TIP3   OH261608   3.505   0.437   0.696  0.0759  0.3350 -0.2963
13398TIP3    H161609   3.509   0.510   0.633  1.3282  0.1640 -0.4325
13398TIP3    H261610   3.590   0.438   0.739  0.1192 -1.0500 -0.3025
13399TIP3   OH261611   4.599   2.535  12.989 -0.0155 -0.3234 -0.2764
13399TIP3    H161612   4.672   2.503  13.042  2.3378 -0.0524 -3.1235
13399TIP3    H261613   4.526   2.475  13.009  1.1406 -1.0459  2.1226
13400TIP3   OH261614   3.962   4.233  14.241 -0.8033  0.2287 -0.2693
13400TIP3    H161615   3.949   4.180  14.163 -1.6400  0.0431 -0.0127
13400TIP3    H261616   3.968   4.323  14.208 -2.6810  0.3252 -0.4431
13401TIP3   OH261617   5.270   4.316   5.539 -0.3588 -0.2088 -0.0167
13401TIP3    H161618   5.326   4.286   5.467 -0.1170 -0.4325  0.2631
13401TIP3    H261619   5.186   4.333   5.498 -0.6956 -1.8867 -0.0842
13402TIP3   OH261620   3.056   0.510  12.588 -0.1155 -0.1590  0.6125
13402TIP3    H161621   3.145   0.546  12.578 -0.1765 -0.5126 -1.7836
13402TIP3    H261622   3.020   0.512  12.500 -1.1214 -3.5491  0.8119
13403TIP3   OH261623   2.344   0.366   2.504  0.0683 -0.3231 -0.4994
13403TIP3    H161624   2.255   0.351   2.471 -0.9454  0.8146  1.5096
13403TIP3    H261625   2.342   0.455   2.540  2.0919 -0.2028 -0.5445
13404TIP3   OH261626   3.027   2.451  12.990  0.1227  0.4678  0.6828
13404TIP3    H161627   2.991   2.380  12.938  1.3825 -0.0171  0.4300
13404TIP3    H261628   2.953   2.483  13.042 -1.1306  0.7885 -1.1781
13405TIP3   OH261629   0.389   2.048   5.032  0.2317 -0.1694 -0.1353
13405TIP3    H161630   0.407   2.132   4.989  1.7760 -0.6421 -0.4420
13405TIP3    H261631   0.400   1.983   4.962  2.0365 -0.8791  0.7614
13406TIP3   OH261632   0.979   0.356   3.388 -0.2587 -0.4676 -0.2564
13406TIP3    H161633   1.016   0.445   3.384 -2.8237  0.8896  2.3205
13406TIP3    H261634   0.892   0.364   3.351 -1.4089 -1.2650  2.0655
13407TIP3   OH261635   0.543   2.860   0.182 -0.0921  0.0373 -0.4061
13407TIP3    H161636   0.452   2.876   0.159 -0.5122 -1.0356  0.3893
13407TIP3    H261637   0.591   2.870   0.100 -0.9882  0.1739 -0.9223
13408TIP3   OH261638   1.664   0.751  17.181  0.2570 -0.1708  0.1381
13408TIP3    H161639   1.718   0.728  17.257 -0.2871 -0.8668  0.3297
13408TIP3    H261640   1.718   0.727  17.105  0.1481 -1.0681  0.3294
13409TIP3   OH261641   2.536   3.355  12.753 -0.8685  0.0856 -0.0056
13409TIP3    H161642   2.479   3.423  12.718 -2.2985  0.8976  3.4967
13409TIP3    H261643   2.591   3.400  12.818 -0.2760 -1.7128  0.8133
13410TIP3   OH261644   1.532   3.057   5.404 -0.2818 -0.0453 -0.2529
13410TIP3    H161645   1.606   3.068   5.463 -0.0174  0.3874 -0.6687
13410TIP3    H261646   1.475   3.132   5.421  0.2575  0.5917 -1.2239
13411TIP3   OH261647   5.410   1.379  13.968  0.1789  0.1453  0.5460
13411TIP3    H161648   5.505   1.364  13.962  0.1828  0.5287 -0.5606
13411TIP3    H261649   5.402   1.472  13.990  0.0664 -0.1338  1.7309
13412TIP3   OH261650   0.061   5.397  15.767 -0.2240 -0.4616 -0.0122
13412TIP3    H161651   0.087   5.351  15.687 -0.6757  0.7812 -0.9028
13412TIP3    H261652  -0.013   5.347  15.802  1.1428 -2.0904  0.6988
13413TIP3   OH261653   6.524   0.458   2.445  0.3991  0.4675  0.0754
13413TIP3    H161654   6.440   0.500   2.426 -0.0552 -0.3977  0.1126
13413TIP3    H261655   6.506   0.364   2.437  0.9986  0.2026  1.5076
13414TIP3   OH261656   3.848   5.157  13.732  0.6946 -0.0643 -0.0910
13414TIP3    H161657   3.920   5.203  13.689 -0.3918  0.1834 -1.7096
13414TIP3    H261658   3.878   5.066  13.739  1.9893  0.4256  1.1927
13415TIP3   OH261659   4.337   0.701   4.331  0.6755 -0.3619  0.5121
13415TIP3    H161660   4.278   0.748   4.390 -0.7359 -0.6677 -0.5974
13415TIP3    H261661   4.410   0.762   4.318 -0.2820  0.8332  0.4555
13416TIP3   OH261662   1.302   3.592   4.901  0.2082  0.0275  0.7529
13416TIP3    H161663   1.226   3.639   4.935 -0.5530  0.9838 -2.0723
13416TIP3    H261664   1.369   3.659   4.892  0.6936 -0.3942  1.1290
13417TIP3   OH261665   3.198   3.087   0.180  0.0204  0.1034 -0.4319
13417TIP3    H161666   3.202   3.092   0.085 -0.7202  1.3939 -0.4270
13417TIP3    H261667   3.263   3.150   0.210 -0.3026  0.2812 -0.0992
13418TIP3   OH261668   5.493   3.734  16.695 -0.4427  0.0963  0.0492
13418TIP3    H161669   5.587   3.717  16.691 -0.7471 -1.4155 -1.8990
13418TIP3    H261670   5.486   3.829  16.707  1.3149  0.1378  0.9240
13419TIP3   OH261671   4.052   2.146   6.291 -0.0484  0.0934 -0.0289
13419TIP3    H161672   4.032   2.053   6.297  0.0303  0.1246  0.7382
13419TIP3    H261673   4.109   2.154   6.214  0.2334 -0.5363  0.1119
13420TIP3   OH261674   3.629   0.155  16.361 -0.6479  0.4792 -0.3221
13420TIP3    H161675   3.680   0.231  16.389 -1.1393  1.5529 -2.1443
13420TIP3    H261676   3.566   0.141  16.432  0.8866  0.3362  1.0699
13421TIP3   OH261677   4.609   3.353  12.053 -0.9012  0.4878  0.4631
13421TIP3    H161678   4.540   3.367  12.118  0.2100 -0.5830  1.9468
13421TIP3    H261679   4.648   3.268  12.077  0.9860  1.0894 -0.2646
13422TIP3   OH261680   3.851   5.015   1.791 -0.0643 -0.4216 -0.1989
13422TIP3    H161681   3.888   5.083   1.734  0.3996 -0.6693 -0.1958
13422TIP3    H261682   3.903   5.020   1.871 -0.5780 -0.2177  0.1275
13423TIP3   OH261683   4.312   4.272  13.017  0.1567 -0.1787 -0.5273
13423TIP3    H161684   4.350   4.298  13.101  0.5394 -2.0838 -0.0798
13423TIP3    H261685   4.336   4.343  12.957  1.6698  0.2017  0.4882
13424TIP3   OH261686   0.015   5.368  14.700 -0.1199 -0.0322  0.3623
13424TIP3    H161687   0.072   5.387  14.774  1.0908 -0.5054 -0.4106
13424TIP3    H261688  -0.073   5.386  14.732  0.1954 -1.8679  2.4835
13425TIP3   OH261689   2.768   2.840  13.339  0.2923 -0.5107 -0.2406
13425TIP3    H161690   2.853   2.847  13.294 -0.3784  1.9330 -1.2643
13425TIP3    H261691   2.742   2.930  13.354 -2.4032 -1.1863 -0.4339
13426TIP3   OH261692   4.033   0.446   5.892  0.3969 -0.5649 -0.0100
13426TIP3    H161693   4.028   0.479   5.802 -0.4892  2.7911  1.1219
13426TIP3    H261694   3.942   0.445   5.922  0.7674 -0.7691  1.1477
13427TIP3   OH261695   0.695   0.261  14.599 -0.1472  0.1186 -0.3599
13427TIP3    H161696   0.705   0.356  14.604 -0.9675  0.1479  1.8995
13427TIP3    H261697   0.784   0.227  14.605 -0.0121  0.7162  1.5365
13428TIP3   OH261698   1.781   6.028  14.842  0.0642 -0.1100  0.2602
13428TIP3    H161699   1.703   6.009  14.894 -0.5100  1.3560 -0.0385
13428TIP3    H261700   1.784   6.123  14.836  1.0194 -0.1914 -1.0475
13429TIP3   OH261701   1.963   2.592  12.129  0.1115  0.5448 -0.7123
13429TIP3    H161702   1.948   2.548  12.213  0.3302 -1.2298 -1.5592
13429TIP3    H261703   2.057   2.611  12.129  0.1571  0.3264 -0.6570
13430TIP3   OH261704   4.452   2.870   0.580 -0.1036 -0.0007 -0.0357
13430TIP3    H161705   4.503   2.843   0.504  2.9349 -1.0397  2.1353
13430TIP3    H261706   4.428   2.788   0.624  1.9795  0.4798  2.2628
13431TIP3   OH261707   4.445   0.967   5.762 -0.2624 -0.3248  0.0282
13431TIP3    H161708   4.530   0.928   5.744  0.5944 -0.2697  3.2618
13431TIP3    H261709   4.384   0.894   5.759 -0.1191 -0.4214 -1.9652
13432TIP3   OH261710   1.323   3.107   4.078 -0.0065  0.3958  0.3514
13432TIP3    H161711   1.286   3.019   4.074 -2.0843  1.2093  0.2924
13432TIP3    H261712   1.353   3.116   4.168 -0.6567 -0.0541  0.6231
13433TIP3   OH261713   4.514   0.204   0.569  0.2397 -0.0520 -0.1026
13433TIP3    H161714   4.567   0.151   0.629 -0.8272 -1.7575 -0.5831
13433TIP3    H261715   4.444   0.239   0.623 -0.0788 -0.6424 -0.1330
13434TIP3   OH261716   2.233   6.359  16.436 -0.1412  0.5411 -0.5157
13434TIP3    H161717   2.156   6.371  16.381 -0.3338 -3.3594 -1.3683
13434TIP3    H261718   2.222   6.272  16.474  2.3847  1.1203  1.8702
13435TIP3   OH261719   4.634   3.762   4.936  0.0778 -0.3810 -0.3055
13435TIP3    H161720   4.578   3.741   4.861 -1.5454  1.1886  0.3554
13435TIP3    H261721   4.584   3.731   5.012  1.9247 -2.4062  0.1643
13436TIP3   OH261722   4.361   0.059  11.798 -0.0740 -0.3310 -0.2801
13436TIP3    H161723   4.416   0.039  11.874 -1.9194 -0.2565  1.1347
13436TIP3    H261724   4.327   0.146  11.816 -1.7213 -0.9138 -0.4332
13437TIP3   OH261725   0.060   5.515  12.343  0.2240 -0.0117  0.3695
13437TIP3    H161726   0.138   5.462  12.362  0.5887  0.7420  0.9877
13437TIP3    H261727  -0.003   5.489  12.410 -0.1175 -0.7119 -0.2045
13438TIP3   OH261728   2.736   2.646  17.590 -0.5363 -0.4852  0.6662
13438TIP3    H161729   2.669   2.712  17.608  1.4155  1.3338  1.7049
13438TIP3    H261730   2.748   2.649  17.495 -0.1044  1.0926  0.7476
13439TIP3   OH261731   4.808   4.420  16.668 -0.5561 -0.1464  0.6669
13439TIP3    H161732   4.850   4.450  16.588 -2.7368 -0.4679 -0.6714
13439TIP3    H261733   4.726   4.469  16.672  0.2439  1.1742  3.6875
13440TIP3   OH261734   2.492   6.203   4.803  0.0168 -0.2564  0.0495
13440TIP3    H161735   2.522   6.218   4.714  2.6467  0.3431  0.9372
13440TIP3    H261736   2.527   6.117   4.827 -0.8011 -0.4905  0.4774
13441TIP3   OH261737   1.497   5.685  14.218  0.2876  0.0624 -0.1362
13441TIP3    H161738   1.570   5.624  14.219  0.0499 -0.2573  1.5251
13441TIP3    H261739   1.536   5.770  14.240  0.3926  0.2079 -0.8822
13442TIP3   OH261740   6.060   1.072   2.212  0.3885 -0.1742  0.3989
13442TIP3    H161741   6.118   1.018   2.159  0.9826  0.4298  0.4313
13442TIP3    H261742   5.972   1.053   2.178  0.8871  1.8851 -2.3580
13443TIP3   OH261743   4.878   4.914   3.389 -0.4754  0.1796 -0.0786
13443TIP3    H161744   4.844   4.829   3.417  0.8409  0.5122  2.9127
13443TIP3    H261745   4.909   4.899   3.299  0.8901 -2.9069  0.7589
13444TIP3   OH261746   0.384   1.946  14.538  0.2161 -0.1306  0.1845
13444TIP3    H161747   0.394   1.851  14.539  1.9654  0.0283  0.2924
13444TIP3    H261748   0.404   1.971  14.448  1.3154  0.2556  0.5186
13445TIP3   OH261749   6.388   4.268  11.578  0.1270 -0.3690  0.2620
13445TIP3    H161750   6.342   4.216  11.512  0.5421 -0.9993  0.4459
13445TIP3    H261751   6.336   4.346  11.589 -1.7425 -1.7244  1.5797
13446TIP3   OH261752   3.484   6.423  12.961 -0.1140 -0.2108  0.3473
13446TIP3    H161753   3.406   6.442  12.908  0.7754  0.6498 -0.6998
13446TIP3    H261754   3.537   6.502  12.955  1.4179 -1.2192  0.0148
13447TIP3   OH261755   4.167   6.067  11.284 -0.0888 -0.1215  0.6959
13447TIP3    H161756   4.261   6.079  11.272  0.0897 -2.9504 -2.0027
13447TIP3    H261757   4.127   6.112  11.210 -0.4486 -2.3210 -0.5486
13448TIP3   OH261758   1.761   3.110  13.085  0.7084  0.1945 -0.6506
13448TIP3    H161759   1.856   3.108  13.097  0.4902  0.4292  1.6818
13448TIP3    H261760   1.741   3.031  13.034  1.8271 -2.2405  2.3434
13449TIP3   OH261761   2.871   0.669   3.565  0.3154  0.1134  0.0867
13449TIP3    H161762   2.856   0.740   3.627 -1.6100 -1.3058  1.3529
13449TIP3    H261763   2.941   0.702   3.508  0.6007  2.3632  1.5878
13450TIP3   OH261764   5.720   4.171   6.880  0.5173  0.1466  0.1115
13450TIP3    H161765   5.729   4.094   6.824 -1.4134  0.0027 -0.0567
13450TIP3    H261766   5.784   4.233   6.845  1.3486 -0.9734 -0.4301
13451TIP3   OH261767   4.795   6.548   4.848  0.2548  0.0635 -0.4599
13451TIP3    H161768   4.747   6.623   4.882  0.0332 -0.4960  0.4958
13451TIP3    H261769   4.798   6.486   4.921  1.0445 -0.5687 -1.0070
13452TIP3   OH261770   1.589   5.469   1.169 -0.0444  0.5142 -0.5921
13452TIP3    H161771   1.500   5.437   1.157  0.0080 -0.2723  0.8356
13452TIP3    H261772   1.635   5.442   1.090 -0.8955  0.2692 -1.0137
13453TIP3   OH261773   5.692   3.267  13.863 -0.2837  0.7356 -0.2253
13453TIP3    H161774   5.696   3.173  13.844 -0.7279  0.5600  0.5096
13453TIP3    H261775   5.609   3.296  13.824  0.1172  0.9513 -0.9460
13454TIP3   OH261776   4.164   0.400   2.577  0.0865 -0.3066  0.1032
13454TIP3    H161777   4.103   0.465   2.612 -1.3865 -0.5706 -1.8135
13454TIP3    H261778   4.243   0.411   2.629 -0.8079  1.6456  1.1538
13455TIP3   OH261779   1.306   1.852   2.117 -0.1261  0.3478 -0.3446
13455TIP3    H161780   1.297   1.853   2.022 -0.9472 -0.5952 -0.2996
13455TIP3    H261781   1.339   1.765   2.137  0.7227  0.7881  0.1885
13456TIP3   OH261782   6.035   1.020  15.532  0.1160  0.8377 -0.0316
13456TIP3    H161783   6.117   0.971  15.546 -0.4683  0.4274  2.2727
13456TIP3    H261784   6.024   1.020  15.437  1.7787 -0.7908 -0.2861
13457TIP3   OH261785   3.103   5.562  11.314  0.0815  0.0864  0.6539
13457TIP3    H161786   3.117   5.607  11.230  1.0380  1.2274  1.3901
13457TIP3    H261787   3.048   5.488  11.292  0.4638  0.2528 -1.0299
13458TIP3   OH261788   3.136   5.966  16.511  0.1123  0.1414  0.4083
13458TIP3    H161789   3.131   6.053  16.472  3.7213 -0.7762 -2.6624
13458TIP3    H261790   3.189   5.978  16.590 -1.8643  1.0125  1.7071
13459TIP3   OH261791   5.329   0.226  12.090  0.2007 -0.1729 -0.1494
13459TIP3    H161792   5.324   0.321  12.084  0.1419 -0.1823 -0.2470
13459TIP3    H261793   5.274   0.194  12.019 -1.6288 -0.2761  1.2142
13460TIP3   OH261794   1.974   4.131  16.348  0.1983 -0.0485 -0.3231
13460TIP3    H161795   2.068   4.140  16.362 -0.1495  0.1448  2.5747
13460TIP3    H261796   1.966   4.056  16.289  2.1618 -0.3921 -0.2330
13461TIP3   OH261797   1.946   4.758   5.607 -0.3280  0.2386  0.3533
13461TIP3    H161798   1.906   4.694   5.549 -1.3343  0.7634  0.4596
13461TIP3    H261799   1.931   4.724   5.695  0.2349 -0.0020  0.3605
13462TIP3   OH261800   5.740   3.814   3.601 -0.7661 -0.0986 -0.2085
13462TIP3    H161801   5.784   3.850   3.678  1.2654 -0.6795 -1.0393
13462TIP3    H261802   5.808   3.808   3.534 -1.1902 -4.1860 -0.5551
13463TIP3   OH261803   6.449   5.117   4.655 -0.1996 -0.1125 -0.2834
13463TIP3    H161804   6.396   5.043   4.683 -1.3680  0.7147 -0.2236
13463TIP3    H261805   6.385   5.185   4.631  0.8229  1.2282  0.6148
13464TIP3   OH261806   2.556   1.033   2.690 -0.1476 -0.2290  0.1738
13464TIP3    H161807   2.621   0.988   2.636 -1.2353 -1.3313 -0.2751
13464TIP3    H261808   2.501   1.080   2.627  0.3403  0.9077  0.5666
13465TIP3   OH261809   1.640   0.047   0.724  0.0783  0.1503  0.0080
13465TIP3    H161810   1.600  -0.022   0.778  0.2328 -0.4993 -0.6969
13465TIP3    H261811   1.639   0.124   0.780  0.0399 -0.4595  0.8669
13466TIP3   OH261812   4.575   3.609   5.677  0.0676 -0.1004  0.0028
13466TIP3    H161813   4.621   3.667   5.737 -0.5023  1.5079 -1.0230
13466TIP3    H261814   4.518   3.556   5.733  1.5161 -0.5786  1.0738
13467TIP3   OH261815   4.065   6.129   3.821  0.2780  0.0429 -0.3565
13467TIP3    H161816   4.129   6.105   3.754 -2.5347 -0.5789 -3.0983
13467TIP3    H261817   3.989   6.073   3.802 -0.4287 -0.9050  4.0880
13468TIP3   OH261818   5.225   5.870   5.273 -0.0073 -0.5801  0.1948
13468TIP3    H161819   5.182   5.924   5.206  1.2754  0.3421  0.0626
13468TIP3    H261820   5.293   5.928   5.310  1.4235 -2.0985  0.0556
13469TIP3   OH261821   0.713   3.870   3.585 -0.8820 -0.5692  0.0883
13469TIP3    H161822   0.713   3.858   3.490  0.2776  0.5032 -0.0718
13469TIP3    H261823   0.641   3.931   3.601 -1.5170 -1.2799 -0.0130
13470TIP3   OH261824   4.934   0.148   6.459 -0.8920  0.0450 -0.2196
13470TIP3    H161825   5.008   0.209   6.461 -0.7364 -0.1510  0.0110
13470TIP3    H261826   4.895   0.156   6.546 -1.5465  0.6434 -0.5535
13471TIP3   OH261827   0.360   3.618  14.012  0.3801  0.1829 -0.0219
13471TIP3    H161828   0.318   3.541  14.051  0.0193  0.8332  0.9172
13471TIP3    H261829   0.345   3.687  14.076  0.3087  1.1424 -1.0560
13472TIP3   OH261830   5.359   3.940  12.128  0.0311  0.4634  0.2285
13472TIP3    H161831   5.355   4.025  12.173 -0.5157  0.6565 -0.1740
13472TIP3    H261832   5.409   3.958  12.048  0.8438  0.1612  0.6617
13473TIP3   OH261833   2.175   2.739   3.282 -0.0334  0.0997  0.0610
13473TIP3    H161834   2.095   2.754   3.332  0.8856 -1.9602  2.3291
13473TIP3    H261835   2.245   2.769   3.339  0.8927  1.7601 -1.8471
13474TIP3   OH261836   2.817   2.469   4.870 -0.4244 -0.3239 -0.2030
13474TIP3    H161837   2.816   2.426   4.784 -0.1451  0.5379 -0.6410
13474TIP3    H261838   2.750   2.537   4.864  0.8819  0.9857 -0.3889
13475TIP3   OH261839   6.532   4.194   5.648  0.0455  0.2720  0.0687
13475TIP3    H161840   6.459   4.223   5.702  0.3097  0.5698  0.2754
13475TIP3    H261841   6.549   4.268   5.589 -0.6114 -0.2650 -0.8194
13476TIP3   OH261842   2.171   5.419   4.121  0.0591 -0.4097 -0.0932
13476TIP3    H161843   2.181   5.329   4.152 -0.7015 -0.2580  0.6060
13476TIP3    H261844   2.236   5.427   4.050 -0.7872 -1.9250 -1.0958
13477TIP3   OH261845   6.211   4.647   6.093 -0.4444 -0.5107 -0.5226
13477TIP3    H161846   6.195   4.576   6.156 -2.5549 -0.1524 -0.5900
13477TIP3    H261847   6.206   4.727   6.146 -0.8412 -0.2790 -0.9078
13478TIP3   OH261848   3.680   3.648   2.037 -0.6090 -0.4355 -0.2798
13478TIP3    H161849   3.752   3.710   2.020  0.0627 -1.3577 -0.9127
13478TIP3    H261850   3.672   3.646   2.132  0.9333 -1.0960 -0.1348
13479TIP3   OH261851   6.526   1.338  16.542 -0.9477 -0.4957 -0.1288
13479TIP3    H161852   6.600   1.352  16.601 -2.2247 -0.0864  1.4284
13479TIP3    H261853   6.528   1.244  16.523 -1.1646 -0.8417  1.4870
13480TIP3   OH261854   6.286   1.731  17.202 -0.4553 -0.1142 -0.2685
13480TIP3    H161855   6.203   1.683  17.206  0.1741 -1.2398 -0.3338
13480TIP3    H261856   6.274   1.804  17.262 -1.1261 -0.8858  0.5797
13481TIP3   OH261857   4.466   4.798   3.103  0.0163  0.0290  0.0343
13481TIP3    H161858   4.446   4.846   3.023  1.4224 -0.8959 -0.9010
13481TIP3    H261859   4.505   4.863   3.161  2.8552 -0.0819 -1.5882
13482TIP3   OH261860   2.049   0.655  16.961 -0.2365 -0.4049  0.0111
13482TIP3    H161861   1.957   0.664  16.933 -0.3336 -3.1053 -0.7902
13482TIP3    H261862   2.096   0.717  16.905 -1.3281 -0.5913 -1.1896
13483TIP3   OH261863   2.014   1.696   1.857 -0.4675  0.1028  0.1741
13483TIP3    H161864   1.991   1.650   1.938 -0.8602  1.2940  0.7506
13483TIP3    H261865   1.930   1.722   1.820 -0.2268  0.7168  0.0610
13484TIP3   OH261866   1.922   0.659   2.864  0.3183  0.7767  1.0262
13484TIP3    H161867   1.983   0.656   2.791  0.8220  0.5486  1.4480
13484TIP3    H261868   1.843   0.699   2.828  0.4825  0.4650  0.3070
13485TIP3   OH261869   1.485   5.946  15.228  0.1752 -0.1706  0.1302
13485TIP3    H161870   1.530   6.024  15.261 -1.0139  0.6364 -0.1064
13485TIP3    H261871   1.515   5.875  15.285  0.2562  0.6966  1.1998
13486TIP3   OH261872   6.694   2.564  15.579  0.1511 -0.0014  0.4646
13486TIP3    H161873   6.662   2.541  15.491  0.2536 -0.8713  0.6398
13486TIP3    H261874   6.616   2.593  15.626  0.0426  0.1876  0.1683
13487TIP3   OH261875   3.490   5.973  15.231  0.2027  0.1362  0.0031
13487TIP3    H161876   3.497   5.886  15.270 -0.3162  0.5100  0.9671
13487TIP3    H261877   3.542   6.029  15.288  0.4449  0.4842 -0.5535
13488TIP3   OH261878   4.999   5.715   4.841  0.0060 -0.1248  0.6879
13488TIP3    H161879   4.915   5.669   4.852 -0.5607  0.4123 -1.1607
13488TIP3    H261880   4.974   5.806   4.822  1.0763  0.4707  1.9541
13489TIP3   OH261881   2.759   0.615  16.595  0.3687 -0.1434  0.1834
13489TIP3    H161882   2.733   0.655  16.513  0.4095 -1.0915 -0.3119
13489TIP3    H261883   2.704   0.657  16.661 -0.1155  0.1744 -0.4132
13490TIP3   OH261884   3.242   5.893   1.993  0.3083 -0.7240  0.5550
13490TIP3    H161885   3.281   5.977   2.017 -1.1116  0.3021 -0.5609
13490TIP3    H261886   3.164   5.887   2.048  0.4147 -1.3476  0.6455
13491TIP3   OH261887   1.780   6.411   6.507  0.4789  0.4828 -0.1826
13491TIP3    H161888   1.871   6.401   6.480  0.4706 -0.6887  0.1956
13491TIP3    H261889   1.751   6.491   6.462  1.6056  0.7271 -0.5101
13492TIP3   OH261890   1.594   4.722  12.809  0.1103  0.5754 -0.3961
13492TIP3    H161891   1.630   4.811  12.808  0.1350  0.5696 -1.5785
13492TIP3    H261892   1.668   4.666  12.832  0.3846  0.7529 -0.8319
13493TIP3   OH261893   1.054   3.778   6.268  0.0914  0.7766 -0.2222
13493TIP3    H161894   0.985   3.782   6.201 -0.4416 -0.4342  0.2219
13493TIP3    H261895   1.008   3.795   6.350  0.4171  0.5234  0.0141
13494TIP3   OH261896   5.376   2.837  14.587 -0.3687 -0.2768  0.4209
13494TIP3    H161897   5.290   2.878  14.596 -0.2731 -0.3018  1.8046
13494TIP3    H261898   5.361   2.760  14.533 -1.0537  0.1702 -0.0424
13495TIP3   OH261899   4.069   3.219  13.002  0.4395  0.1542  0.3485
13495TIP3    H161900   4.052   3.128  12.977  0.6067 -0.1196  1.2172
13495TIP3    H261901   3.982   3.256  13.015  0.3452  0.3076 -0.6196
13496TIP3   OH261902   3.057   6.087  11.344  0.5152 -0.0532  0.4101
13496TIP3    H161903   3.071   6.009  11.290 -0.1308  0.7341 -0.9294
13496TIP3    H261904   2.962   6.093  11.354  0.4941  1.0778 -0.3001
13497TIP3   OH261905   5.022   0.536  16.591  0.7125  0.0921 -0.1003
13497TIP3    H161906   4.928   0.546  16.578  0.4940 -2.6944 -1.4110
13497TIP3    H261907   5.030   0.469  16.660  1.7112 -0.2267 -0.5013
13498TIP3   OH261908   1.749   5.487   3.910 -0.0698  0.2555 -0.0852
13498TIP3    H161909   1.754   5.544   3.834  0.7599  2.2231  1.3394
13498TIP3    H261910   1.832   5.502   3.956 -0.7515 -0.4562  1.4489
13499TIP3   OH261911   1.520   5.883   2.848 -0.5082  0.0692  0.7577
13499TIP3    H161912   1.542   5.914   2.936 -0.7226 -0.8756  1.1553
13499TIP3    H261913   1.486   5.795   2.862  2.2847 -1.3563 -0.5251
13500TIP3   OH261914   3.461   2.740  15.248  0.3001  0.5260 -0.8201
13500TIP3    H161915   3.517   2.736  15.170 -1.1390 -1.4044 -1.8333
13500TIP3    H261916   3.405   2.663  15.242 -0.0717  0.4578  2.0105
13501TIP3   OH261917   4.417   5.468  15.703 -0.4659 -0.0375  0.6079
13501TIP3    H161918   4.508   5.462  15.672 -0.2936 -1.5716  1.2985
13501TIP3    H261919   4.384   5.549  15.665  1.1243  0.4420  0.1583
13502TIP3   OH261920   4.479   0.852  15.785  0.5758  0.7869 -0.1630
13502TIP3    H161921   4.474   0.941  15.752  0.6006  0.4626 -1.0665
13502TIP3    H261922   4.556   0.815  15.742 -0.3844 -0.1829 -1.1122
13503TIP3   OH261923   0.579   2.226   0.402  0.2800  0.6593 -0.9458
13503TIP3    H161924   0.543   2.304   0.359  0.7603  1.6637  0.4191
13503TIP3    H261925   0.553   2.235   0.493  0.3850 -0.7848 -0.7521
13504TIP3   OH261926   1.309   0.229   6.595  0.1649 -0.1479 -0.8736
13504TIP3    H161927   1.401   0.228   6.621 -0.2477 -0.4965  0.6621
13504TIP3    H261928   1.277   0.142   6.615 -1.1398  0.7240  1.1580
13505TIP3   OH261929   4.251   0.430  11.364 -0.2340 -0.0057  0.0488
13505TIP3    H161930   4.246   0.364  11.295  0.6578  0.0174 -0.0553
13505TIP3    H261931   4.303   0.500  11.325  0.7145 -0.2078  0.9050
13506TIP3   OH261932   2.971   1.227   3.041  0.9143  0.2125 -0.0036
13506TIP3    H161933   2.927   1.311   3.026  0.2196 -0.3863 -1.6140
13506TIP3    H261934   3.059   1.251   3.069  0.8384  1.5032 -0.7505
13507TIP3   OH261935   6.657   3.871   1.361 -0.6676 -0.8949 -0.0344
13507TIP3    H161936   6.733   3.854   1.417 -0.7806 -0.1822  0.3503
13507TIP3    H261937   6.691   3.924   1.289 -0.4483 -2.1268 -0.8637
13508TIP3   OH261938   5.630   5.849  12.512 -0.0197  0.4582 -0.3335
13508TIP3    H161939   5.539   5.876  12.500 -0.3500 -0.7403 -0.6693
13508TIP3    H261940   5.676   5.929  12.539 -1.3132  0.9110  0.5992
13509TIP3   OH261941   5.685   5.403   4.253  0.5552  0.0214  0.1149
13509TIP3    H161942   5.724   5.419   4.339 -1.8513  0.4397  1.2107
13509TIP3    H261943   5.677   5.490   4.213  1.8017 -0.1872 -0.6138
13510TIP3   OH261944   5.976   4.007   3.729 -0.4570 -0.3834  0.5930
13510TIP3    H161945   5.972   4.045   3.641  0.4542  0.5021  0.9115
13510TIP3    H261946   6.049   3.945   3.725  1.2928  1.4971  1.3528
13511TIP3   OH261947   6.235   4.733  15.315 -0.7746  0.1984  0.4413
13511TIP3    H161948   6.239   4.638  15.301 -1.4789  0.4130 -1.5445
13511TIP3    H261949   6.174   4.765  15.249 -0.5393  2.0576  1.0500
13512TIP3   OH261950   3.138   2.174  13.601 -0.2769  0.8957  0.1997
13512TIP3    H161951   3.094   2.101  13.559  1.5257 -1.4385  2.0524
13512TIP3    H261952   3.180   2.222  13.530 -0.8879 -0.3271 -1.0178
13513TIP3   OH261953   5.166   4.649  13.917  0.3505 -0.0362  0.1912
13513TIP3    H161954   5.090   4.606  13.878 -0.0063  2.7029 -2.4848
13513TIP3    H261955   5.133   4.683  14.001 -0.0309 -2.5454  1.1537
13514TIP3   OH261956   3.806   0.558   3.132 -0.2214  0.2278  0.1219
13514TIP3    H161957   3.737   0.506   3.091 -0.9362  0.9303  0.4089
13514TIP3    H261958   3.811   0.525   3.221 -0.2763  0.2585  0.1366
13515TIP3   OH261959   0.374   0.220   5.777  0.0174  0.0995 -0.3419
13515TIP3    H161960   0.332   0.155   5.834 -1.5599  0.6315 -0.8480
13515TIP3    H261961   0.315   0.295   5.778  1.3239  1.1793 -0.5488
13516TIP3   OH261962   3.127   2.667   2.254  0.1241 -0.3243 -0.0871
13516TIP3    H161963   3.143   2.702   2.167 -1.5727 -0.7598 -0.6262
13516TIP3    H261964   3.140   2.573   2.245  0.0836 -0.3538  0.1509
13517TIP3   OH261965   1.326   6.155  17.570 -0.8301 -0.0228 -0.1916
13517TIP3    H161966   1.242   6.122  17.540 -1.0494  0.8895 -0.6122
13517TIP3    H261967   1.336   6.119  17.658 -3.0781  2.2081  1.1214
13518TIP3   OH261968   1.572   6.204  15.388 -0.3273 -0.3260  0.3586
13518TIP3    H161969   1.600   6.277  15.331  0.8625 -0.6353  0.5287
13518TIP3    H261970   1.599   6.231  15.476  0.6213 -1.2001  0.3492
13519TIP3   OH261971   4.328   5.980  16.519 -0.0981 -0.1926 -0.5374
13519TIP3    H161972   4.408   5.927  16.510 -0.9573 -1.3725 -1.5766
13519TIP3    H261973   4.287   5.947  16.599 -0.0673 -0.3170 -0.5723
13520TIP3   OH261974   5.421   4.404   5.885  0.2063 -0.0894  0.4688
13520TIP3    H161975   5.422   4.385   5.979  0.3828  2.2090  0.9965
13520TIP3    H261976   5.493   4.353   5.850 -1.9283 -3.7575  0.8732
13521TIP3   OH261977   0.249   5.663   5.764 -0.3620  0.3752 -0.2486
13521TIP3    H161978   0.278   5.752   5.744  1.1292  0.2076  0.9858
13521TIP3    H261979   0.317   5.607   5.726 -1.3374 -0.2680 -1.1024
13522TIP3   OH261980   1.280   3.254   0.799 -0.6005 -0.4689 -0.0399
13522TIP3    H161981   1.217   3.183   0.803  0.0752 -1.1851 -1.3742
13522TIP3    H261982   1.271   3.300   0.883 -0.9607 -2.2045  0.9110
13523TIP3   OH261983   6.469   6.245  14.431 -0.5881 -0.1372 -0.0924
13523TIP3    H161984   6.522   6.175  14.471 -3.0606 -1.8894  0.3648
13523TIP3    H261985   6.461   6.311  14.499  2.1142  0.9047 -0.6552
13524TIP3   OH261986   2.514   5.942   2.940  0.4035  0.0127 -0.5174
13524TIP3    H161987   2.450   5.915   2.875  2.1449 -0.3059 -2.2136
13524TIP3    H261988   2.571   5.866   2.950  0.4996  0.2606  0.9829
13525TIP3   OH261989   1.433   0.379   3.331 -0.2038 -0.0276 -0.0843
13525TIP3    H161990   1.389   0.396   3.414  1.3420 -2.4736  1.3776
13525TIP3    H261991   1.451   0.466   3.295 -2.9282  1.0729  0.9704
13526TIP3   OH261992   5.196   6.105   0.836 -0.4902  0.2797  0.5673
13526TIP3    H161993   5.149   6.046   0.777  0.7517  0.4171 -0.5899
13526TIP3    H261994   5.228   6.048   0.906 -1.5064  0.0314  0.8526
13527TIP3   OH261995   2.329   3.414  16.201 -0.6815  0.2634  0.2751
13527TIP3    H161996   2.304   3.507  16.202 -0.8190  0.2508 -0.6245
13527TIP3    H261997   2.413   3.412  16.247 -0.3615  0.9430 -0.2507
13528TIP3   OH261998   4.998   2.608   1.686 -0.0168  0.1287 -0.3655
13528TIP3    H161999   4.935   2.578   1.751 -0.5551  0.7724 -0.5891
13528TIP3    H262000   5.001   2.538   1.621  0.0880 -0.2505  0.0434
13529TIP3   OH262001   0.157   6.412  16.315  0.3202 -0.2733  0.0664
13529TIP3    H162002   0.100   6.486  16.295 -2.5106 -2.4679 -0.8110
13529TIP3    H262003   0.097   6.341  16.338  2.8821 -2.1500  1.5514
13530TIP3   OH262004   4.535   1.466   5.345 -0.1454 -0.2955  0.0982
13530TIP3    H162005   4.546   1.404   5.418  0.0169  0.3746  0.6475
13530TIP3    H262006   4.622   1.474   5.306 -0.0675 -0.0535  0.3213
13531TIP3   OH262007   1.544   4.697  14.269  0.5809  0.3899 -0.6131
13531TIP3    H162008   1.477   4.679  14.336  1.4987 -0.2367  0.1609
13531TIP3    H262009   1.529   4.788  14.245  1.0957  1.0822  1.4728
13532TIP3   OH262010   5.985   1.368   0.748 -0.1371  1.2763  0.2876
13532TIP3    H162011   6.037   1.448   0.749  1.8549  0.0797 -0.3916
13532TIP3    H262012   5.950   1.363   0.659  1.2907  0.5037 -0.2581
13533TIP3   OH262013   3.581   5.669  12.370  0.0970  0.4861 -0.3875
13533TIP3    H162014   3.547   5.673  12.281 -0.0539 -0.4775 -0.3859
13533TIP3    H262015   3.633   5.749  12.380  0.2644  0.5138 -1.3992
13534TIP3   OH262016   1.928   1.564  15.743  0.4071  0.3943 -0.6343
13534TIP3    H162017   1.853   1.571  15.684  0.7040  0.9299 -0.9603
13534TIP3    H262018   1.892   1.529  15.824 -0.0938  0.1201 -0.9738
13535TIP3   OH262019   2.421   5.183  13.814  0.2274 -0.5367 -0.2400
13535TIP3    H162020   2.421   5.278  13.802  0.6833 -0.3092  1.3204
13535TIP3    H262021   2.331   5.161  13.838  0.5367 -0.2062  1.2901
13536TIP3   OH262022   1.881   3.047  13.552 -0.0524  0.2290  0.2270
13536TIP3    H162023   1.796   3.017  13.585 -0.1897  1.1330  0.7348
13536TIP3    H262024   1.945   3.011  13.613 -0.3379  2.3044  1.8898
13537TIP3   OH262025   4.555   4.272   0.639 -0.6121 -0.2454  0.0109
13537TIP3    H162026   4.564   4.277   0.544 -0.8864 -0.4403 -0.0271
13537TIP3    H262027   4.461   4.282   0.655 -0.5400  0.0170  0.2763
13538TIP3   OH262028   0.379   6.388  11.322  0.4013  0.2930  0.2735
13538TIP3    H162029   0.363   6.330  11.396 -3.0797 -0.8712 -1.1624
13538TIP3    H262030   0.337   6.471  11.346  1.3794  0.7252  0.5264
13539TIP3   OH262031   6.047   3.226   1.199 -0.0651  0.2031 -0.0846
13539TIP3    H162032   6.007   3.306   1.165  0.5410  0.2701 -0.6550
13539TIP3    H262033   6.120   3.257   1.253 -0.3620  0.0606  0.4066
13540TIP3   OH262034   1.454   1.632   3.075 -0.3889  0.8028 -0.5591
13540TIP3    H162035   1.429   1.566   3.011 -0.8680 -0.8686  1.2651
13540TIP3    H262036   1.520   1.685   3.030 -1.0157 -0.0223 -2.5507
13541TIP3   OH262037   5.810   6.402   1.166  0.4027  0.0751 -0.2907
13541TIP3    H162038   5.839   6.459   1.237  2.6830  1.1737 -1.9490
13541TIP3    H262039   5.865   6.324   1.173  1.2570  0.5531 -1.2558
13542TIP3   OH262040   1.454   1.802   0.591  0.3327  0.0930  0.1487
13542TIP3    H162041   1.399   1.880   0.588  1.4409  0.8588 -1.9351
13542TIP3    H262042   1.540   1.832   0.561  0.8443 -1.8974 -0.5095
13543TIP3   OH262043   4.028   1.492  13.496  0.1303  0.6524 -0.3294
13543TIP3    H162044   3.947   1.541  13.507  0.3401  0.9010  0.1133
13543TIP3    H262045   4.095   1.559  13.483  0.5274  0.5219  0.9352
13544TIP3   OH262046   5.095   0.858   6.250 -0.2258 -0.6604  0.0244
13544TIP3    H162047   5.055   0.917   6.314 -0.7636  0.9575 -1.7078
13544TIP3    H262048   5.183   0.891   6.239 -0.5999 -0.0060 -1.1217
13545TIP3   OH262049   4.864   2.094  12.246 -0.3083  0.0628 -0.4272
13545TIP3    H162050   4.845   2.058  12.333 -0.6295 -0.1547 -0.5843
13545TIP3    H262051   4.811   2.041  12.186 -0.6023  0.6416 -0.6867
13546TIP3   OH262052   4.317   0.030  15.443  0.0421 -0.4017 -0.3161
13546TIP3    H162053   4.372   0.019  15.365  0.5987 -3.7722  0.3685
13546TIP3    H262054   4.377   0.018  15.516 -1.0497 -0.9253  0.5193
13547TIP3   OH262055   5.134   6.146   4.653 -0.0863 -0.3848  0.5116
13547TIP3    H162056   5.229   6.132   4.660 -0.1115 -0.5790  0.4719
13547TIP3    H262057   5.119   6.229   4.699  0.5780  1.4515 -2.2994
13548TIP3   OH262058   4.978   1.277   5.306 -0.3510 -0.5619 -0.5709
13548TIP3    H162059   5.004   1.254   5.217 -0.6515 -0.3600 -0.7103
13548TIP3    H262060   5.023   1.213   5.361 -0.7518 -1.1501 -0.9154
13549TIP3   OH262061   6.330   2.444  15.203 -0.2307  0.1969 -0.1409
13549TIP3    H162062   6.314   2.363  15.251 -0.2893 -0.1552 -0.7394
13549TIP3    H262063   6.365   2.504  15.268 -2.2480  0.4153  0.8149
13550TIP3   OH262064   5.581   3.857  14.767  0.1193 -0.3094 -0.1773
13550TIP3    H162065   5.601   3.926  14.704 -0.2867 -1.3585 -1.5057
13550TIP3    H262066   5.524   3.797  14.719  1.0902 -1.9738  0.6798
13551TIP3   OH262067   2.028   0.968  12.663  0.4400  0.5700  0.7657
13551TIP3    H162068   1.990   0.953  12.750  0.5315 -0.3281  0.6629
13551TIP3    H262069   2.091   1.039  12.676 -1.4101  2.2713  0.8933
13552TIP3   OH262070   0.029   1.609   3.015  0.5474  0.3294 -0.8534
13552TIP3    H162071   0.017   1.514   3.012 -0.8812  0.4297  0.4763
13552TIP3    H262072   0.015   1.632   3.106 -0.5569  1.9735 -1.4011
13553TIP3   OH262073   6.225   3.624   0.703  0.2367  0.2336  0.0212
13553TIP3    H162074   6.230   3.717   0.728 -0.9734  0.3026  0.0812
13553TIP3    H262075   6.213   3.626   0.608 -2.5291  0.2982  0.2867
13554TIP3   OH262076   4.157   0.509  12.530  0.3091 -0.2248 -0.0636
13554TIP3    H162077   4.100   0.579  12.497  1.0423  1.3078  1.7517
13554TIP3    H262078   4.244   0.549  12.530  0.4629 -0.4019  2.8769
13555TIP3   OH262079   1.440   3.147  16.613 -0.1725  0.2794 -0.1468
13555TIP3    H162080   1.452   3.063  16.658 -2.7392 -0.1434 -0.1202
13555TIP3    H262081   1.484   3.211  16.669 -0.1484 -0.7281  1.0170
13556TIP3   OH262082   5.522   2.307   0.525 -0.0311  0.1532 -0.1219
13556TIP3    H162083   5.443   2.303   0.472  0.4740  1.4508 -1.0171
13556TIP3    H262084   5.591   2.276   0.467  0.4429  1.0694 -0.0588
13557TIP3   OH262085   2.617   5.351  11.533  0.4583 -0.4148  1.2089
13557TIP3    H162086   2.655   5.436  11.554  0.6337  0.0969 -0.9842
13557TIP3    H262087   2.524   5.360  11.556  0.5321  0.2667  1.2517
13558TIP3   OH262088   3.659   2.438   3.676  0.1792  0.0006  0.8284
13558TIP3    H162089   3.620   2.475   3.755  0.9052  0.2485  1.0771
13558TIP3    H262090   3.656   2.343   3.689  0.7362  0.0528  1.3741
13559TIP3   OH262091   2.384   4.637  12.837 -0.1388  0.0418  0.3328
13559TIP3    H162092   2.438   4.657  12.760 -0.9933  0.2344 -0.2302
13559TIP3    H262093   2.300   4.680  12.820  0.9119  3.8159  3.3118
13560TIP3   OH262094   1.242   1.988  14.597 -0.3764  0.0923  0.0646
13560TIP3    H162095   1.165   1.931  14.602 -0.8431  0.3142 -2.6645
13560TIP3    H262096   1.235   2.029  14.511  1.1338  2.5936  1.0348
13561TIP3   OH262097   2.548   4.083   6.373 -0.1071  0.3001  0.0296
13561TIP3    H162098   2.502   4.035   6.304  3.1687  0.7312 -2.7188
13561TIP3    H262099   2.603   4.018   6.416 -0.0127  0.5503  0.2953
13562TIP3   OH262100   2.488   0.720  14.445 -0.0426  0.1053 -0.3465
13562TIP3    H162101   2.509   0.813  14.452 -3.7902  1.0192  1.2583
13562TIP3    H262102   2.523   0.682  14.525  0.1302  0.4639 -0.2480
13563TIP3   OH262103   6.466   0.627   2.152  0.0938 -0.8292  0.1002
13563TIP3    H162104   6.384   0.663   2.187  0.3226  1.2059 -1.3075
13563TIP3    H262105   6.534   0.675   2.199  0.5342 -2.3459  1.0878
13564TIP3   OH262106   2.999   5.673  14.199  0.1718 -0.2779  0.2332
13564TIP3    H162107   2.999   5.748  14.139 -0.3890  0.6130  1.3196
13564TIP3    H262108   3.030   5.708  14.282  0.4827 -1.3934  0.6026
13565TIP3   OH262109   6.606   2.202   4.676  0.2112 -0.4658 -0.1670
13565TIP3    H162110   6.646   2.280   4.637  0.0086 -0.3003 -0.0467
13565TIP3    H262111   6.625   2.131   4.614  0.0801 -0.2480 -0.4596
13566TIP3   OH262112   0.719   5.760   6.683 -0.4157  0.1606 -0.1434
13566TIP3    H162113   0.813   5.750   6.700 -0.6160 -0.0639  0.8795
13566TIP3    H262114   0.713   5.844   6.637  0.1726  0.8054  0.8975
13567TIP3   OH262115   6.311   3.916   2.963 -0.0705  0.2142  0.0226
13567TIP3    H162116   6.218   3.921   2.939 -1.0998 -0.4435  3.3804
13567TIP3    H262117   6.348   3.998   2.931 -1.6558  0.2881 -1.8314
13568TIP3   OH262118   5.627   0.391  11.441 -0.7586  0.1335  0.3821
13568TIP3    H162119   5.655   0.396  11.532 -1.6564 -0.1506  0.6847
13568TIP3    H262120   5.701   0.351  11.395  0.1871  1.3886  0.7471
13569TIP3   OH262121   0.858   4.469   5.232  0.3801  0.7051  0.1435
13569TIP3    H162122   0.829   4.378   5.223 -1.3371  1.2322  0.0231
13569TIP3    H262123   0.784   4.521   5.200  1.5657  2.1439 -0.3630
13570TIP3   OH262124   2.927   3.632   5.733  0.3843 -0.1332  0.3985
13570TIP3    H162125   3.000   3.641   5.794  0.5770 -3.3936  0.8654
13570TIP3    H262126   2.856   3.683   5.772  1.7148  1.2155  1.1283
13571TIP3   OH262127   4.018   5.920   1.462  0.3010 -0.1696  0.5912
13571TIP3    H162128   3.965   5.989   1.422 -0.4340 -0.3004  1.3057
13571TIP3    H262129   4.108   5.949   1.449  0.0819 -0.0842 -0.9111
13572TIP3   OH262130   5.285   1.321   2.370  0.1324 -0.0429  0.0018
13572TIP3    H162131   5.218   1.353   2.309 -0.1132 -0.4860  0.0333
13572TIP3    H262132   5.332   1.399   2.397  1.4730 -0.0215 -2.1849
13573TIP3   OH262133   2.548   0.945   4.149 -0.2271 -0.3615  0.7790
13573TIP3    H162134   2.635   0.948   4.109  0.1146  0.6264  1.5417
13573TIP3    H262135   2.550   0.869   4.207  0.0613 -0.4542  0.6461
13574TIP3   OH262136   2.014   1.377   1.198  0.5826 -0.2466 -0.1204
13574TIP3    H162137   2.086   1.437   1.213  1.4774 -0.7420 -2.1589
13574TIP3    H262138   1.994   1.385   1.105 -2.2735  0.1492  0.4403
13575TIP3   OH262139   6.339   0.567  14.244 -0.2459  0.0815 -0.2792
13575TIP3    H162140   6.432   0.563  14.265 -0.4561 -1.5117  0.4861
13575TIP3    H262141   6.336   0.568  14.148  0.5567 -0.5063 -0.3228
13576TIP3   OH262142   4.211   3.578   1.534 -0.4472  0.2672 -0.0941
13576TIP3    H162143   4.280   3.628   1.578  0.3498 -0.6986 -0.2168
13576TIP3    H262144   4.131   3.628   1.551  0.2368  1.2731  0.2635
13577TIP3   OH262145   6.470   4.294  15.076 -0.1313  0.7316  0.5581
13577TIP3    H162146   6.430   4.207  15.079 -0.0943  0.7228  0.8001
13577TIP3    H262147   6.549   4.286  15.129  0.7723  0.4586 -0.7742
13578TIP3   OH262148   5.240   4.810  12.004 -0.2661  0.1558  0.5999
13578TIP3    H162149   5.269   4.874  12.069  2.5949  0.6909 -1.0260
13578TIP3    H262150   5.186   4.860  11.943 -0.0309  0.4748  0.6526
13579TIP3   OH262151   2.807   6.661   2.539  0.0851  0.2968 -0.5963
13579TIP3    H162152   2.867   6.705   2.599 -0.6827  1.0577 -0.3717
13579TIP3    H262153   2.855   6.583   2.511  0.5552  0.0344  0.8327
13580TIP3   OH262154   4.848   5.790   0.198  0.3847 -0.5802  0.2484
13580TIP3    H162155   4.930   5.803   0.246  0.0783 -1.3462  0.9977
13580TIP3    H262156   4.822   5.700   0.219 -0.7899 -0.2586  0.2312
13581TIP3   OH262157   1.509   1.473  16.938 -0.0785 -0.2783 -0.4780
13581TIP3    H162158   1.603   1.467  16.955 -0.0500  1.7972  0.3743
13581TIP3    H262159   1.503   1.515  16.852 -0.2566 -0.4535 -0.5535
13582TIP3   OH262160   6.466   2.685   3.515  0.3191  0.4850  0.2782
13582TIP3    H162161   6.413   2.721   3.444  1.3061  1.5654  0.0581
13582TIP3    H262162   6.410   2.620   3.556 -0.4283  0.1266 -1.2254
13583TIP3   OH262163   5.769   6.459   0.592  0.9647 -0.5739 -0.0207
13583TIP3    H162164   5.771   6.490   0.502  1.3060 -0.1561  0.1276
13583TIP3    H262165   5.690   6.498   0.629  0.5415 -1.1637 -0.2787
13584TIP3   OH262166   3.937   1.769   4.092  0.5677 -0.5572  0.1699
13584TIP3    H162167   3.893   1.850   4.119  2.2975  0.9749 -1.3016
13584TIP3    H262168   3.867   1.713   4.059 -0.7985 -0.1109  2.1372
13585TIP3   OH262169   1.349   5.530   0.446  0.1378  0.0808  0.0559
13585TIP3    H162170   1.438   5.548   0.414  0.1060  1.1319  0.5005
13585TIP3    H262171   1.331   5.603   0.505 -1.0824 -0.0479 -0.1475
13586TIP3   OH262172   5.802   6.234  13.808 -0.2278 -0.8176  0.1847
13586TIP3    H162173   5.819   6.165  13.873 -1.2181  0.2172  1.6152
13586TIP3    H262174   5.720   6.206  13.766 -0.2696 -0.8589  0.2908
13587TIP3   OH262175   0.483   4.294  16.838 -0.3755  0.6597  0.3129
13587TIP3    H162176   0.402   4.249  16.865  0.0417  0.6130  1.5792
13587TIP3    H262177   0.552   4.231  16.860 -0.0006  0.5525 -1.0973
13588TIP3   OH262178   5.062   2.302   0.957 -0.3002  0.2132 -0.2889
13588TIP3    H162179   5.074   2.322   0.864  3.3138 -1.4777 -0.3620
13588TIP3    H262180   5.019   2.216   0.957 -0.2561  0.1909 -0.3750
13589TIP3   OH262181   1.393   5.262  15.017  0.0005  0.1431 -0.3119
13589TIP3    H162182   1.427   5.236  15.103 -1.3507 -1.1877 -0.1496
13589TIP3    H262183   1.327   5.329  15.036 -0.3239 -0.1770 -0.2977
13590TIP3   OH262184   1.733   3.554  15.265 -0.0790  0.1164 -0.0284
13590TIP3    H162185   1.673   3.567  15.192 -0.0965  0.6770  0.0748
13590TIP3    H262186   1.755   3.461  15.263 -0.6578 -0.0192 -0.2946
13591TIP3   OH262187   2.415   5.630   5.393  0.7873 -0.1415 -0.0952
13591TIP3    H162188   2.439   5.543   5.425  0.3443  0.1201  1.0188
13591TIP3    H262189   2.320   5.626   5.381  0.7567  0.2008  0.0114
13592TIP3   OH262190   3.905   3.159  16.623 -1.1064  0.1222  0.0398
13592TIP3    H162191   3.947   3.075  16.606 -1.0573 -0.1624  1.4025
13592TIP3    H262192   3.976   3.223  16.619 -0.5113 -0.3291  2.1265
13593TIP3   OH262193   5.898   0.549   5.999  0.3733  0.2599 -0.3343
13593TIP3    H162194   5.837   0.476   5.989 -1.1370  1.7643 -4.6325
13593TIP3    H262195   5.983   0.513   5.977  0.0686 -0.6693 -0.0359
13594TIP3   OH262196   3.802   0.139   3.874 -0.0506 -0.2846 -0.1469
13594TIP3    H162197   3.869   0.193   3.916  0.0345 -1.2773  1.0406
13594TIP3    H262198   3.829   0.049   3.892 -0.1479 -0.7568 -2.1718
13595TIP3   OH262199   3.459   6.158   0.446 -0.0211 -0.2811  0.3995
13595TIP3    H162200   3.551   6.174   0.466  0.7268 -1.3757 -1.7470
13595TIP3    H262201   3.452   6.062   0.446 -0.6429 -0.2757 -1.2356
13596TIP3   OH262202   3.265   2.704   3.760 -0.2721  0.4673 -0.2676
13596TIP3    H162203   3.232   2.792   3.777  0.4238  0.5250  0.9082
13596TIP3    H262204   3.356   2.707   3.790 -0.3138 -0.7136  0.0141
13597TIP3   OH262205   5.016   4.616   3.243  0.7824 -0.3495 -0.4542
13597TIP3    H162206   5.060   4.675   3.182  2.5051  0.7083  1.6807
13597TIP3    H262207   5.082   4.595   3.309 -1.2717 -0.4699  1.7127
13598TIP3   OH262208   4.808   3.169   5.893 -0.5116 -0.1922 -0.2259
13598TIP3    H162209   4.854   3.250   5.918  0.0484  0.2667 -2.5610
13598TIP3    H262210   4.745   3.197   5.828 -1.7112 -1.3811  0.3894
13599TIP3   OH262211   1.988   3.505   3.408  0.0628 -0.4739  0.0432
13599TIP3    H162212   1.892   3.511   3.406 -0.1451 -0.2535  3.5652
13599TIP3    H262213   2.018   3.594   3.388 -0.4970 -0.3810 -0.4007
13600TIP3   OH262214   6.330   0.042  15.202  0.1511  0.3172  0.2810
13600TIP3    H162215   6.313  -0.050  15.181  1.2325  0.2072 -0.2078
13600TIP3    H262216   6.415   0.060  15.161 -0.4012  1.7571 -0.2885
13601TIP3   OH262217   0.628   2.902   2.906  0.4744 -0.1517  0.4594
13601TIP3    H162218   0.572   2.830   2.935 -1.7482  1.9221  1.6987
13601TIP3    H262219   0.712   2.886   2.949 -0.4869 -1.1549  2.0630
13602TIP3   OH262220   2.098   1.169   2.562 -0.2796 -0.1526  0.3453
13602TIP3    H162221   2.040   1.148   2.488  1.5307 -0.0568 -1.1737
13602TIP3    H262222   2.110   1.085   2.607 -1.1611 -0.2728  0.3775
13603TIP3   OH262223   5.743   0.527  16.097 -0.1803  0.0005 -0.3984
13603TIP3    H162224   5.708   0.599  16.148 -1.6206 -0.9538  0.0386
13603TIP3    H262225   5.810   0.487  16.153 -0.1491  0.3349 -0.1970
13604TIP3   OH262226   6.388   5.329  13.484 -0.1729 -0.3813  0.5166
13604TIP3    H162227   6.336   5.390  13.536 -1.3260 -0.7885 -0.1070
13604TIP3    H262228   6.419   5.381  13.410 -1.3925 -0.5862 -0.1663
13605TIP3   OH262229   4.775   5.096   2.393  0.8857 -0.3323  0.2700
13605TIP3    H162230   4.777   5.189   2.415  0.7620 -0.4908  0.9850
13605TIP3    H262231   4.793   5.092   2.299 -0.8254  0.5295 -0.1247
13606TIP3   OH262232   4.752   0.030  11.916  0.4058 -0.5077  0.4876
13606TIP3    H162233   4.822  -0.011  11.867 -1.1005  0.5511 -2.8317
13606TIP3    H262234   4.701  -0.043  11.951  0.6891 -1.3885 -0.8695
13607TIP3   OH262235   3.997   3.559  16.356  0.1087 -0.2001 -0.2638
13607TIP3    H162236   4.032   3.608  16.431  0.6690  0.3391 -0.8617
13607TIP3    H262237   3.949   3.625  16.305 -1.4085 -0.8395  0.3030
13608TIP3   OH262238   0.253   6.086   3.150  0.1893  0.1664 -0.6308
13608TIP3    H162239   0.287   6.026   3.083  2.0545 -0.6799  0.9655
13608TIP3    H262240   0.169   6.049   3.175 -1.1263  1.1304 -3.2142
13609TIP3   OH262241   2.957   0.655   0.401  0.4245  0.2141 -0.0467
13609TIP3    H162242   2.913   0.673   0.318  0.4294  0.6844  0.0510
13609TIP3    H262243   2.959   0.560   0.407 -1.6010  0.1681  0.4988
13610TIP3   OH262244   1.314   6.261   5.428 -0.0125 -0.1818 -0.0585
13610TIP3    H162245   1.396   6.215   5.448  0.7126  1.2509  0.4005
13610TIP3    H262246   1.340   6.330   5.368 -1.1633 -0.6159 -1.1060
13611TIP3   OH262247   4.771   3.161  15.693  0.7873  1.1953  0.2616
13611TIP3    H162248   4.772   3.232  15.758 -1.3423  0.2985  1.3681
13611TIP3    H262249   4.803   3.085  15.740 -0.4357  0.6128  0.1762
13612TIP3   OH262250   5.385   0.157  13.699  0.2561 -0.1097 -0.2819
13612TIP3    H162251   5.299   0.147  13.740  1.4042 -1.0484  2.1208
13612TIP3    H262252   5.398   0.075  13.651  0.0757 -0.2509 -0.0959
13613TIP3   OH262253   5.906   1.360   3.761  0.4600 -0.2044  0.1147
13613TIP3    H162254   5.903   1.267   3.739 -2.5690 -0.5384  1.4817
13613TIP3    H262255   5.815   1.384   3.777  1.1125  3.1019 -0.4426
13614TIP3   OH262256   5.982   6.587  16.613  0.3069  0.0998 -0.1697
13614TIP3    H162257   6.069   6.554  16.589  0.8548  1.5324 -0.2545
13614TIP3    H262258   5.944   6.614  16.530 -0.9699 -2.1217 -0.3831
13615TIP3   OH262259   5.225   4.931  13.706 -0.3250 -0.2648 -0.6364
13615TIP3    H162260   5.299   4.991  13.699  0.1804 -0.1894  3.1614
13615TIP3    H262261   5.263   4.849  13.734 -1.4577 -1.0529 -1.3119
13616TIP3   OH262262   0.748   3.487  15.577 -0.1536  0.2619 -0.6976
13616TIP3    H162263   0.839   3.490  15.549 -0.2258  0.8771 -0.8772
13616TIP3    H262264   0.707   3.424  15.517  0.2578 -0.4287 -0.2728
13617TIP3   OH262265   6.149   2.754  15.450  0.2272 -0.1797  0.3367
13617TIP3    H162266   6.109   2.769  15.536 -1.3939 -0.9089 -0.2652
13617TIP3    H262267   6.169   2.842  15.418 -0.4361  0.1759  0.8737
13618TIP3   OH262268   6.591   1.275  15.042  0.4145  0.0994 -0.0693
13618TIP3    H162269   6.644   1.197  15.028 -0.2286 -0.5199  0.8058
13618TIP3    H262270   6.510   1.242  15.082 -0.6968  0.9941 -1.4943
13619TIP3   OH262271   0.941   2.569  14.258  0.2547 -0.2044 -0.0775
13619TIP3    H162272   0.929   2.625  14.181  1.7159 -0.3571 -0.4656
13619TIP3    H262273   0.940   2.480  14.222 -1.0329 -0.3950  0.3883
13620TIP3   OH262274   3.165   2.346   2.222  0.4698 -0.4592  0.0596
13620TIP3    H162275   3.096   2.329   2.158  1.0136 -0.4357 -0.5453
13620TIP3    H262276   3.233   2.283   2.200  0.0573 -1.4718  1.5737
13621TIP3   OH262277   3.575   0.253   3.758  0.0668 -0.0936  0.0080
13621TIP3    H162278   3.504   0.274   3.818 -0.6312 -1.6214 -0.2453
13621TIP3    H262279   3.648   0.230   3.814 -0.1760 -0.2255  0.2701
13622TIP3   OH262280   1.746   3.166  15.258  0.6578 -0.8611  0.1732
13622TIP3    H162281   1.838   3.189  15.243 -0.0576  0.7317 -2.6217
13622TIP3    H262282   1.720   3.119  15.179 -1.1260 -0.5216  0.5133
13623TIP3   OH262283   6.139   0.034   3.090  0.3240 -0.1992  0.3769
13623TIP3    H162284   6.181   0.011   3.007  1.1851 -0.7847  0.9611
13623TIP3    H262285   6.195  -0.004   3.157 -0.8573 -0.5478  1.2073
13624TIP3   OH262286   3.211   6.119   5.428  0.8166  0.4273 -0.2451
13624TIP3    H162287   3.219   6.030   5.394 -0.5320 -1.0252  2.8106
13624TIP3    H262288   3.299   6.142   5.459  1.0244 -0.1663 -0.3949
13625TIP3   OH262289   4.791   4.008   2.042  0.3518 -0.5865  0.4503
13625TIP3    H162290   4.830   3.925   2.015  0.7968  0.2001 -1.5123
13625TIP3    H262291   4.835   4.029   2.124  1.8154 -1.2601 -0.1251
13626TIP3   OH262292   2.190   0.117  12.223  0.0360  0.0985 -0.0795
13626TIP3    H162293   2.098   0.107  12.246 -0.0284  1.0293  0.0984
13626TIP3    H262294   2.237   0.078  12.297 -0.2058 -0.1205 -0.0398
13627TIP3   OH262295   2.543   2.355  15.018 -0.6803  0.3757  0.0323
13627TIP3    H162296   2.513   2.446  15.012 -0.2111  0.4456 -2.3606
13627TIP3    H262297   2.607   2.347  14.948  0.0339 -1.5639  0.8393
13628TIP3   OH262298   6.116   4.507  13.157 -0.5990 -0.2893 -0.2396
13628TIP3    H162299   6.164   4.526  13.076 -0.6916  1.5031  0.0869
13628TIP3    H262300   6.170   4.444  13.204 -0.7662 -1.7438 -1.8861
13629TIP3   OH262301   3.923   4.761   6.403  0.6920 -0.3232 -0.1273
13629TIP3    H162302   4.000   4.707   6.388  0.9019  0.3087 -1.4076
13629TIP3    H262303   3.930   4.788   6.495  1.7637 -0.6017 -0.1193
13630TIP3   OH262304   1.113   2.835  13.063  0.4203 -0.1292  0.1590
13630TIP3    H162305   1.090   2.846  12.971  0.9795  1.0307  0.1333
13630TIP3    H262306   1.208   2.843  13.066  0.4186 -0.2600  0.8164
13631TIP3   OH262307   2.826   0.254   6.266  0.1469  0.2745  0.5120
13631TIP3    H162308   2.881   0.288   6.337 -1.1546  0.4781  1.4424
13631TIP3    H262309   2.869   0.173   6.239  1.3579  0.8422  0.6462
13632TIP3   OH262310   5.272   2.242   0.426 -0.7588 -0.2019 -0.2441
13632TIP3    H162311   5.206   2.276   0.485 -1.0089 -0.0846 -0.5898
13632TIP3    H262312   5.291   2.154   0.459  0.0042  0.3174  0.7403
13633TIP3   OH262313   2.616   2.129   2.356  0.1921 -0.5214 -0.0936
13633TIP3    H162314   2.690   2.145   2.415  0.2867  1.4056 -0.6710
13633TIP3    H262315   2.655   2.084   2.281  0.9753  1.1036 -0.7164
13634TIP3   OH262316   4.760   3.895   6.255 -0.4509  0.0192  0.3442
13634TIP3    H162317   4.784   3.822   6.311  1.0818  0.0552 -0.2128
13634TIP3    H262318   4.667   3.882   6.236 -0.7934 -0.4460  2.1838
13635TIP3   OH262319   5.980   5.253   4.636 -0.3434  0.3042 -0.7538
13635TIP3    H162320   5.991   5.266   4.542 -0.4659  0.9089 -0.6877
13635TIP3    H262321   6.059   5.290   4.675 -1.8871  3.5198 -0.3671
13636TIP3   OH262322   5.050   4.537  13.321 -0.1810 -0.1782  0.0577
13636TIP3    H162323   5.076   4.530  13.229  0.0235  0.7519  0.0317
13636TIP3    H262324   4.957   4.514  13.321 -0.1990 -0.1192 -0.3984
13637TIP3   OH262325   1.776   6.445   5.996  0.0492 -0.0308 -0.4635
13637TIP3    H162326   1.731   6.438   5.911 -0.4415  0.5218 -0.2590
13637TIP3    H262327   1.707   6.473   6.056  0.8256  1.6130 -0.2947
13638TIP3   OH262328   4.051   3.538   3.324 -0.3948 -0.0112  0.2997
13638TIP3    H162329   4.022   3.552   3.234 -0.1648  2.4490  0.5256
13638TIP3    H262330   3.981   3.576   3.377  0.5410  0.7378  1.0419
13639TIP3   OH262331   3.392   4.370   2.413 -0.2960  0.4437 -0.1281
13639TIP3    H162332   3.331   4.314   2.463  0.0652  0.9837  0.9632
13639TIP3    H262333   3.336   4.439   2.378 -0.3583  0.8711  0.7711
13640TIP3   OH262334   1.918   1.100   1.607 -0.0706  0.3668  0.3856
13640TIP3    H162335   1.976   1.105   1.532  0.3809 -0.7509  0.6462
13640TIP3    H262336   1.874   1.185   1.608 -0.7909  0.0690 -1.6761
13641TIP3   OH262337   5.300   1.713  11.087  0.1749  0.0280 -0.1245
13641TIP3    H162338   5.361   1.716  11.013  0.6028  0.3719  0.2354
13641TIP3    H262339   5.292   1.804  11.116 -1.5596  0.1978 -0.9913
13642TIP3   OH262340   6.067   2.526  15.748  0.0080  0.4987  0.0298
13642TIP3    H162341   6.093   2.595  15.686  1.4956  1.1800  1.3626
13642TIP3    H262342   6.096   2.445  15.706  3.7307  1.1519  1.0429
13643TIP3   OH262343   1.610   1.338   2.608 -0.6194  0.4166  0.6101
13643TIP3    H162344   1.583   1.249   2.632  1.1096  0.0110  1.1799
13643TIP3    H262345   1.673   1.362   2.676 -1.9287  2.5614  1.1528
13644TIP3   OH262346   2.148   2.714  16.381 -0.0489  0.1895  0.0061
13644TIP3    H162347   2.097   2.787  16.416  0.3326  0.5967 -0.2640
13644TIP3    H262348   2.083   2.651  16.350 -0.4051 -0.1903  1.4234
13645TIP3   OH262349   4.864   2.132   0.547 -0.0641 -0.4875  0.0608
13645TIP3    H162350   4.881   2.089   0.631 -1.4336 -1.5021 -0.1481
13645TIP3    H262351   4.877   2.063   0.482 -0.0262  0.0299 -0.4851
13646TIP3   OH262352   5.986   0.060  11.955 -0.5180 -0.0923 -0.0692
13646TIP3    H162353   5.921   0.065  11.885  0.0541 -1.5241 -0.7407
13646TIP3    H262354   5.961   0.129  12.016 -2.9512 -0.9188 -0.0339
13647TIP3   OH262355   2.301   2.557   2.121 -0.2903  0.0039 -0.1112
13647TIP3    H162356   2.391   2.572   2.093 -0.7108  0.4743 -1.2591
13647TIP3    H262357   2.309   2.508   2.203  0.9857 -1.2966 -0.9771
13648TIP3   OH262358   6.151   4.994   1.950 -0.1836  0.0544 -0.1443
13648TIP3    H162359   6.112   5.013   2.036 -2.2614 -0.4280 -0.9328
13648TIP3    H262360   6.244   4.983   1.969 -0.4908  0.4988  1.9612
13649TIP3   OH262361   4.461   1.988  14.111  0.5341  0.3613  0.2070
13649TIP3    H162362   4.386   2.044  14.130  0.3555 -0.1444  1.0552
13649TIP3    H262363   4.535   2.034  14.151  0.1165 -0.8444  2.5917
13650TIP3   OH262364   2.572   4.164  11.642 -0.4611 -0.0529 -0.1259
13650TIP3    H162365   2.604   4.103  11.575 -2.1509 -0.5744 -0.5036
13650TIP3    H262366   2.626   4.146  11.719 -1.2867 -2.5031 -0.0321
13651TIP3   OH262367   0.775   6.553   0.090  0.6294 -0.1828 -0.0330
13651TIP3    H162368   0.729   6.563   0.174  1.1215  1.2483  0.0972
13651TIP3    H262369   0.793   6.459   0.084 -1.6077 -0.6724  0.2632
13652TIP3   OH262370   5.454   5.376   4.747  0.3794  0.5013 -0.1844
13652TIP3    H162371   5.408   5.431   4.810  2.7808  0.9991  1.2671
13652TIP3    H262372   5.415   5.397   4.662 -2.7942 -0.0062  1.0351
13653TIP3   OH262373   5.338   3.557   5.992 -0.4744  0.9616 -0.3254
13653TIP3    H162374   5.286   3.600   5.923 -0.2905 -1.0659 -1.8260
13653TIP3    H262375   5.388   3.490   5.945 -0.1944 -0.3757  1.7807
13654TIP3   OH262376   3.571   3.560  14.626  0.2436  0.5157 -0.2585
13654TIP3    H162377   3.557   3.539  14.534 -0.6974 -1.2837  0.2500
13654TIP3    H262378   3.505   3.509  14.673  0.7272  1.3569  1.4177
13655TIP3   OH262379   5.237   1.441  16.254 -0.1343  0.2926 -0.8730
13655TIP3    H162380   5.223   1.516  16.197 -0.2895  0.3146 -0.8064
13655TIP3    H262381   5.331   1.443  16.274 -0.0801  0.2834 -1.1287
13656TIP3   OH262382   2.027   1.435   0.927 -0.2252  1.1354  0.0020
13656TIP3    H162383   2.117   1.423   0.956 -0.4294  0.7565  0.4845
13656TIP3    H262384   2.029   1.415   0.833 -0.3302 -1.7296  0.5355
13657TIP3   OH262385   1.399   4.505  14.162  0.2787 -0.4961  0.5318
13657TIP3    H162386   1.335   4.537  14.225  0.6016 -0.1444  0.6808
13657TIP3    H262387   1.469   4.570  14.162 -1.2108  1.3826 -2.6300
13658TIP3   OH262388   4.356   1.413   2.449  0.2946  0.4929  0.2914
13658TIP3    H162389   4.438   1.450   2.480  1.3039 -1.7832  0.4965
13658TIP3    H262390   4.313   1.380   2.527 -1.3148  2.4019  0.3204
13659TIP3   OH262391   3.526   3.689  16.411  0.2743 -0.2654 -0.0160
13659TIP3    H162392   3.597   3.754  16.409 -0.2604  0.3118 -0.4724
13659TIP3    H262393   3.485   3.701  16.496 -0.2863  0.5092 -0.3875
13660TIP3   OH262394   6.586   4.411   4.958  0.4625  0.0686 -0.0519
13660TIP3    H162395   6.680   4.399   4.945  0.5923  1.8962 -1.1462
13660TIP3    H262396   6.547   4.390   4.874 -0.0048  0.2120  0.1246
13661TIP3   OH262397   2.942   0.103   4.871  0.4804 -0.7591  0.0597
13661TIP3    H162398   2.883   0.075   4.941  0.5695 -2.1282 -0.3860
13661TIP3    H262399   2.912   0.192   4.849 -0.1187 -0.6578  1.2038
13662TIP3   OH262400   3.144   2.555  14.515 -0.0576  0.1334  0.0337
13662TIP3    H162401   3.214   2.516  14.567  0.1881  2.1846  1.3394
13662TIP3    H262402   3.068   2.498  14.531  0.5635 -0.4894  0.8934
13663TIP3   OH262403   6.480   1.881   4.094  0.0880 -0.2535  0.1534
13663TIP3    H162404   6.499   1.854   4.184  0.4003  0.2309  0.2356
13663TIP3    H262405   6.534   1.823   4.040  1.7982  1.0394  0.3765
13664TIP3   OH262406   6.548   4.599   5.672  0.1772 -0.2502 -0.3566
13664TIP3    H162407   6.529   4.618   5.580 -0.0143  0.5081 -0.1670
13664TIP3    H262408   6.642   4.580   5.674  0.1213 -0.5905 -0.7533
13665TIP3   OH262409   6.132   4.901   4.077 -0.1370  0.3882  0.2372
13665TIP3    H162410   6.198   4.832   4.065  1.0478  1.0741  2.2787
13665TIP3    H262411   6.049   4.853   4.084  0.1961 -0.5502 -1.6759
13666TIP3   OH262412   1.020   2.492   0.953 -0.2798 -0.0146  0.0408
13666TIP3    H162413   0.928   2.469   0.967 -0.3644  0.4310  0.2295
13666TIP3    H262414   1.022   2.532   0.866 -0.0306 -1.2615 -0.5551
13667TIP3   OH262415   5.452   6.704  12.221 -0.5188  0.2193  0.3968
13667TIP3    H162416   5.432   6.785  12.174 -1.0715  0.6449  1.3409
13667TIP3    H262417   5.450   6.728  12.314 -0.6063 -0.8535  0.6907
13668TIP3   OH262418   1.640   5.363  12.331 -0.5857  0.4879 -0.4681
13668TIP3    H162419   1.604   5.297  12.271  0.6048 -1.7766  1.1557
13668TIP3    H262420   1.568   5.382  12.392 -0.5158 -0.4440 -0.0786
13669TIP3   OH262421   5.253   5.016   2.239 -0.3178  0.2560 -0.1443
13669TIP3    H162422   5.207   5.016   2.323  1.1264 -2.5099  0.7560
13669TIP3    H262423   5.249   4.925   2.210  4.0569 -0.0747 -0.2621
13670TIP3   OH262424   1.417   2.050  11.081  0.4361 -0.3170  0.0595
13670TIP3    H162425   1.450   2.028  10.993  0.8661 -1.0291  0.3860
13670TIP3    H262426   1.329   2.012  11.083 -0.6173  1.9231 -0.9502
13671TIP3   OH262427   1.537   0.074  12.442  0.0709  0.0671  0.2446
13671TIP3    H162428   1.445   0.061  12.467 -0.1731  1.5423  0.2684
13671TIP3    H262429   1.585   0.006  12.488 -0.8958 -0.0681  1.1017
13672TIP3   OH262430   3.714   0.215  13.964  0.1215 -0.3626  0.0578
13672TIP3    H162431   3.800   0.174  13.976  0.7278  0.8977  0.1281
13672TIP3    H262432   3.729   0.308  13.981 -1.4064 -0.2208  0.7474
13673TIP3   OH262433   4.873   6.671   5.911 -0.6987  0.4558 -0.7330
13673TIP3    H162434   4.820   6.751   5.916 -1.9358 -0.3620 -0.3098
13673TIP3    H262435   4.820   6.610   5.860 -1.1453 -1.0828  1.4270
13674TIP3   OH262436   4.551   1.766   2.387  0.6407 -0.0022  0.4182
13674TIP3    H162437   4.612   1.827   2.345  0.5737  1.7487  2.7169
13674TIP3    H262438   4.541   1.695   2.323  3.7948  0.4241 -0.7249
13675TIP3   OH262439   1.802   6.304  14.785  0.3253  0.8431 -0.4519
13675TIP3    H162440   1.755   6.346  14.857  1.6918  0.6109  0.6168
13675TIP3    H262441   1.773   6.351  14.706 -1.9930  0.4295  0.0819
13676TIP3   OH262442   0.017   3.570   2.386  0.5967  0.2956  1.0508
13676TIP3    H162443   0.049   3.551   2.474  2.5133 -1.8341 -0.0131
13676TIP3    H262444   0.094   3.599   2.338  0.1027 -0.8336 -0.5078
13677TIP3   OH262445   5.442   5.600  17.164 -0.0037  0.0742 -0.9247
13677TIP3    H162446   5.495   5.522  17.145  2.2769  1.6547 -1.4633
13677TIP3    H262447   5.379   5.603  17.092  1.0634 -0.3304 -1.9175
13678TIP3   OH262448   0.228   2.017  11.169  0.2331 -1.2152  0.2254
13678TIP3    H162449   0.317   1.985  11.155  0.8964  0.9194 -0.7992
13678TIP3    H262450   0.224   2.099  11.119 -2.5734 -1.6647 -0.4294
13679TIP3   OH262451   5.450   4.307  16.701 -0.3266 -0.5891 -0.1977
13679TIP3    H162452   5.371   4.340  16.745  0.0202  2.0860 -1.3717
13679TIP3    H262453   5.515   4.301  16.771 -1.2055 -1.6695  0.5677
13680TIP3   OH262454   4.141   2.114  15.710 -0.3992 -0.4738  0.1496
13680TIP3    H162455   4.197   2.163  15.649  0.4405  0.3273  1.4986
13680TIP3    H262456   4.062   2.094  15.660  0.3132  0.0414 -1.2270
13681TIP3   OH262457   4.482   0.669   4.992 -0.1923  0.2314  0.3394
13681TIP3    H162458   4.410   0.728   5.016  1.0509  1.0556  2.2593
13681TIP3    H262459   4.504   0.693   4.902 -2.8396 -0.6495 -0.6489
13682TIP3   OH262460   3.799   0.831  15.759 -1.1719  0.3779  0.3973
13682TIP3    H162461   3.811   0.884  15.680 -1.5690 -0.8076 -0.4787
13682TIP3    H262462   3.774   0.895  15.826  0.9301  1.6586  0.0560
13683TIP3   OH262463   2.711   3.763   1.060  0.1064 -0.1797 -0.0097
13683TIP3    H162464   2.711   3.667   1.063 -1.5420 -0.2026  2.4515
13683TIP3    H262465   2.773   3.789   1.128  2.0548  0.6095 -1.9662
13684TIP3   OH262466   1.719   4.356   4.178 -0.0197 -0.2018  0.4192
13684TIP3    H162467   1.744   4.264   4.186 -2.0208 -0.7536  0.9954
13684TIP3    H262468   1.686   4.379   4.265  1.3831  1.3910  0.5738
13685TIP3   OH262469   1.559   0.006   6.605  0.3040 -0.6588 -0.0649
13685TIP3    H162470   1.617   0.033   6.533 -0.5803  1.3810 -0.0729
13685TIP3    H262471   1.571   0.073   6.672 -0.3259 -1.4912  0.9039
13686TIP3   OH262472   0.538   0.462  13.028  0.3909 -0.1287 -0.0637
13686TIP3    H162473   0.570   0.414  13.105 -1.1438 -0.6861  0.2771
13686TIP3    H262474   0.463   0.410  12.998 -0.1145  1.0373 -0.8700
13687TIP3   OH262475   5.839   2.509   2.319  0.5978  0.0827  0.3968
13687TIP3    H162476   5.778   2.555   2.260  2.2653  1.3439 -0.4262
13687TIP3    H262477   5.799   2.519   2.405 -0.7211  0.2413 -0.1920
13688TIP3   OH262478   6.405   5.333   0.338 -0.0040 -0.1040 -0.0330
13688TIP3    H162479   6.450   5.268   0.392  1.1542 -0.6939 -1.6655
13688TIP3    H262480   6.312   5.322   0.361  0.2308 -1.9099  0.1696
13689TIP3   OH262481   4.282   5.368   0.656  0.4116  0.0228 -0.0154
13689TIP3    H162482   4.353   5.423   0.689  1.2926 -1.0588 -0.0372
13689TIP3    H262483   4.310   5.343   0.568  0.9123 -1.8645  0.6191
13690TIP3   OH262484   6.132   6.196   6.830 -0.4277 -0.1755  0.2983
13690TIP3    H162485   6.085   6.114   6.817  1.8489 -1.3335 -1.3390
13690TIP3    H262486   6.219   6.180   6.794  1.6854  1.4559  4.0873
13691TIP3   OH262487   1.492   4.163   3.473  0.3273 -0.6055 -0.5171
13691TIP3    H162488   1.466   4.246   3.434  0.2880 -0.7035 -0.7026
13691TIP3    H262489   1.556   4.126   3.411  1.7772  0.1581  0.4782
13692TIP3   OH262490   2.307   6.013  14.987  0.7884  0.4124  0.7894
13692TIP3    H162491   2.379   5.960  14.954  0.1250 -1.5421  2.2949
13692TIP3    H262492   2.234   5.995  14.928  1.8238  3.7308 -1.8069
13693TIP3   OH262493   4.162   3.696  11.431 -0.1116  0.1734 -0.2731
13693TIP3    H162494   4.194   3.786  11.428  0.7240 -0.1073 -0.2868
13693TIP3    H262495   4.194   3.658  11.349 -0.9178  0.0061 -0.5194
13694TIP3   OH262496   2.150   2.706   1.942 -0.2952  0.4100  0.2181
13694TIP3    H162497   2.199   2.649   2.001  0.4515 -1.0731 -1.7428
13694TIP3    H262498   2.063   2.666   1.934 -0.2085  0.2865 -0.1273
13695TIP3   OH262499   6.454   5.945  11.336 -0.2850  0.1526  0.6642
13695TIP3    H162500   6.385   5.914  11.277 -0.0395  1.7892 -0.5534
13695TIP3    H262501   6.535   5.922  11.291 -0.0991  1.9622  0.0089
13696TIP3   OH262502   3.300   2.536   0.334 -0.2450  0.0255  0.4602
13696TIP3    H162503   3.262   2.614   0.292  0.3474 -1.2785 -2.8027
13696TIP3    H262504   3.226   2.496   0.380 -1.8167  0.0285 -1.8606
13697TIP3   OH262505   1.779   4.571  14.263  0.2108  0.0484 -0.1794
13697TIP3    H162506   1.685   4.591  14.267  0.4539  1.7782 -1.8618
13697TIP3    H262507   1.784   4.485  14.223 -0.6502 -0.1267  0.0674
13698TIP3   OH262508   3.412   6.480  14.436 -0.2970  0.4842  0.5810
13698TIP3    H162509   3.379   6.522  14.356  0.6404 -1.6600 -1.0658
13698TIP3    H262510   3.384   6.389  14.427  2.7713 -0.6107  0.9303
13699TIP3   OH262511   1.218   0.597   1.188 -0.2292 -0.4829  0.5613
13699TIP3    H162512   1.244   0.671   1.133  0.0905 -0.6097  0.5367
13699TIP3    H262513   1.192   0.529   1.126  1.4997 -1.1361  0.4927
13700TIP3   OH262514   2.023   5.401   2.402 -0.5192 -0.2635 -0.6583
13700TIP3    H162515   2.017   5.320   2.351  0.0170  0.0594 -1.2590
13700TIP3    H262516   2.107   5.394   2.448 -0.2067  0.1791 -1.1420
13701TIP3   OH262517   1.298   5.879   4.327  0.4125  0.0952  0.2885
13701TIP3    H162518   1.306   5.892   4.233 -1.7221 -0.9620 -0.0833
13701TIP3    H262519   1.206   5.858   4.342  0.6064  0.6104  2.6727
13702TIP3   OH262520   3.838   2.433  11.094  0.1264  0.1561  0.3856
13702TIP3    H162521   3.785   2.509  11.071  1.7858  0.6372 -2.3378
13702TIP3    H262522   3.780   2.378  11.146 -2.1785  1.8015 -0.2676
13703TIP3   OH262523   2.869   3.858  12.590  0.3739 -0.6694 -0.3205
13703TIP3    H162524   2.897   3.843  12.500  0.8661  0.7846 -0.4456
13703TIP3    H262525   2.887   3.776  12.635  1.6826 -0.8847 -1.1848
13704TIP3   OH262526   1.044   3.603  13.994  0.2475  0.3237  0.0067
13704TIP3    H162527   1.042   3.652  14.076  0.2914 -0.0846  0.2557
13704TIP3    H262528   0.952   3.586  13.974  0.2788 -0.7408  0.6871
13705TIP3   OH262529   3.110   0.306   1.430  0.3891 -0.3149  0.1544
13705TIP3    H162530   3.162   0.381   1.402 -1.1551  0.2877 -1.3274
13705TIP3    H262531   3.165   0.230   1.412  0.3619  0.1977 -2.5735
13706TIP3   OH262532   0.661   6.665  17.163  0.3611  0.3081  0.2450
13706TIP3    H162533   0.713   6.657  17.243  1.0059 -0.2972 -0.2336
13706TIP3    H262534   0.710   6.617  17.097 -1.3633 -1.3198  0.0532
13707TIP3   OH262535   6.069   5.156   0.918 -0.2206  0.1467  0.6614
13707TIP3    H162536   5.977   5.167   0.894  0.0969 -0.5024 -0.9369
13707TIP3    H262537   6.102   5.090   0.858  1.0404 -0.4016  1.9170
13708TIP3   OH262538   4.290   1.431  12.527  0.2526  0.1976 -0.3809
13708TIP3    H162539   4.374   1.400  12.492  0.6685  1.7329 -0.8262
13708TIP3    H262540   4.313   1.476  12.609 -0.2868 -0.3356  0.0729
13709TIP3   OH262541   4.068   6.541   1.286  0.1871  0.2311 -0.0263
13709TIP3    H162542   4.004   6.522   1.355 -1.2893  0.7337 -1.2026
13709TIP3    H262543   4.099   6.455   1.258  0.5201  0.0077  0.9803
13710TIP3   OH262544   3.058   0.894  15.475  0.1662 -0.8710  0.1342
13710TIP3    H162545   3.083   0.983  15.500  0.7740 -0.9475 -0.1891
13710TIP3    H262546   3.116   0.837  15.525  1.3887 -1.0230 -1.3708
13711TIP3   OH262547   3.760   3.566  15.346  0.4135  0.8276  0.3721
13711TIP3    H162548   3.841   3.616  15.335  0.1062  1.3990  0.6527
13711TIP3    H262549   3.790   3.478  15.369  1.0553  0.0080 -3.0587
13712TIP3   OH262550   2.545   2.633   5.290 -0.3372  1.2506 -0.4723
13712TIP3    H162551   2.456   2.663   5.270 -0.0444  2.2720 -0.2995
13712TIP3    H262552   2.595   2.654   5.212 -0.3911 -0.0634 -0.8928
13713TIP3   OH262553   5.104   2.805  14.141  0.0497 -0.3293 -0.2928
13713TIP3    H162554   5.039   2.858  14.187  0.7376  1.3368 -1.1778
13713TIP3    H262555   5.170   2.787  14.207 -1.6952 -2.9273  0.9205
13714TIP3   OH262556   0.368   6.397  15.104 -0.1548  0.0317 -0.2270
13714TIP3    H162557   0.339   6.332  15.168 -1.0468 -1.8499 -2.3809
13714TIP3    H262558   0.303   6.391  15.033 -1.2491  4.4546  0.0602
13715TIP3   OH262559   2.094   2.185   1.581  0.4122  0.7496  0.1890
13715TIP3    H162560   2.081   2.117   1.515  0.9429 -1.7664  2.4869
13715TIP3    H262561   2.189   2.201   1.581  0.4490  0.5528  0.4686
13716TIP3   OH262562   1.382   6.318   2.461  0.0938  0.1146  0.2530
13716TIP3    H162563   1.333   6.250   2.506 -0.9093  0.6640  0.0180
13716TIP3    H262564   1.443   6.351   2.527  0.9250 -1.2991  0.2365
13717TIP3   OH262565   4.585   5.032  15.115 -0.4563  0.8331 -0.6016
13717TIP3    H162566   4.529   4.960  15.142  0.6746  0.5868  1.2709
13717TIP3    H262567   4.595   5.022  15.020 -1.8056 -0.3589 -0.6280
13718TIP3   OH262568   2.979   4.995   4.031 -0.1262 -0.0116 -0.9381
13718TIP3    H162569   2.907   5.049   3.999  0.4351  0.2743 -1.7517
13718TIP3    H262570   3.037   5.056   4.076 -1.0334 -0.4429  0.9536
13719TIP3   OH262571   3.292   3.361   6.218 -0.4055 -0.0888 -0.0487
13719TIP3    H162572   3.325   3.341   6.131 -1.0746 -0.3727 -0.2428
13719TIP3    H262573   3.224   3.427   6.203 -0.0501  0.3731  0.3274
13720TIP3   OH262574   0.846   1.982   1.409  0.1057 -0.5403  0.2952
13720TIP3    H162575   0.897   1.995   1.489  0.6897  0.8344 -0.2564
13720TIP3    H262576   0.911   1.971   1.340 -0.3126  0.8241 -0.3581
13721TIP3   OH262577   1.065   5.541  14.589  0.4855 -0.2350  0.5443
13721TIP3    H162578   1.141   5.597  14.572 -0.3221  0.8825  0.5028
13721TIP3    H262579   1.047   5.554  14.682 -0.0751  0.0604  0.3959
13722TIP3   OH262580   2.307   2.092   1.931  0.6581  0.3380  0.1590
13722TIP3    H162581   2.274   2.062   1.846  2.1341  0.3958 -0.4730
13722TIP3    H262582   2.398   2.063   1.932  1.1450  1.8083  1.0187
13723TIP3   OH262583   5.704   5.758   5.500  0.0843 -0.5495 -0.6072
13723TIP3    H162584   5.798   5.759   5.484 -0.0283 -1.5541 -1.4707
13723TIP3    H262585   5.677   5.849   5.493  0.8446 -0.3659 -1.3250
13724TIP3   OH262586   6.304   6.290   5.621  0.6096  0.4689 -0.2220
13724TIP3    H162587   6.262   6.257   5.541  0.8672  0.3251 -0.2972
13724TIP3    H262588   6.372   6.226   5.641  1.7482  1.4166 -0.8943
13725TIP3   OH262589   6.398   5.383   2.708 -0.2145 -0.0788  0.3303
13725TIP3    H162590   6.331   5.320   2.682  0.5330 -0.7379 -0.0437
13725TIP3    H262591   6.391   5.454   2.644  1.2044 -1.3929 -1.3731
13726TIP3   OH262592   6.354   5.678   4.613 -0.0482  0.3351  0.1337
13726TIP3    H162593   6.313   5.680   4.699  0.7223 -3.2850  0.7724
13726TIP3    H262594   6.448   5.675   4.631  0.1060 -1.6698 -0.6391
13727TIP3   OH262595   5.058   5.852   2.310 -0.1853 -0.4356 -0.5448
13727TIP3    H162596   5.002   5.884   2.239 -0.3631 -0.9084 -0.6238
13727TIP3    H262597   4.999   5.847   2.386  0.4192  1.9139  0.1831
13728TIP3   OH262598   6.230   6.654   2.806  0.0201  0.2378 -0.1232
13728TIP3    H162599   6.302   6.655   2.744  1.7267  1.1280  1.7511
13728TIP3    H262600   6.167   6.592   2.770  1.5965 -0.3737 -1.9486
13729TIP3   OH262601   0.491   5.370   5.024 -0.6621 -0.1951 -0.0577
13729TIP3    H162602   0.478   5.457   4.987 -1.3226 -0.1281  0.3183
13729TIP3    H262603   0.446   5.311   4.963  0.0150 -0.3088 -0.4571
13730TIP3   OH262604   5.277   5.971  16.271 -0.0043 -0.1369  0.1430
13730TIP3    H162605   5.359   6.020  16.266 -0.2023  0.1145 -0.9265
13730TIP3    H262606   5.304   5.880  16.287  0.6779 -0.5299 -2.6445
13731TIP3   OH262607   5.831   3.438  12.098 -0.0846 -0.2417 -0.1547
13731TIP3    H162608   5.895   3.466  12.033  2.5060  1.0491  2.7093
13731TIP3    H262609   5.761   3.504  12.093  1.3221  1.3189  0.0623
13732TIP3   OH262610   1.566   5.199  11.866  0.0263  0.1173  0.5646
13732TIP3    H162611   1.517   5.128  11.907 -0.3910  0.1493  0.1314
13732TIP3    H262612   1.655   5.191  11.902  0.2305 -1.1740 -0.1396
13733TIP3   OH262613   2.740   4.398  15.941  0.3829 -0.5740  0.3998
13733TIP3    H162614   2.808   4.452  15.901  0.3622 -3.6471 -4.5337
13733TIP3    H262615   2.659   4.425  15.898 -0.4128 -1.3969  1.3251
13734TIP3   OH262616   1.366   6.221  11.865 -0.2565  0.2864 -0.2072
13734TIP3    H162617   1.398   6.292  11.810  0.2852 -0.6306 -1.1280
13734TIP3    H262618   1.416   6.229  11.947  2.5035 -1.1169 -1.6028
13735TIP3   OH262619   3.966   1.089   1.894 -0.3967 -0.2683 -0.1545
13735TIP3    H162620   4.017   1.165   1.924 -0.5771 -0.0647 -0.3574
13735TIP3    H262621   4.032   1.026   1.866 -0.2441 -0.1946  0.0342
13736TIP3   OH262622   4.240   3.866   6.242  0.1844  0.2855 -0.1003
13736TIP3    H162623   4.177   3.930   6.275 -0.4799 -1.3689  2.0055
13736TIP3    H262624   4.209   3.782   6.274  2.2368 -0.8622 -0.9253
13737TIP3   OH262625   3.680   0.933  12.760  0.5179 -0.3735  0.3362
13737TIP3    H162626   3.631   0.852  12.775  3.6149 -2.5656 -0.3873
13737TIP3    H262627   3.747   0.934  12.829 -0.7305  2.8378  1.7052
13738TIP3   OH262628   1.288   3.602  15.639  0.2790  0.3287 -0.7333
13738TIP3    H162629   1.262   3.585  15.730  0.9150  1.6492 -0.2858
13738TIP3    H262630   1.262   3.522  15.592  2.7267 -1.7690  1.1344
13739TIP3   OH262631   5.906   5.403  16.589  0.4754 -0.4032  0.0254
13739TIP3    H162632   5.969   5.410  16.517  0.6680 -1.0411  0.1221
13739TIP3    H262633   5.961   5.387  16.666  0.1453 -2.2306 -0.0762
13740TIP3   OH262634   4.799   4.025  14.559  0.0134 -0.1446 -0.4279
13740TIP3    H162635   4.832   4.027  14.649  0.5300  0.4071 -0.6240
13740TIP3    H262636   4.877   4.035  14.505 -0.2843 -0.5491 -0.9459
13741TIP3   OH262637   0.311   0.558   0.117 -0.0457 -0.4365  0.1515
13741TIP3    H162638   0.321   0.481   0.062  1.3031  0.1938 -0.5163
13741TIP3    H262639   0.365   0.625   0.075 -1.8833  1.1593  0.1937
13742TIP3   OH262640   5.589   6.421   5.622  0.9857 -0.7537 -0.2823
13742TIP3    H162641   5.504   6.466   5.624  0.8658 -0.9847  1.4640
13742TIP3    H262642   5.654   6.491   5.626  0.8152 -0.6657  1.3528
13743TIP3   OH262643   6.373   1.062  12.700 -0.0083 -1.0061  0.4879
13743TIP3    H162644   6.314   1.036  12.629 -1.0939  0.2735  0.8682
13743TIP3    H262645   6.442   1.112  12.657 -1.3436  0.8732  0.4004
13744TIP3   OH262646   5.712   3.304   2.250  0.2343  0.7614 -0.1025
13744TIP3    H162647   5.684   3.303   2.341  0.8150 -0.1545  0.0807
13744TIP3    H262648   5.703   3.395   2.222 -2.7941  0.5662 -0.0252
13745TIP3   OH262649   0.706   1.304  12.825  0.2856  0.1127 -0.0215
13745TIP3    H162650   0.780   1.246  12.813  0.2926  0.2918 -0.8915
13745TIP3    H262651   0.640   1.250  12.868 -0.0642 -0.8500 -1.6654
13746TIP3   OH262652   4.624   4.158   2.772 -0.5017 -0.0098 -0.5932
13746TIP3    H162653   4.686   4.226   2.747 -0.0634 -0.4784 -0.8001
13746TIP3    H262654   4.545   4.206   2.797  0.6941  0.7550  2.0700
13747TIP3   OH262655   5.576   0.840  17.582 -0.0561 -1.3613 -0.2561
13747TIP3    H162656   5.624   0.852  17.499  0.2602 -1.8424 -0.1467
13747TIP3    H262657   5.638   0.867  17.649 -0.4938 -0.4617 -0.1909
13748TIP3   OH262658   0.882   2.200   3.687  0.4131 -0.5836  0.0421
13748TIP3    H162659   0.823   2.234   3.619  0.4968  1.8411  1.0989
13748TIP3    H262660   0.936   2.275   3.712  0.9288 -1.6038  2.2144
13749TIP3   OH262661   2.898   2.602  14.308 -0.1223  0.1254  0.2399
13749TIP3    H162662   2.840   2.605  14.384  0.4371  1.0189  0.6441
13749TIP3    H262663   2.982   2.632  14.342  0.4299 -0.5707 -0.4782
13750TIP3   OH262664   5.316   4.722   4.908 -0.2362 -0.2507  1.1781
13750TIP3    H162665   5.283   4.756   4.824  0.3569 -2.6402 -0.1226
13750TIP3    H262666   5.335   4.630   4.890  2.4887 -0.2003  3.2228
13751TIP3   OH262667   2.291   4.609  15.911  0.4171  0.3485 -0.4627
13751TIP3    H162668   2.217   4.616  15.851  0.6608  1.6565 -0.6424
13751TIP3    H262669   2.253   4.623  15.998  0.1780 -0.8221 -0.3677
13752TIP3   OH262670   3.004   2.760  15.115 -0.3217  0.4388  0.1270
13752TIP3    H162671   3.029   2.755  15.207  0.5695  0.2212 -0.1125
13752TIP3    H262672   3.068   2.704  15.070 -1.6848 -0.7150 -0.4466
13753TIP3   OH262673   6.199   1.489   1.294 -0.2908 -0.2209 -0.1035
13753TIP3    H162674   6.123   1.470   1.349 -1.3653  1.6728 -0.8335
13753TIP3    H262675   6.273   1.454   1.343 -1.2932  0.6452  2.1650
13754TIP3   OH262676   0.694   3.915  17.182 -0.7418  0.2176 -0.1460
13754TIP3    H162677   0.608   3.895  17.144 -1.4790  2.3115  0.2688
13754TIP3    H262678   0.679   3.918  17.277  0.8161 -3.7437  0.3958
13755TIP3   OH262679   4.907   5.879  14.370  0.1729 -0.1616  0.4476
13755TIP3    H162680   5.000   5.876  14.348  0.5024 -0.6214  1.8653
13755TIP3    H262681   4.894   5.964  14.412  0.0417 -0.2892  0.6665
13756TIP3   OH262682   4.996   1.976   3.134  0.2016  0.1616 -0.5422
13756TIP3    H162683   5.089   1.969   3.154  0.1399 -0.4473 -0.4513
13756TIP3    H262684   4.969   2.059   3.174  0.1434 -0.8614  1.7427
13757TIP3   OH262685   1.106   0.238   3.610  0.0336  0.0780 -0.4418
13757TIP3    H162686   1.041   0.174   3.638 -0.4011  0.1455 -1.2647
13757TIP3    H262687   1.076   0.267   3.523  1.7955 -0.7776 -1.3895
13758TIP3   OH262688   2.266   0.474   5.607 -0.1975 -0.2721  0.9272
13758TIP3    H162689   2.224   0.519   5.680 -2.3650  0.5115 -0.6982
13758TIP3    H262690   2.300   0.544   5.552 -0.5290 -0.7370  0.1114
13759TIP3   OH262691   2.696   4.063   1.391 -0.3028  0.2407  0.1965
13759TIP3    H162692   2.758   4.062   1.318 -0.4671  0.3348  0.0520
13759TIP3    H262693   2.699   4.153   1.424  1.3200 -0.3004  1.6670
13760TIP3   OH262694   5.842   3.365  11.392  0.2808  0.5512 -0.1800
13760TIP3    H162695   5.891   3.434  11.348  0.4722  2.1081  2.3239
13760TIP3    H262696   5.908   3.302  11.419  0.2303 -0.0760 -1.4092
13761TIP3   OH262697   3.698   0.919   0.284 -0.0268  0.5091  0.4010
13761TIP3    H162698   3.638   0.954   0.218  0.9307  0.1132 -0.7106
13761TIP3    H262699   3.758   0.864   0.234  1.5667  1.2828  1.3989
13762TIP3   OH262700   5.834   1.241  16.408 -0.4504  0.2554 -0.1763
13762TIP3    H162701   5.764   1.207  16.463 -0.2746  0.9194  0.4727
13762TIP3    H262702   5.892   1.167  16.392 -1.4459 -0.3849 -0.9769
13763TIP3   OH262703   5.568   5.390  16.110  0.2747  0.0088 -0.5548
13763TIP3    H162704   5.661   5.375  16.129 -0.4593 -2.9550  1.3939
13763TIP3    H262705   5.548   5.327  16.041 -0.0742  1.5860 -1.9672
13764TIP3   OH262706   2.310   4.941   2.365  0.3994 -0.4698  0.2117
13764TIP3    H162707   2.376   4.881   2.401  1.7879  0.9066  0.0451
13764TIP3    H262708   2.307   4.920   2.272  1.3078  0.0780  0.0460
13765TIP3   OH262709   1.730   2.196   5.290 -0.5662 -0.3628 -1.0166
13765TIP3    H162710   1.646   2.242   5.295 -0.7877 -0.8767  0.1020
13765TIP3    H262711   1.790   2.251   5.340 -1.0003 -1.6114  0.9646
13766TIP3   OH262712   3.059   2.775  12.970 -0.0407  0.1347  0.4715
13766TIP3    H162713   3.115   2.698  12.979 -0.9998 -0.6454 -0.0228
13766TIP3    H262714   3.113   2.838  12.922  0.9675  0.0093  1.4096
13767TIP3   OH262715   3.627   0.328  12.935 -0.0161 -0.2933  0.1109
13767TIP3    H162716   3.541   0.344  12.976 -0.0347 -0.5061  0.1532
13767TIP3    H262717   3.627   0.383  12.857 -0.6115 -1.0957 -0.4672
13768TIP3   OH262718   6.225   3.557  16.205 -0.4310  0.5967 -0.2473
13768TIP3    H162719   6.276   3.504  16.267 -0.8327 -1.2285 -1.4096
13768TIP3    H262720   6.177   3.493  16.153  0.1254  2.0597 -2.6735
13769TIP3   OH262721   0.160   1.368   2.827  0.2831 -0.1619  0.8546
13769TIP3    H162722   0.235   1.418   2.859 -0.9537  1.7893  0.9185
13769TIP3    H262723   0.146   1.300   2.892  2.0184 -0.6279  0.7923
13770TIP3   OH262724   1.679   4.182  12.481  0.9398 -0.0193 -0.1395
13770TIP3    H162725   1.659   4.276  12.479 -1.0866 -0.3622  0.8921
13770TIP3    H262726   1.773   4.178  12.499  0.6502  1.8819  2.5510
13771TIP3   OH262727   5.469   0.609   5.299 -0.0143 -0.6250  0.1461
13771TIP3    H162728   5.493   0.586   5.209 -0.5442 -0.7255  0.0243
13771TIP3    H262729   5.549   0.643   5.338 -0.4510  2.4013 -1.3214
13772TIP3   OH262730   0.817   5.234   6.931  0.4905 -0.5367  0.3915
13772TIP3    H162731   0.834   5.277   6.848  0.2236  0.5967  0.9132
13772TIP3    H262732   0.903   5.204   6.960  1.1755  2.0457  1.3018
13773TIP3   OH262733   5.427   3.631   1.972  0.4374 -0.4851  0.2865
13773TIP3    H162734   5.519   3.638   1.995  0.9147 -2.2302 -0.9122
13773TIP3    H262735   5.418   3.544   1.933 -1.2229  0.5314 -1.8000
13774TIP3   OH262736   4.192   5.959  11.536  0.0565  0.0253 -0.1140
13774TIP3    H162737   4.202   6.014  11.458  2.7279  0.2149  0.2553
13774TIP3    H262738   4.171   5.872  11.502 -0.2238  0.4132 -0.9592
13775TIP3   OH262739   1.545   0.370  13.793 -0.0278 -0.0437 -0.1381
13775TIP3    H162740   1.473   0.360  13.856 -1.9905  3.0655 -1.6735
13775TIP3    H262741   1.510   0.339  13.710  1.5128 -1.3007 -0.3742
13776TIP3   OH262742   5.034   4.610  12.037 -0.4374 -1.0735 -0.5268
13776TIP3    H162743   5.092   4.683  12.012 -1.5762 -0.3022 -0.9787
13776TIP3    H262744   5.084   4.532  12.013  1.1611 -0.4959  0.7190
13777TIP3   OH262745   3.202   5.447  15.538 -0.3821 -0.1205 -0.1575
13777TIP3    H162746   3.123   5.495  15.514 -0.9073 -1.5472 -1.4954
13777TIP3    H262747   3.260   5.457  15.463 -0.7066 -1.9139 -0.7026
13778TIP3   OH262748   0.233   1.729   6.705  0.1785 -0.0363  0.3369
13778TIP3    H162749   0.319   1.772   6.704 -0.2468  0.9476 -2.0539
13778TIP3    H262750   0.252   1.636   6.701  1.1571  0.1594  0.1522
13779TIP3   OH262751   4.554   1.905   4.275 -0.0605  0.4445  0.6386
13779TIP3    H162752   4.650   1.902   4.280 -0.0387 -3.1424  0.5631
13779TIP3    H262753   4.537   1.968   4.205  2.1298  2.1054  1.4559
13780TIP3   OH262754   5.037   5.452  16.880 -0.5825  0.0189  0.4489
13780TIP3    H162755   4.962   5.499  16.916 -0.8592  0.4720 -0.6535
13780TIP3    H262756   5.031   5.364  16.916 -2.1147 -0.1899 -0.2392
13781TIP3   OH262757   2.909   4.407   2.860  0.3901  0.6544  0.0999
13781TIP3    H162758   2.866   4.452   2.788 -0.2354 -0.0931 -0.0081
13781TIP3    H262759   2.900   4.314   2.839  2.8675  0.4593 -0.3992
13782TIP3   OH262760   5.978   2.601  15.305  0.2188 -0.2688  0.2803
13782TIP3    H162761   5.914   2.604  15.377  0.2781 -0.7456  0.3553
13782TIP3    H262762   6.057   2.640  15.342 -0.0277  0.3363  0.1848
13783TIP3   OH262763   2.213   2.576  16.838  0.3955  0.1294 -0.7113
13783TIP3    H162764   2.308   2.574  16.842  0.3777 -0.0762 -0.4346
13783TIP3    H262765   2.191   2.533  16.755  0.5023 -0.6309 -0.3472
13784TIP3   OH262766   4.420   6.025  12.178 -0.3597  0.4075  0.2264
13784TIP3    H162767   4.332   6.056  12.198 -0.2614  1.3568 -0.7265
13784TIP3    H262768   4.410   5.971  12.100  0.0921  1.9504 -0.9684
13785TIP3   OH262769   5.197   0.202   0.727  0.0869  0.1886  0.0933
13785TIP3    H162770   5.136   0.215   0.654 -0.2376  1.4934  0.5718
13785TIP3    H262771   5.260   0.138   0.694 -0.4252  0.2658 -1.0981
13786TIP3   OH262772   3.195   5.934  15.256  0.2644 -0.2603 -0.3690
13786TIP3    H162773   3.197   5.868  15.325  0.5845 -0.5672 -0.6706
13786TIP3    H262774   3.287   5.952  15.236  0.2523 -2.1784 -2.6050
13787TIP3   OH262775   4.971   2.770   4.982  0.4218  0.3430 -0.2143
13787TIP3    H162776   4.947   2.813   5.064 -2.6667 -0.1196 -0.7721
13787TIP3    H262777   4.991   2.842   4.923  2.7017  0.6828  0.8261
13788TIP3   OH262778   5.667   1.846   6.268  0.1619  0.1009 -0.3501
13788TIP3    H162779   5.636   1.778   6.328  0.1023  0.9142  0.5760
13788TIP3    H262780   5.594   1.861   6.208 -0.7759  1.0335  0.9614
13789TIP3   OH262781   5.908   6.432  12.577  0.8060  0.0417 -0.2126
13789TIP3    H162782   5.956   6.456  12.498  0.4522 -0.5685 -0.6178
13789TIP3    H262783   5.943   6.346  12.602  0.2328 -0.2149 -0.2723
13790TIP3   OH262784   2.847   5.690  11.930  0.2166  0.0790 -0.0645
13790TIP3    H162785   2.878   5.722  12.015 -1.4308  0.1751  0.5368
13790TIP3    H262786   2.797   5.764  11.894 -0.9031 -0.6792 -0.1232
13791TIP3   OH262787   2.473   6.396   5.575 -0.1146 -0.2364 -0.0390
13791TIP3    H162788   2.497   6.471   5.520 -2.5184 -0.6368 -1.7728
13791TIP3    H262789   2.557   6.357   5.600  1.1529  2.0742 -0.4059
13792TIP3   OH262790   0.579   6.258   3.645 -0.4372 -0.4369  0.1374
13792TIP3    H162791   0.583   6.334   3.703  0.1375  0.0519 -0.5268
13792TIP3    H262792   0.599   6.293   3.558 -0.5358 -1.2877 -0.2366
13793TIP3   OH262793   2.443   0.004  10.996 -0.1791 -0.6033 -0.2073
13793TIP3    H162794   2.464   0.011  10.903 -0.6100  1.2369 -0.1962
13793TIP3    H262795   2.420   0.093  11.023 -2.0352 -1.4330  1.1974
13794TIP3   OH262796   5.049   3.238  11.199 -0.4997  0.2162  0.4403
13794TIP3    H162797   5.097   3.223  11.118 -0.4869  2.1738  0.0408
13794TIP3    H262798   5.111   3.214  11.268  0.1054  0.1446 -0.1137
13795TIP3   OH262799   3.605   1.847   1.743 -0.3618 -0.7421  0.1430
13795TIP3    H162800   3.608   1.792   1.664  0.1557  0.0441 -0.3984
13795TIP3    H262801   3.583   1.786   1.813 -1.8846 -1.2881 -0.7544
13796TIP3   OH262802   0.872   1.097   2.218 -0.2968  0.0436  0.1166
13796TIP3    H162803   0.960   1.127   2.192  0.2603 -0.3063  1.5373
13796TIP3    H262804   0.887   1.011   2.257 -1.4831 -0.7030 -0.9715
13797TIP3   OH262805   1.328   3.749   2.450 -0.5366 -0.0328  0.5145
13797TIP3    H162806   1.284   3.676   2.407  0.5107 -1.0408  1.0830
13797TIP3    H262807   1.264   3.782   2.514  0.2240 -3.0111  3.0508
13798TIP3   OH262808   1.426   2.256  15.242 -0.0536  0.1497  0.4127
13798TIP3    H162809   1.446   2.170  15.206 -0.3562 -0.5945  1.9600
13798TIP3    H262810   1.508   2.284  15.282  0.2381  0.9097 -0.6583
13799TIP3   OH262811   3.758   1.251   4.950 -0.1720 -0.6018  0.1515
13799TIP3    H162812   3.693   1.232   4.883 -0.4223  0.3822  0.1023
13799TIP3    H262813   3.708   1.276   5.027  0.1038  1.9943 -0.4283
13800TIP3   OH262814   3.934   1.215   5.401 -0.0323 -0.2996 -0.6304
13800TIP3    H162815   3.882   1.292   5.425 -0.2950 -1.4395  3.1232
13800TIP3    H262816   3.885   1.174   5.330 -1.6799  1.2171 -0.4368
13801TIP3   OH262817   1.329   5.443   5.016 -0.4277 -0.1081 -0.2086
13801TIP3    H162818   1.413   5.483   4.992 -0.0177 -0.2478  0.9652
13801TIP3    H262819   1.335   5.427   5.110 -2.6966  2.1176  0.4366
13802TIP3   OH262820   3.053   1.314  15.721 -0.0297 -0.2968 -0.2435
13802TIP3    H162821   3.054   1.410  15.714 -0.4886 -0.1778  1.1430
13802TIP3    H262822   3.146   1.289  15.715  0.0240  0.1471 -1.5126
13803TIP3   OH262823   0.705   4.514   4.064  0.2358  0.2972  0.0559
13803TIP3    H162824   0.714   4.569   3.987 -1.9880 -0.5859 -0.9264
13803TIP3    H262825   0.716   4.425   4.031  0.0228 -0.0476  0.8946
13804TIP3   OH262826   2.961   3.170   5.866  0.2351 -0.7438 -0.2746
13804TIP3    H162827   3.049   3.187   5.830 -0.2990  1.2389 -0.8015
13804TIP3    H262828   2.973   3.176   5.961  0.8688 -1.6203 -0.2939
13805TIP3   OH262829   2.711   2.119   1.013 -0.0048  0.2727 -0.0684
13805TIP3    H162830   2.701   2.110   0.918  0.1137  0.2995 -0.0834
13805TIP3    H262831   2.627   2.153   1.043  0.6228  2.2814 -0.4378
13806TIP3   OH262832   4.959   4.920  13.870 -0.9734 -0.6044  0.1028
13806TIP3    H162833   5.019   4.957  13.805 -2.0348  0.8547 -0.0801
13806TIP3    H262834   4.880   4.973  13.863 -3.2624 -3.8447 -1.2922
13807TIP3   OH262835   0.010   6.133   3.603 -0.1216  0.1844 -0.3954
13807TIP3    H162836   0.034   6.057   3.654  0.9007  1.2680  0.8130
13807TIP3    H262837   0.082   6.144   3.541  2.0236  2.5810  2.2642
13808TIP3   OH262838   5.153   5.923   3.846  0.0110 -0.0740  0.4035
13808TIP3    H162839   5.178   5.984   3.916  0.9334  2.9185 -2.2651
13808TIP3    H262840   5.058   5.924   3.846  0.0069  0.6736  1.0019
13809TIP3   OH262841   6.290   4.478   0.708 -0.0803 -0.0194  0.2409
13809TIP3    H162842   6.238   4.553   0.680  0.7426  0.6145  0.3595
13809TIP3    H262843   6.254   4.454   0.794 -1.2398 -0.6480 -0.3919
13810TIP3   OH262844   0.774   6.694  14.063 -0.0986  0.3950 -0.1963
13810TIP3    H162845   0.756   6.757  13.993 -1.0769  0.5222  0.1578
13810TIP3    H262846   0.852   6.647  14.033  0.5719  1.6591 -0.5390
13811TIP3   OH262847   3.719   3.888   4.251  0.1464  0.1760 -0.3197
13811TIP3    H162848   3.739   3.950   4.322 -0.6263 -1.4000  1.3699
13811TIP3    H262849   3.742   3.802   4.287  0.3338 -0.6325 -2.2536
13812TIP3   OH262850   1.176   5.158   5.650  0.2100  0.0527 -0.0988
13812TIP3    H162851   1.105   5.220   5.667  0.5752 -0.5106  5.5795
13812TIP3    H262852   1.134   5.084   5.606 -1.8354  1.3249 -0.4176
13813TIP3   OH262853   1.852   5.443  11.801 -0.0259  0.0542 -0.5752
13813TIP3    H162854   1.920   5.382  11.830 -0.0702  0.7976  1.2055
13813TIP3    H262855   1.857   5.441  11.705  0.8962 -1.6842 -0.5219
13814TIP3   OH262856   3.757   5.792   4.495  0.2130 -0.0014 -0.0510
13814TIP3    H162857   3.717   5.706   4.480 -0.6779  0.3879  0.0074
13814TIP3    H262858   3.834   5.793   4.438 -1.2575  0.1714 -2.1432
13815TIP3   OH262859   1.823   4.697  15.664 -0.1056 -0.3042  0.1834
13815TIP3    H162860   1.896   4.681  15.724 -0.3107  0.0461  0.5293
13815TIP3    H262861   1.833   4.788  15.637 -0.3064 -0.3122  0.0793
13816TIP3   OH262862   2.942   6.000   2.419  0.3895 -0.4571  0.2049
13816TIP3    H162863   2.910   5.911   2.403 -1.7812  0.3001  0.0906
13816TIP3    H262864   2.864   6.051   2.438  1.7483  1.1421  1.7937
13817TIP3   OH262865   4.114   0.992  12.514  0.5361 -0.2948 -0.0784
13817TIP3    H162866   4.089   1.083  12.498  0.7366 -0.1434  0.4313
13817TIP3    H262867   4.064   0.967  12.591 -0.0277 -0.8383 -0.6168
13818TIP3   OH262868   3.755   0.392  11.660 -0.1905 -0.1776 -0.4601
13818TIP3    H162869   3.743   0.353  11.747 -1.1096  0.7593 -0.1485
13818TIP3    H262870   3.699   0.339  11.603  0.9908 -1.2752 -0.6581
13819TIP3   OH262871   3.539   2.769  13.977 -0.2523  0.1621 -0.5367
13819TIP3    H162872   3.600   2.751  13.905 -0.6710  0.4137 -0.9596
13819TIP3    H262873   3.478   2.696  13.975 -0.3677  0.2599 -0.5456
13820TIP3   OH262874   1.376   0.639   5.969  0.3070  0.4213  0.0092
13820TIP3    H162875   1.319   0.688   6.029 -1.4609  0.1005 -1.3271
13820TIP3    H262876   1.464   0.658   6.000 -0.4718  1.4931  1.7622
13821TIP3   OH262877   3.902   4.850  14.396 -0.4501  0.2264  0.6413
13821TIP3    H162878   3.909   4.868  14.302 -1.0244 -1.3565  0.2688
13821TIP3    H262879   3.990   4.822  14.422 -1.1094 -3.1501 -0.3314
13822TIP3   OH262880   2.766   3.549   0.499  0.7161  0.3799  0.4236
13822TIP3    H162881   2.745   3.608   0.427 -0.5661  0.2130  0.6403
13822TIP3    H262882   2.815   3.602   0.561  0.3669  0.9767  0.1944
13823TIP3   OH262883   0.402   0.843  16.207 -0.5392 -0.3142  0.9467
13823TIP3    H162884   0.460   0.828  16.282  1.4423 -0.1135 -0.4562
13823TIP3    H262885   0.416   0.935  16.184 -0.2487 -0.6442 -0.3126
13824TIP3   OH262886   5.867   0.118   0.993  0.1817 -0.2623  0.3102
13824TIP3    H162887   5.777   0.149   1.007 -0.0387  0.1018 -1.6214
13824TIP3    H262888   5.857   0.033   0.950  0.7195  0.4558 -1.2980
13825TIP3   OH262889   2.650   5.919   4.820  0.1722 -0.4184  0.1138
13825TIP3    H162890   2.604   5.900   4.739 -0.7451  0.7001  0.3499
13825TIP3    H262891   2.589   5.895   4.890  1.2928 -2.2411  0.5330
13826TIP3   OH262892   2.558   3.451  13.135  0.1048  0.1515  0.0616
13826TIP3    H162893   2.494   3.416  13.198  1.0945 -0.3140  0.8355
13826TIP3    H262894   2.643   3.429  13.173  0.7852  2.7697  0.2594
13827TIP3   OH262895   0.191   6.023   1.833  0.5657 -0.0467 -0.1657
13827TIP3    H162896   0.234   5.954   1.783 -1.2344 -0.3033 -1.4634
13827TIP3    H262897   0.149   6.078   1.766  1.4314  1.9696  0.8729
13828TIP3   OH262898   4.726   3.604  12.130 -0.1825  0.0600 -0.4551
13828TIP3    H162899   4.704   3.518  12.166 -0.9109  1.0900  1.7496
13828TIP3    H262900   4.677   3.608  12.047 -1.4101 -1.0593  0.1714
13829TIP3   OH262901   1.403   1.026   3.563  0.3768  0.1046  0.3757
13829TIP3    H162902   1.470   1.070   3.509 -0.2894  0.3380 -0.2752
13829TIP3    H262903   1.339   0.994   3.500  0.7020 -1.5914  0.8561
13830TIP3   OH262904   5.863   1.106  16.719  0.6130 -0.3950 -0.0644
13830TIP3    H162905   5.956   1.118  16.740  0.3395 -0.1918  1.0947
13830TIP3    H262906   5.819   1.179  16.763 -0.3152 -1.6697  1.1880
13831TIP3   OH262907   4.476   0.990   5.050 -0.4478  0.0634  0.2536
13831TIP3    H162908   4.488   1.028   5.137 -0.6145 -0.9428  0.7226
13831TIP3    H262909   4.547   0.926   5.042  1.3555  2.1047 -1.4905
13832TIP3   OH262910   5.630   5.089   2.480  0.0956 -0.3134 -0.2252
13832TIP3    H162911   5.543   5.130   2.477  0.3893  0.2879 -0.8301
13832TIP3    H262912   5.660   5.103   2.570  0.4453  1.3758 -0.5707
13833TIP3   OH262913   0.517   6.389   1.468 -0.1447  0.0382 -0.0484
13833TIP3    H162914   0.575   6.404   1.394  1.5964 -2.5203  0.6429
13833TIP3    H262915   0.572   6.404   1.545 -1.3606  0.7204  0.7164
13834TIP3   OH262916   6.481   0.528  11.356 -0.1738 -0.8894 -0.1588
13834TIP3    H162917   6.504   0.517  11.264  0.4935 -0.4262 -0.0509
13834TIP3    H262918   6.406   0.470  11.369  0.1555 -1.4741 -0.8248
13835TIP3   OH262919   6.657   3.663  17.445  0.1488  0.3756  0.0740
13835TIP3    H162920   6.668   3.751  17.482  2.6850  0.0919  0.2278
13835TIP3    H262921   6.591   3.673  17.377  1.3988  2.7764 -0.9176
13836TIP3   OH262922   2.317   0.568   2.884  0.4063  0.1721 -0.4141
13836TIP3    H162923   2.275   0.619   2.953  1.0280 -0.2981  0.3208
13836TIP3    H262924   2.393   0.620   2.858  0.5357  0.0408 -0.2959
13837TIP3   OH262925   2.632   2.000   2.100 -0.4739  0.1143  0.1261
13837TIP3    H162926   2.723   2.021   2.076 -0.0650 -1.0254  0.6110
13837TIP3    H262927   2.597   1.956   2.023  0.5294 -2.6425  1.1115
13838TIP3   OH262928   6.566   0.391   0.166 -0.2456 -0.0617 -0.2838
13838TIP3    H162929   6.557   0.453   0.094 -0.4995  0.7328  0.4120
13838TIP3    H262930   6.477   0.381   0.200  0.1034  1.0538  1.0973
13839TIP3   OH262931   1.274   1.441   5.416 -0.1513 -0.4907  0.3602
13839TIP3    H162932   1.265   1.526   5.458 -1.7507 -1.0933  1.3578
13839TIP3    H262933   1.344   1.397   5.465  0.3356  0.0630  0.1634
13840TIP3   OH262934   4.488   0.675  13.031  0.5014  0.4522 -0.4314
13840TIP3    H162935   4.434   0.738  12.984  0.8957  0.2505 -1.1786
13840TIP3    H262936   4.566   0.665  12.976  0.5462 -0.5080 -0.2116
13841TIP3   OH262937   2.717   3.642  13.641 -0.0640  0.0090  0.8353
13841TIP3    H162938   2.685   3.706  13.577 -0.1103  0.4616  1.2995
13841TIP3    H262939   2.796   3.682  13.678 -1.5168  1.0604  3.0263
13842TIP3   OH262940   0.728   0.623  12.919 -0.6068 -0.7413  0.1338
13842TIP3    H162941   0.778   0.645  12.998  0.2179  1.2354 -0.8535
13842TIP3    H262942   0.648   0.583  12.951 -0.1730 -0.2298  1.9681
13843TIP3   OH262943   3.855   2.989  14.835 -0.0549  0.4686 -0.0549
13843TIP3    H162944   3.855   2.970  14.741  0.8675 -1.0103  0.2115
13843TIP3    H262945   3.783   2.936  14.870  2.1523 -2.3125  0.6085
13844TIP3   OH262946   0.944   6.355   1.372 -0.3288  0.1558 -0.7361
13844TIP3    H162947   0.923   6.307   1.453  0.6375  1.9408  0.6661
13844TIP3    H262948   0.869   6.340   1.315 -2.5542  1.2630  1.6864
13845TIP3   OH262949   4.742   1.256  11.614 -0.3423  0.3736  0.1872
13845TIP3    H162950   4.720   1.347  11.636 -0.6699  0.3516 -0.0387
13845TIP3    H262951   4.663   1.222  11.572 -0.2000  0.0006  0.2184
13846TIP3   OH262952   0.262   2.853  12.553 -0.0571  0.5438 -0.8322
13846TIP3    H162953   0.179   2.898  12.538 -0.3040  0.5412  0.4027
13846TIP3    H262954   0.260   2.829  12.646  1.6708  1.2616 -0.5582
13847TIP3   OH262955   5.592   2.628  13.932 -0.0272  0.1041  0.4332
13847TIP3    H162956   5.626   2.716  13.949  0.1941  0.4634 -1.6442
13847TIP3    H262957   5.569   2.628  13.839  1.0129 -2.3775  0.0866
13848TIP3   OH262958   3.183   2.222   5.841  0.3149  0.2469 -0.1485
13848TIP3    H162959   3.206   2.165   5.768  1.4362  0.3289  0.1267
13848TIP3    H262960   3.088   2.213   5.849  0.0464  0.8460 -2.1220
13849TIP3   OH262961   6.412   2.210  16.784 -0.2536  0.3385 -0.2909
13849TIP3    H162962   6.393   2.292  16.829 -0.7194 -0.0699  0.2787
13849TIP3    H262963   6.375   2.222  16.696 -0.8882  0.5159 -0.0083
13850TIP3   OH262964   2.668   5.104   2.568  0.2000 -0.0889  0.3312
13850TIP3    H162965   2.625   5.159   2.503  3.5272  3.3477  0.7318
13850TIP3    H262966   2.615   5.114   2.647 -0.5526  0.6459 -0.2504
13851TIP3   OH262967   4.330   4.276   3.699 -0.4176 -0.0477 -0.2348
13851TIP3    H162968   4.347   4.307   3.610  0.3051 -0.6487 -0.3182
13851TIP3    H262969   4.335   4.355   3.753  1.2017  0.0459 -0.4707
13852TIP3   OH262970   3.384   3.018   2.127 -0.1829 -0.2309 -0.5833
13852TIP3    H162971   3.402   3.003   2.034  0.4567  0.9727 -0.6678
13852TIP3    H262972   3.298   3.061   2.128  0.0289  0.1973 -0.6564
13853TIP3   OH262973   1.484   4.946   3.315 -0.2168  0.2431 -0.2698
13853TIP3    H162974   1.420   5.001   3.362  0.0279  0.8906 -0.6725
13853TIP3    H262975   1.452   4.857   3.325 -1.1883  0.5602 -0.4595
13854TIP3   OH262976   2.815   5.594   0.409  0.0309  0.2598  0.2070
13854TIP3    H162977   2.893   5.642   0.437 -0.5542  2.1744 -1.2672
13854TIP3    H262978   2.849   5.508   0.381  1.1608 -0.0867  2.4161
13855TIP3   OH262979   3.446   3.714   5.529  0.2967 -0.7581  0.3056
13855TIP3    H162980   3.497   3.738   5.606 -0.5915  1.5645  0.2601
13855TIP3    H262981   3.364   3.679   5.564  0.9793 -2.3572  0.3745
13856TIP3   OH262982   1.023   6.203  15.268 -0.2980 -0.1596 -0.0614
13856TIP3    H162983   0.945   6.198  15.323 -0.4433  0.7670 -0.1686
13856TIP3    H262984   0.993   6.243  15.186  0.3274  0.4238 -0.0167
13857TIP3   OH262985   6.475   5.890   1.687 -0.0016 -0.5492  0.5171
13857TIP3    H162986   6.571   5.883   1.691  0.0428  0.3583  2.0359
13857TIP3    H262987   6.444   5.816   1.739 -0.0160  0.4466  2.0039
13858TIP3   OH262988   0.263   2.187  12.579  0.0419 -0.0701 -0.3637
13858TIP3    H162989   0.178   2.146  12.593  0.6524 -1.5394 -0.6743
13858TIP3    H262990   0.326   2.118  12.601  1.1218  0.4339 -1.6856
13859TIP3   OH262991   1.439   2.895   3.699  0.2773  0.0783  0.4167
13859TIP3    H162992   1.478   2.819   3.656  2.8724  1.1804  0.6317
13859TIP3    H262993   1.436   2.872   3.791  1.2211  0.2398  0.5055
13860TIP3   OH262994   0.303   0.661   2.386 -0.1867 -0.0112  0.3414
13860TIP3    H162995   0.377   0.624   2.434  1.0475  1.6024 -0.2357
13860TIP3    H262996   0.303   0.754   2.409 -2.6730 -0.1345  1.1047
13861TIP3   OH262997   0.117   6.320   4.817 -0.7853 -0.3863 -0.3149
13861TIP3    H162998   0.049   6.372   4.775  0.9428  0.6114 -2.0449
13861TIP3    H262999   0.169   6.384   4.866  0.5225 -0.6597 -1.2994
13862TIP3   OH263000   4.914   4.601  14.458  0.3840  0.5161 -0.3930
13862TIP3    H163001   4.842   4.549  14.424  0.0360  1.1359 -0.6123
13862TIP3    H263002   4.875   4.655  14.527  0.6281  0.8697 -0.5249
13863TIP3   OH263003   0.099   0.066  12.237  0.2084 -0.4932  0.7861
13863TIP3    H163004   0.143   0.063  12.322  0.0291 -1.3686  0.8646
13863TIP3    H263005   0.111  -0.022  12.202  0.1736 -0.1719 -0.0437
13864TIP3   OH263006   0.646   1.441  15.405 -0.0659 -0.2433  0.2308
13864TIP3    H163007   0.657   1.346  15.406  2.2465 -0.0616  1.9485
13864TIP3    H263008   0.724   1.473  15.359 -0.8588  0.8263 -0.3976
13865TIP3   OH263009   5.212   3.128   6.691 -0.0830  0.4868  0.0107
13865TIP3    H163010   5.236   3.186   6.763 -0.2987  1.3206 -0.5691
13865TIP3    H263011   5.295   3.090   6.662 -0.1990 -1.4966  2.0142
13866TIP3   OH263012   1.817   5.210  15.254 -0.0830  0.1398  0.2586
13866TIP3    H163013   1.738   5.193  15.306  0.5382  1.0162  1.5289
13866TIP3    H263014   1.877   5.140  15.278 -0.8662 -1.2596 -1.6414
13867TIP3   OH263015   3.937   4.949  14.837  0.0938 -0.2926  0.1153
13867TIP3    H163016   3.886   4.952  14.756  0.4896 -1.8260 -0.2153
13867TIP3    H263017   3.871   4.940  14.906 -0.1608 -0.9489 -0.2068
13868TIP3   OH263018   2.099   5.117   6.210 -0.1779 -0.5446 -0.4392
13868TIP3    H163019   2.189   5.109   6.241 -0.0358  1.7689 -0.0668
13868TIP3    H263020   2.092   5.208   6.181 -1.6964 -1.3174 -2.8023
13869TIP3   OH263021   2.968   2.491   2.049  0.3774  0.3436  0.6308
13869TIP3    H163022   2.899   2.424   2.042 -0.5600  1.1517  1.7917
13869TIP3    H263023   2.949   2.537   2.131  2.5010  0.4051  1.1464
13870TIP3   OH263024   5.186   1.782   2.696  0.2152 -0.2473  0.2332
13870TIP3    H163025   5.220   1.695   2.715 -0.9574 -1.0424 -1.0850
13870TIP3    H263026   5.202   1.833   2.775 -0.3189 -2.0495  1.5507
13871TIP3   OH263027   3.234   3.994   0.693  0.5438 -0.2426  0.1018
13871TIP3    H163028   3.201   4.082   0.678  0.4219 -0.3312 -0.1720
13871TIP3    H263029   3.326   3.998   0.664  0.2888 -0.4310 -0.7875
13872TIP3   OH263030   0.204   2.274   2.311 -0.3788 -0.3548  0.2637
13872TIP3    H163031   0.132   2.297   2.252 -0.2271 -0.3382  0.0847
13872TIP3    H263032   0.211   2.179   2.304  1.5464 -0.1570 -2.0133
13873TIP3   OH263033   3.519   0.191   0.343 -0.7014 -0.0797  0.5928
13873TIP3    H163034   3.572   0.253   0.394 -0.3905  0.7409 -0.6712
13873TIP3    H263035   3.436   0.237   0.329  0.3947  1.2344 -2.5006
13874TIP3   OH263036   6.375   1.028  12.426  0.0954 -0.1916  0.0155
13874TIP3    H163037   6.294   0.991  12.392  0.0322  1.5640 -1.9001
13874TIP3    H263038   6.384   1.112  12.381  1.7034  0.8022  2.0326
13875TIP3   OH263039   3.372   1.617   1.796 -0.2903 -0.2107  0.3689
13875TIP3    H163040   3.350   1.663   1.715  1.4774 -2.6850 -1.6592
13875TIP3    H263041   3.461   1.585   1.783 -0.2918 -1.5274  2.9140
13876TIP3   OH263042   0.235   0.591  14.987  0.5625 -0.0233  0.0255
13876TIP3    H163043   0.256   0.498  14.978  1.5621 -0.0404  2.0145
13876TIP3    H263044   0.320   0.634  14.999  0.0063  0.9496  0.6051
13877TIP3   OH263045   0.232   4.602  11.106 -0.0239 -0.8298 -0.2625
13877TIP3    H163046   0.312   4.616  11.156  0.3184 -0.8184 -0.8101
13877TIP3    H263047   0.207   4.689  11.075 -0.1283 -0.8637 -0.2722
13878TIP3   OH263048   4.562   2.805  12.886 -0.1202 -0.2751 -0.5469
13878TIP3    H163049   4.554   2.870  12.956 -2.7767  0.9009 -1.7826
13878TIP3    H263050   4.566   2.721  12.932 -0.8677  0.5138  1.0689
13879TIP3   OH263051   3.819   5.648  11.522 -0.2115  0.4924 -0.0475
13879TIP3    H163052   3.906   5.631  11.486 -0.4456 -0.3982 -0.2009
13879TIP3    H263053   3.823   5.740  11.549  0.5800  0.6346 -0.5960
13880TIP3   OH263054   3.128   3.247   1.391  0.4459 -0.0989 -0.5328
13880TIP3    H163055   3.167   3.160   1.386  1.1212 -0.0118  2.0423
13880TIP3    H263056   3.052   3.242   1.333  1.7018 -1.6653 -2.1621
13881TIP3   OH263057   2.509   2.123   1.539  0.5109 -0.3947 -0.0436
13881TIP3    H163058   2.522   2.189   1.607 -0.0715 -0.2532 -0.0642
13881TIP3    H263059   2.470   2.170   1.466  0.2178 -0.7371 -0.1107
13882TIP3   OH263060   5.182   0.853   3.637 -0.1625  0.2266 -0.8660
13882TIP3    H163061   5.219   0.939   3.614 -0.2624  0.8068  1.0130
13882TIP3    H263062   5.097   0.873   3.675 -0.0621 -0.6715 -0.1437
13883TIP3   OH263063   5.430   6.216  13.905 -0.2682 -0.3465 -0.4346
13883TIP3    H163064   5.451   6.178  13.820  2.0123  1.7745 -0.9597
13883TIP3    H263065   5.397   6.304  13.885  0.1369  0.1322  0.8287
13884TIP3   OH263066   5.362   5.936  13.939 -0.9740  0.1522  0.4076
13884TIP3    H163067   5.360   6.029  13.916 -1.3051  0.1723  0.5060
13884TIP3    H263068   5.443   5.925  13.990 -0.7452  0.3080  0.0745
13885TIP3   OH263069   5.120   0.456  12.048  0.2272 -0.6504 -0.0036
13885TIP3    H163070   5.112   0.503  12.131  1.0332 -0.7946  0.1676
13885TIP3    H263071   5.039   0.475  12.002 -0.4494 -0.9941  1.0274
13886TIP3   OH263072   1.729   2.856   4.781 -0.0891 -0.2100 -0.3752
13886TIP3    H163073   1.815   2.867   4.822 -0.5685  0.4392  0.4783
13886TIP3    H263074   1.699   2.945   4.763 -1.1498 -0.3490  0.5586
13887TIP3   OH263075   4.391   5.934   5.084 -0.2431 -0.4389  0.2677
13887TIP3    H163076   4.468   5.897   5.041  1.4003  3.3078 -0.3594
13887TIP3    H263077   4.317   5.892   5.040  1.3698  0.7552 -4.0648
13888TIP3   OH263078   2.282   2.973  15.919  0.2329  0.1420  0.0076
13888TIP3    H163079   2.355   3.009  15.968  0.2319  0.0250  0.0962
13888TIP3    H263080   2.210   3.034  15.934  0.4825  0.5928 -0.5878
13889TIP3   OH263081   0.902   6.056   4.110 -0.1856 -0.0309 -0.9399
13889TIP3    H163082   0.859   6.057   4.024 -0.1219  0.0234 -0.9718
13889TIP3    H263083   0.836   6.092   4.170 -0.0024  0.5474 -1.0761
13890TIP3   OH263084   2.817   2.536   3.706  0.6514 -0.1826 -0.5798
13890TIP3    H163085   2.873   2.476   3.657  1.2339 -0.3015  0.2225
13890TIP3    H263086   2.862   2.620   3.703  0.1808  0.0635 -1.1017
13891TIP3   OH263087   4.805   5.531   0.268 -0.2912 -0.1810  0.0285
13891TIP3    H163088   4.768   5.471   0.333 -2.5742  0.1025 -0.8855
13891TIP3    H263089   4.881   5.485   0.233 -0.7303 -1.6022  0.8483
13892TIP3   OH263090   0.771   3.048  13.815  0.4343 -0.1871 -0.6198
13892TIP3    H163091   0.859   3.083  13.832  0.2783 -0.3056  0.5179
13892TIP3    H263092   0.715   3.125  13.811  0.7845  0.0180 -2.8872
13893TIP3   OH263093   5.187   4.035   5.208 -0.5712  0.3245 -0.6697
13893TIP3    H163094   5.222   4.032   5.119  0.6736  0.0730 -0.1943
13893TIP3    H263095   5.263   4.052   5.264 -1.5760  2.1610  0.2186
13894TIP3   OH263096   0.031   1.899  14.855  0.0269  0.0670 -0.0229
13894TIP3    H163097   0.052   1.870  14.944  1.9306  0.2798 -0.3727
13894TIP3    H263098  -0.050   1.950  14.866  0.5271  0.5866  1.6892
13895TIP3   OH263099   5.588   0.697   2.671 -0.0369 -0.5705 -0.2184
13895TIP3    H163100   5.536   0.736   2.742 -0.4176  0.5541 -1.0778
13895TIP3    H263101   5.523   0.656   2.614  0.0568  0.3659 -1.0132
13896TIP3   OH263102   6.077   1.489   4.660 -0.1401  0.1686 -0.0493
13896TIP3    H163103   6.002   1.480   4.717  1.1207  0.6846  1.7715
13896TIP3    H263104   6.057   1.434   4.584 -1.6870 -0.8611  1.0690
13897TIP3   OH263105   5.517   6.360   4.016  0.8107 -0.4296  0.1013
13897TIP3    H163106   5.579   6.292   3.989 -1.2297 -1.9876 -0.8851
13897TIP3    H263107   5.469   6.321   4.089 -1.3350 -0.6932 -1.3524
13898TIP3   OH263108   4.156   1.293  14.047 -0.0937  0.1603 -0.1918
13898TIP3    H163109   4.117   1.240  14.116  0.1413  0.2792  0.0334
13898TIP3    H263110   4.195   1.367  14.093  0.4299  0.0224 -0.4084
13899TIP3   OH263111   0.106   4.640   4.906 -0.5863 -0.0326  0.3058
13899TIP3    H163112   0.174   4.671   4.965 -0.1849 -0.4242  0.0531
13899TIP3    H263113   0.026   4.643   4.958 -0.1990 -0.6127  0.9508
13900TIP3   OH263114   4.986   1.242  15.782 -0.3633  0.2195 -0.6725
13900TIP3    H163115   5.008   1.236  15.690 -0.7687 -0.5721 -0.7223
13900TIP3    H263116   4.977   1.336  15.798 -1.8857  0.2972 -1.8169
13901TIP3   OH263117   3.734   1.090  15.907 -0.0512 -0.0158  0.4683
13901TIP3    H163118   3.698   1.121  15.824 -0.5094  1.5782  1.2404
13901TIP3    H263119   3.658   1.079  15.964  0.1349 -2.1841  0.3886
13902TIP3   OH263120   1.972   3.484  13.274  0.8463  0.1031  0.0471
13902TIP3    H163121   2.013   3.541  13.338 -0.5683 -0.5131  1.5705
13902TIP3    H263122   2.010   3.397  13.291 -0.6186 -0.3644  1.1214
13903TIP3   OH263123   4.820   4.793   2.732  0.3270  0.4318 -0.7988
13903TIP3    H163124   4.774   4.756   2.657  0.1430  0.2255 -0.5862
13903TIP3    H263125   4.833   4.719   2.791  0.2299  0.6445 -0.5062
13904TIP3   OH263126   5.504   6.111  15.593 -0.4506  0.2801 -0.5137
13904TIP3    H163127   5.591   6.105  15.554 -1.2491  0.0002 -2.4205
13904TIP3    H263128   5.463   6.027  15.573 -1.3474  0.6195 -0.1677
13905TIP3   OH263129   4.852   6.586  16.209  0.3563  0.0755 -0.6892
13905TIP3    H163130   4.758   6.604  16.209  0.6534  1.8601  0.0380
13905TIP3    H263131   4.861   6.504  16.161 -1.6859 -0.7910  0.2850
13906TIP3   OH263132   0.478   1.785   2.483 -0.0421  0.2499  0.5952
13906TIP3    H163133   0.443   1.862   2.527 -1.5224  0.2984 -0.6202
13906TIP3    H263134   0.417   1.714   2.506 -1.6969  0.5688 -2.4250
13907TIP3   OH263135   2.438   2.700   1.789 -0.1702 -0.0810 -0.0050
13907TIP3    H163136   2.475   2.669   1.872 -1.1101 -0.6948  0.2060
13907TIP3    H263137   2.453   2.794   1.790 -0.0831 -0.0941  0.8301
13908TIP3   OH263138   5.016   4.116   2.245 -0.0077  0.5701 -0.2900
13908TIP3    H163139   5.047   4.026   2.242  0.6045  0.7720 -0.2682
13908TIP3    H263140   4.982   4.127   2.334  0.6036  0.5778 -0.0539
13909TIP3   OH263141   0.408   3.545   0.617 -0.1425 -0.1246 -0.5026
13909TIP3    H163142   0.470   3.543   0.690 -1.2425  0.3859  0.4830
13909TIP3    H263143   0.441   3.480   0.555 -0.5504 -2.5029  1.6090
13910TIP3   OH263144   0.236   1.041   4.696  0.2995  0.1092  0.4741
13910TIP3    H163145   0.324   1.028   4.730  0.0924  0.1719  1.0527
13910TIP3    H263146   0.180   1.037   4.774 -0.0708  1.4823  0.2992
13911TIP3   OH263147   4.623   4.431   3.361  0.1122  0.2598 -0.2539
13911TIP3    H163148   4.608   4.338   3.348 -1.6610  0.6013 -0.8844
13911TIP3    H263149   4.645   4.465   3.274 -0.8683  0.6970 -0.3381
13912TIP3   OH263150   4.142   2.575   0.546  0.2216 -0.1549 -0.1071
13912TIP3    H163151   4.224   2.574   0.497 -0.1981 -0.1848 -0.8263
13912TIP3    H263152   4.074   2.587   0.479 -0.3100  0.6155  0.5561
13913TIP3   OH263153   0.415   3.806   0.801 -0.0701  0.1513 -0.7681
13913TIP3    H163154   0.477   3.815   0.873 -0.0771  1.2887 -0.8829
13913TIP3    H263155   0.408   3.712   0.786  0.3963 -0.0628  0.3074
13914TIP3   OH263156   0.943   1.824  13.150  0.1757  0.3339 -0.1845
13914TIP3    H163157   0.969   1.890  13.086  1.9042  1.1619  1.2670
13914TIP3    H263158   0.848   1.825  13.148  0.1655  1.9782 -1.1088
13915TIP3   OH263159   5.025   6.680   0.885  0.5229 -0.3375 -0.2628
13915TIP3    H163160   4.995   6.721   0.804 -0.8290  2.2511  1.3729
13915TIP3    H263161   5.077   6.749   0.928  0.6023 -1.3740  1.3873
13916TIP3   OH263162   6.640   4.052  16.369 -0.3363  0.2110 -0.2760
13916TIP3    H163163   6.705   4.048  16.298 -1.2261 -0.7529 -1.0528
13916TIP3    H263164   6.615   3.961  16.384 -0.1889  0.4045  1.2737
13917TIP3   OH263165   2.889   2.128   5.624 -0.0789  0.0844 -0.1067
13917TIP3    H163166   2.890   2.110   5.718 -2.6682 -1.7981 -0.3219
13917TIP3    H263167   2.978   2.108   5.595  1.1976  2.0072  2.0586
13918TIP3   OH263168   1.936   2.432  15.053  0.2833  0.0598  0.4238
13918TIP3    H163169   1.938   2.339  15.031 -0.0469  0.1408  0.0340
13918TIP3    H263170   1.920   2.476  14.969 -2.5844  0.2945  0.9833
13919TIP3   OH263171   3.795   0.149   2.528  0.6739  0.5170  0.2257
13919TIP3    H163172   3.884   0.151   2.562 -0.1436  0.8832  2.6007
13919TIP3    H263173   3.801   0.186   2.440  2.7114  1.3812  0.6776
13920TIP3   OH263174   1.751   0.241   3.892 -0.5028 -0.4334  0.1876
13920TIP3    H163175   1.736   0.308   3.825  0.1802  0.8554  1.2642
13920TIP3    H263176   1.714   0.279   3.972  0.2093 -1.1964  0.8942
13921TIP3   OH263177   6.529   3.352  13.516 -0.1215  0.2374  0.1070
13921TIP3    H163178   6.559   3.398  13.437 -0.1650 -0.0842 -0.0976
13921TIP3    H263179   6.588   3.277  13.524 -0.0854  0.2982  0.4098
13922TIP3   OH263180   0.500   2.156  11.535  0.0296  0.3361 -0.3413
13922TIP3    H163181   0.471   2.246  11.552 -1.6659 -0.1210 -0.7228
13922TIP3    H263182   0.548   2.161  11.452 -0.3126  0.8290 -0.5097
13923TIP3   OH263183   6.389   6.686   5.515 -0.1651 -0.6727  0.1745
13923TIP3    H163184   6.405   6.713   5.424  0.1660 -2.3625 -0.3045
13923TIP3    H263185   6.467   6.637   5.539 -0.8986 -1.5296  0.8467
13924TIP3   OH263186   2.414   3.744   1.138  1.2216  0.3076  0.6591
13924TIP3    H163187   2.376   3.781   1.218  0.1591 -0.6760  0.6317
13924TIP3    H263188   2.506   3.771   1.141  1.0504  0.8355  1.8756
13925TIP3   OH263189   5.008   0.137   3.354 -0.0650 -0.1147  0.1396
13925TIP3    H163190   5.054   0.180   3.282  0.0731 -0.9272 -0.2761
13925TIP3    H263191   4.921   0.118   3.320 -1.1498  2.3818  1.2799
13926TIP3   OH263192   0.241   3.059   1.808  0.0127  0.1851  0.1500
13926TIP3    H163193   0.268   2.976   1.769 -0.2470 -0.2719  0.9125
13926TIP3    H263194   0.153   3.042   1.842 -1.3424  1.6497 -2.3304
13927TIP3   OH263195   4.039   0.981   3.394  0.5830  0.0730 -0.1564
13927TIP3    H163196   3.946   1.003   3.390  0.7331  1.1925  1.4674
13927TIP3    H263197   4.066   0.974   3.303 -0.9333  0.4397 -0.6573
13928TIP3   OH263198   4.556   5.501   5.777 -0.1510 -0.1310  0.4483
13928TIP3    H163199   4.511   5.417   5.774 -2.0202  0.8364 -2.0271
13928TIP3    H263200   4.626   5.493   5.712  0.5108 -0.1841  1.1565
13929TIP3   OH263201   2.029   2.578   5.686  0.4994  0.1054  0.4239
13929TIP3    H163202   1.985   2.627   5.756 -0.9707 -1.5832  0.7359
13929TIP3    H263203   2.111   2.626   5.671  0.4750  0.9577  2.7291
13930TIP3   OH263204   2.627   5.924   6.470 -0.3608  0.2106  0.0691
13930TIP3    H163205   2.636   5.938   6.564 -0.4052  0.8246 -0.0153
13930TIP3    H263206   2.636   5.829   6.459  0.5576  0.2204  0.5896
13931TIP3   OH263207   1.027   3.003  16.547 -0.2206  0.2290 -0.0822
13931TIP3    H163208   0.963   3.029  16.482  0.8949 -1.3360 -1.9082
13931TIP3    H263209   1.112   3.019  16.505  0.5201 -1.6983  0.5726
13932TIP3   OH263210   5.560   6.454  12.200  0.3892 -0.9766  0.0806
13932TIP3    H163211   5.532   6.541  12.229  1.7254  0.1013 -1.6747
13932TIP3    H263212   5.493   6.426  12.138 -0.1584 -1.3102  0.8170
13933TIP3   OH263213   4.379   2.158  13.229  0.5135  0.6019  0.3562
13933TIP3    H163214   4.327   2.091  13.274 -0.4185  1.3690  0.4605
13933TIP3    H263215   4.447   2.109  13.184  0.0647 -0.3865  0.7189
13934TIP3   OH263216   1.336   0.141   3.703 -0.0961 -0.0352 -0.2191
13934TIP3    H163217   1.377   0.197   3.768 -0.3746  0.6106 -0.5852
13934TIP3    H263218   1.260   0.191   3.673 -0.3421 -0.6020 -0.5676
13935TIP3   OH263219   1.005   2.520   2.214  0.0831  0.2783 -0.2403
13935TIP3    H163220   1.091   2.493   2.247 -0.1455  0.5383  0.5946
13935TIP3    H263221   1.021   2.605   2.173  0.2714  0.2195 -0.2876
13936TIP3   OH263222   4.631   6.246  13.560  0.0446  0.0066  0.5224
13936TIP3    H163223   4.633   6.339  13.582  0.7145  0.1117  0.0179
13936TIP3    H263224   4.719   6.215  13.577 -0.3023 -0.6581  1.1645
13937TIP3   OH263225   0.727   2.408   3.959 -0.9504 -0.5008 -0.3840
13937TIP3    H163226   0.671   2.367   4.024  0.5699 -0.5757  0.9502
13937TIP3    H263227   0.680   2.486   3.931 -2.3007 -1.2758 -0.3226
13938TIP3   OH263228   6.375   0.222  11.468  0.7782 -0.4273 -0.3076
13938TIP3    H163229   6.295   0.213  11.519  0.6591  0.3747 -0.3441
13938TIP3    H263230   6.441   0.249  11.532  1.2644 -2.0007 -0.0920
13939TIP3   OH263231   0.427   2.978   2.147  0.2859  0.0859 -0.4372
13939TIP3    H163232   0.482   2.942   2.077 -1.2756 -4.5500  0.3682
13939TIP3    H263233   0.481   2.971   2.226  0.2154  0.1196 -0.3862
13940TIP3   OH263234   6.051   5.954  14.871  0.3779  0.2539  0.7818
13940TIP3    H163235   6.046   6.049  14.860 -1.0933  0.2552  1.2391
13940TIP3    H263236   6.024   5.919  14.786 -0.9404  0.2564  1.1896
13941TIP3   OH263237   1.353   5.519   2.764  0.0934 -0.1117  0.2032
13941TIP3    H163238   1.409   5.560   2.830  1.0802 -0.3469 -0.4648
13941TIP3    H263239   1.264   5.538   2.793  0.5174  1.2628  0.6724
13942TIP3   OH263240   4.084   1.268  12.359  0.4544 -0.2246 -0.1584
13942TIP3    H163241   4.130   1.345  12.392  0.6954  0.3779 -1.8490
13942TIP3    H263242   4.057   1.291  12.270 -3.2156 -0.5041  0.7051
13943TIP3   OH263243   4.187   4.196   6.334  0.0208 -0.1670 -0.1279
13943TIP3    H163244   4.138   4.115   6.346 -2.6150  1.0243 -1.9270
13943TIP3    H263245   4.194   4.234   6.422 -0.4147 -1.3871  0.4463
13944TIP3   OH263246   6.382   1.927  16.048  0.4632 -0.0010  0.5427
13944TIP3    H163247   6.343   1.986  15.984  1.7453 -0.9746 -1.2299
13944TIP3    H263248   6.457   1.975  16.083  2.0634 -0.7977 -1.5736
13945TIP3   OH263249   5.293   2.079  15.783 -0.2839 -0.0622 -0.1914
13945TIP3    H163250   5.315   2.127  15.703  1.3896 -0.3230  0.0866
13945TIP3    H263251   5.199   2.094  15.794  0.2014  3.5554  0.1405
13946TIP3   OH263252   0.308   3.818  17.319 -0.2518  0.0096  0.5685
13946TIP3    H163253   0.311   3.912  17.304  1.6171 -0.0141  0.5830
13946TIP3    H263254   0.400   3.791  17.325 -0.7422 -1.5929  1.9157
13947TIP3   OH263255   2.982   5.603  13.203 -0.5702 -0.4166  0.3767
13947TIP3    H163256   3.073   5.630  13.216 -0.5711 -0.7732  1.1647
13947TIP3    H263257   2.988   5.516  13.164 -0.5741  0.4153 -1.6155
13948TIP3   OH263258   3.885   1.100   4.658 -0.2617  0.5437 -0.0202
13948TIP3    H163259   3.935   1.170   4.700  1.3635 -0.4643 -0.1662
13948TIP3    H263260   3.948   1.028   4.649 -1.8608 -0.9595  0.1424
13949TIP3   OH263261   6.140   2.957   1.624 -0.4622 -0.6235 -0.1041
13949TIP3    H163262   6.105   3.006   1.698 -2.9564 -1.7575 -0.4360
13949TIP3    H263263   6.121   2.865   1.645  2.0021 -1.2944 -0.5509
13950TIP3   OH263264   1.246   4.064   0.853 -0.2919  0.1427 -0.5369
13950TIP3    H163265   1.210   4.131   0.911 -0.1709 -0.6783  0.5090
13950TIP3    H263266   1.292   4.113   0.785 -0.4854  1.1218  0.0257
13951TIP3   OH263267   3.837   5.907  11.679 -0.2181  0.3821 -0.0040
13951TIP3    H163268   3.755   5.931  11.636  0.0346  0.5946 -0.3710
13951TIP3    H263269   3.894   5.984  11.668  0.3297 -0.0889 -0.5006
13952TIP3   OH263270   2.188   0.236   4.969 -0.2256  0.6430 -0.2987
13952TIP3    H163271   2.188   0.327   4.999 -1.4596  0.0967  1.5092
13952TIP3    H263272   2.218   0.241   4.879 -0.8122  2.9190 -0.4337
13953TIP3   OH263273   2.964   2.887  13.617 -0.2016  0.1353 -0.6201
13953TIP3    H163274   2.948   2.893  13.711 -1.3007 -0.1736 -0.7684
13953TIP3    H263275   3.013   2.967  13.596  0.5832 -0.0804  0.2991
13954TIP3   OH263276   3.569   4.557  13.325 -0.2412  0.3360 -0.0516
13954TIP3    H163277   3.661   4.540  13.304  0.0750  0.6505  1.0510
13954TIP3    H263278   3.550   4.499  13.398 -0.7307  0.7546  0.1560
13955TIP3   OH263279   4.031   4.345  11.699  0.0378 -0.3826  0.3297
13955TIP3    H163280   4.062   4.254  11.702  0.5536 -0.1853  0.9332
13955TIP3    H263281   4.060   4.384  11.781 -2.9458 -0.5509  1.5817
13956TIP3   OH263282   3.491   2.843  12.450  0.5583 -0.1807 -0.5410
13956TIP3    H163283   3.555   2.845  12.380  0.9252  1.8382 -0.2051
13956TIP3    H263284   3.522   2.908  12.513  0.2889 -1.9632  1.5665
13957TIP3   OH263285   3.208   6.691  16.232 -0.1432 -0.3896 -0.1520
13957TIP3    H163286   3.271   6.660  16.168 -0.5343  0.6182 -1.0557
13957TIP3    H263287   3.123   6.683  16.189 -0.2709  1.7527 -0.4031
13958TIP3   OH263288   2.465   1.132   3.565 -0.0022 -0.1592  0.3863
13958TIP3    H163289   2.412   1.166   3.493  0.5508 -1.3838 -0.6442
13958TIP3    H263290   2.556   1.142   3.534  0.3115  0.3877  1.4279
13959TIP3   OH263291   1.251   4.161   6.040 -0.6464  0.1512  1.0935
13959TIP3    H163292   1.173   4.159   6.095 -0.5638 -2.4180  1.2494
13959TIP3    H263293   1.304   4.087   6.072 -0.3776 -1.1644 -2.0768
13960TIP3   OH263294   0.283   4.118  17.379  0.5841 -0.2669 -0.3920
13960TIP3    H163295   0.313   4.152  17.464  0.1985 -0.8266 -0.0263
13960TIP3    H263296   0.218   4.182  17.350  0.2038 -0.4281  0.0738
13961TIP3   OH263297   3.265   6.142  13.831 -0.3471 -0.2735 -0.3844
13961TIP3    H163298   3.248   6.103  13.917  2.2555  0.7328  0.7040
13961TIP3    H263299   3.311   6.073  13.783  1.1239  0.2007  0.2767
13962TIP3   OH263300   4.974   0.517   5.486  0.1551  0.1564 -0.1151
13962TIP3    H163301   4.965   0.603   5.445  0.7952  1.2064  1.8547
13962TIP3    H263302   5.065   0.492   5.471  0.0328 -0.0754 -0.4805
13963TIP3   OH263303   1.031   4.837   1.191 -0.2515 -0.3437 -0.6039
13963TIP3    H163304   0.958   4.877   1.238 -0.9940 -0.9718 -1.2008
13963TIP3    H263305   1.109   4.867   1.237 -0.8294  1.1814 -0.5856
13964TIP3   OH263306   3.899   5.031  12.867  0.1926  0.1043 -0.4448
13964TIP3    H163307   3.918   5.048  12.959 -2.0756  0.3525  0.0412
13964TIP3    H263308   3.873   5.117  12.832 -0.2318 -0.2221 -0.9479
13965TIP3   OH263309   2.690   2.759   0.682 -0.3921 -0.2085 -0.1209
13965TIP3    H163310   2.776   2.784   0.718 -0.7097  0.1201  0.4196
13965TIP3    H263311   2.640   2.840   0.682 -1.2818 -0.7329  1.2193
13966TIP3   OH263312   6.078   1.481  11.766  0.1908 -0.0800  0.8328
13966TIP3    H163313   6.013   1.451  11.703  0.2457  0.4950  0.4980
13966TIP3    H263314   6.156   1.430  11.746 -0.0110 -0.4308  0.9265
13967TIP3   OH263315   1.605   0.095  16.622 -0.2602  0.3221  0.6346
13967TIP3    H163316   1.680   0.140  16.584  0.3068 -0.4076  0.8734
13967TIP3    H263317   1.612   0.005  16.589 -1.6373  0.4938 -0.2277
13968TIP3   OH263318   0.844   5.442   4.149 -0.2808 -0.3905 -0.3281
13968TIP3    H163319   0.824   5.422   4.241 -1.5787 -0.2017 -0.5536
13968TIP3    H263320   0.933   5.478   4.151 -0.2080 -0.5984  0.8228
13969TIP3   OH263321   4.658   3.252  13.666 -0.3012  0.0984 -0.0602
13969TIP3    H163322   4.704   3.311  13.606 -0.2652 -0.1721 -0.3026
13969TIP3    H263323   4.635   3.177  13.612 -1.4244  0.4198 -0.0458
13970TIP3   OH263324   1.940   1.361  15.175  0.1576 -0.1986  0.1545
13970TIP3    H163325   1.945   1.438  15.232 -1.1135  0.3745 -0.4607
13970TIP3    H263326   1.849   1.359  15.146  0.3605 -1.5001 -0.4608
13971TIP3   OH263327   2.377   1.427  13.606  0.3536 -0.3675 -0.5790
13971TIP3    H163328   2.340   1.465  13.686 -1.6000 -0.3065 -1.4498
13971TIP3    H263329   2.375   1.333  13.621 -1.2857 -0.4318 -1.0306
13972TIP3   OH263330   2.511   6.313   4.126 -0.3312  0.0067  0.7001
13972TIP3    H163331   2.470   6.394   4.155 -0.3117 -0.3777  1.8753
13972TIP3    H263332   2.578   6.295   4.193 -0.0664 -0.7601  0.2411
13973TIP3   OH263333   5.943   4.197  16.857 -0.1766  0.0010  0.3068
13973TIP3    H163334   5.851   4.180  16.838 -0.1747 -0.1281  0.4131
13973TIP3    H263335   5.988   4.183  16.774 -0.3401  0.7031  0.0971
13974TIP3   OH263336   0.573   5.698   0.033  0.3452 -0.3721  0.1907
13974TIP3    H163337   0.509   5.632   0.007  0.5346 -1.5321  2.4732
13974TIP3    H263338   0.657   5.662   0.006  0.2893  0.0174 -0.5627
13975TIP3   OH263339   5.864   3.517  17.440 -0.1404 -0.3812  0.2432
13975TIP3    H163340   5.947   3.565  17.439 -0.3777  0.0397  0.3935
13975TIP3    H263341   5.872   3.457  17.513 -0.3682  0.3934  0.9228
13976TIP3   OH263342   3.322   0.669  14.904 -0.6576 -0.3412  0.3627
13976TIP3    H163343   3.375   0.649  14.827 -0.6250  0.0183  0.2890
13976TIP3    H263344   3.365   0.623  14.976  0.8508  1.4417  0.6580
13977TIP3   OH263345   2.495   2.293   3.692 -0.7520 -0.2004  0.2693
13977TIP3    H163346   2.444   2.374   3.693 -2.9621 -1.5089  0.1707
13977TIP3    H263347   2.442   2.232   3.641  1.4872 -1.3621 -0.8025
13978TIP3   OH263348   6.325   3.651   3.319  0.0868  0.1548  0.0384
13978TIP3    H163349   6.257   3.588   3.342 -0.4378 -0.0968 -2.0044
13978TIP3    H263350   6.407   3.602   3.328  0.0348  0.4001  2.3074
13979TIP3   OH263351   2.422   3.468   2.496 -0.2349  0.0061  0.2948
13979TIP3    H163352   2.488   3.422   2.444  0.2690  1.1766 -0.1516
13979TIP3    H263353   2.400   3.408   2.566  2.5604  0.1960  1.4597
13980TIP3   OH263354   5.008   0.702  16.137 -0.1557 -0.5242  0.0746
13980TIP3    H163355   4.939   0.750  16.183  1.4564  0.8600  1.1432
13980TIP3    H263356   4.969   0.681  16.052 -0.7597  3.4950 -0.8731
13981TIP3   OH263357   6.700   2.143  16.887 -0.0511  0.0303 -0.1862
13981TIP3    H163358   6.614   2.126  16.849 -0.4231  0.4771  0.4391
13981TIP3    H263359   6.726   2.227  16.851 -0.3671  0.4148  0.4675
13982TIP3   OH263360   1.894   1.306  10.835  0.4769 -0.8190 -0.1159
13982TIP3    H163361   1.911   1.394  10.802 -0.6049  0.9016  3.4726
13982TIP3    H263362   1.981   1.265  10.838  1.1391  0.4447 -0.9338
13983TIP3   OH263363   2.812   2.606  15.489  0.1992 -0.0855  0.2815
13983TIP3    H163364   2.859   2.531  15.524  0.7650  0.5516  0.9226
13983TIP3    H263365   2.748   2.568  15.428  1.5661 -0.9726 -0.6589
13984TIP3   OH263366   4.541   2.769   0.174 -0.4018 -0.2318  0.0867
13984TIP3    H163367   4.481   2.828   0.130 -1.3759  0.1234  1.7879
13984TIP3    H263368   4.602   2.826   0.220  1.0966 -0.5926 -1.3882
13985TIP3   OH263369   1.686   6.426   5.730 -0.7934  0.0612  0.3565
13985TIP3    H163370   1.706   6.405   5.639 -0.7850 -0.0211  0.3779
13985TIP3    H263371   1.645   6.513   5.725  0.4435  0.6704  0.4082
13986TIP3   OH263372   6.213   3.274   3.655 -0.2804 -0.7289 -0.0184
13986TIP3    H163373   6.168   3.338   3.600 -1.1551 -0.7608  0.6405
13986TIP3    H263374   6.146   3.207   3.672  0.4027 -1.4347 -0.0874
13987TIP3   OH263375   1.251   5.795   5.314 -0.2913  0.7542 -0.3082
13987TIP3    H163376   1.197   5.765   5.241  0.9205  0.6617 -1.2112
13987TIP3    H263377   1.214   5.753   5.391  0.5643 -2.1357 -1.3560
13988TIP3   OH263378   1.015   2.018  12.932 -0.3350  0.2128 -0.0046
13988TIP3    H163379   1.025   1.965  12.853 -2.4356  0.1543 -0.2839
13988TIP3    H263380   1.105   2.034  12.961  0.4517 -3.6420  0.2332
13989TIP3   OH263381   3.604   6.362   4.331  0.0259  0.3275 -0.2184
13989TIP3    H163382   3.696   6.336   4.335  0.2574  1.2181  0.9501
13989TIP3    H263383   3.555   6.280   4.329  0.8310 -0.1591 -0.4225
13990TIP3   OH263384   4.849   4.068   5.531 -0.2209  0.4229 -0.2718
13990TIP3    H163385   4.834   3.978   5.500  1.0369  0.3462 -0.7223
13990TIP3    H263386   4.894   4.111   5.458  0.5564  0.9793  0.5206
13991TIP3   OH263387   2.507   5.608   0.816 -0.0950  0.1466  0.0749
13991TIP3    H163388   2.420   5.579   0.788  0.8867 -3.0435  0.0349
13991TIP3    H263389   2.557   5.617   0.735  0.0804  0.4584  0.2130
13992TIP3   OH263390   4.066   5.405   0.082  0.0530 -0.3738  0.0325
13992TIP3    H163391   4.023   5.362   0.008  1.6135 -0.4695 -0.8550
13992TIP3    H263392   4.143   5.448   0.044  0.1174  0.7679  1.3752
13993TIP3   OH263393   3.686   4.428   5.673 -0.1572 -0.3019 -0.2461
13993TIP3    H163394   3.650   4.361   5.731 -0.1879  1.0497  1.3757
13993TIP3    H263395   3.612   4.456   5.618 -1.0486  0.7633  1.4172
13994TIP3   OH263396   6.338   5.956   3.729 -0.0087 -0.3711  1.0104
13994TIP3    H163397   6.267   5.925   3.674 -1.4685  1.5336  1.6901
13994TIP3    H263398   6.396   6.003   3.670 -0.6566  0.1891  0.8066
13995TIP3   OH263399   4.610   3.602  13.361 -0.2716 -0.5555  0.2904
13995TIP3    H163400   4.567   3.656  13.295 -0.7252 -0.8733  0.3311
13995TIP3    H263401   4.621   3.661  13.436 -0.4816 -0.4283  0.2211
13996TIP3   OH263402   6.692   5.053  13.807 -0.2780  0.0390  0.5716
13996TIP3    H163403   6.722   4.981  13.862  0.4436 -0.3015 -0.2584
13996TIP3    H263404   6.770   5.105  13.790 -0.3582 -0.2127 -0.6565
13997TIP3   OH263405   3.469   5.202  12.920  0.3955 -0.2352  0.2297
13997TIP3    H163406   3.531   5.272  12.941 -0.3763  0.4887  0.1385
13997TIP3    H263407   3.384   5.245  12.918 -0.0499 -1.1128 -0.1917
13998TIP3   OH263408   5.666   1.556   5.679 -0.3890  0.7365  0.0675
13998TIP3    H163409   5.757   1.536   5.700 -1.0698 -2.4843  0.4787
13998TIP3    H263410   5.619   1.542   5.761 -1.3925  1.2719 -0.4072
13999TIP3   OH263411   3.095   1.462  13.346  0.4238 -0.1680 -0.1336
13999TIP3    H163412   3.154   1.501  13.410  1.1660 -2.0361  0.4014
13999TIP3    H263413   3.017   1.439  13.397  0.2969 -0.0546 -0.2772
14000TIP3   OH263414   1.333   0.820   1.028  0.2237 -0.2292 -0.6644
14000TIP3    H163415   1.419   0.816   1.070 -0.4412 -0.8882  0.6871
14000TIP3    H263416   1.339   0.757   0.956  1.4706  1.1135 -1.7830
14001TIP3   OH263417   1.641   5.177  15.468 -0.1636  0.0071 -0.5458
14001TIP3    H163418   1.595   5.132  15.539 -0.6955  0.8390 -0.3457
14001TIP3    H263419   1.728   5.195  15.503 -0.0960 -0.4593 -0.4680
14002TIP3   OH263420   2.006   3.212  15.198  0.0985 -0.1157  0.0166
14002TIP3    H163421   1.961   3.257  15.126  0.1537  1.1550  0.7354
14002TIP3    H263422   2.094   3.250  15.199  0.1425 -0.2187  0.6480
14003TIP3   OH263423   2.061   1.626   6.549  0.0102  0.4486 -0.4068
14003TIP3    H163424   1.973   1.616   6.513  0.1299 -0.0904 -0.5513
14003TIP3    H263425   2.049   1.627   6.644 -0.1345  0.2410 -0.4249
14004TIP3   OH263426   5.910   2.847   4.839  0.3921 -0.3401 -0.8597
14004TIP3    H163427   5.823   2.885   4.832  1.4667  2.4543 -0.6333
14004TIP3    H263428   5.948   2.858   4.752  0.9481 -0.3004 -0.6168
14005TIP3   OH263429   2.036   3.633   6.759 -0.2413 -0.1721  0.3151
14005TIP3    H163430   1.955   3.589   6.787  0.0320  0.5703  2.4540
14005TIP3    H263431   2.007   3.715   6.720 -0.5903 -0.6957 -0.5438
14006TIP3   OH263432   1.591   5.638   3.221 -0.3930  0.1377 -0.1958
14006TIP3    H163433   1.650   5.623   3.295 -0.9253 -1.7879 -0.1131
14006TIP3    H263434   1.609   5.728   3.194  1.3660  0.1571  0.8896
14007TIP3   OH263435   2.755   0.029  14.978  0.5074  0.0367  0.1079
14007TIP3    H163436   2.724  -0.052  15.019  0.9096  0.2682  0.9029
14007TIP3    H263437   2.677   0.067  14.938  0.4919 -1.2105 -1.1231
14008TIP3   OH263438   6.270   3.855  13.542 -0.1568 -0.0251  0.1904
14008TIP3    H163439   6.358   3.862  13.505  0.5131  1.3032  1.9007
14008TIP3    H263440   6.227   3.937  13.518 -0.0915  0.3629  1.3639
14009TIP3   OH263441   4.669   2.577  12.299  0.9799 -0.5014 -0.4231
14009TIP3    H163442   4.704   2.494  12.266  1.9635  0.5569 -2.1610
14009TIP3    H263443   4.649   2.559  12.391 -1.7575 -3.5916 -1.4183
14010TIP3   OH263444   3.582   4.937   3.896  0.1008 -0.1486 -0.1899
14010TIP3    H163445   3.666   4.977   3.875  1.1373 -2.3138 -0.4737
14010TIP3    H263446   3.567   4.874   3.826 -0.9799 -0.9376  0.7019
14011TIP3   OH263447   0.545   6.227   2.272  0.1330 -0.4639  0.0941
14011TIP3    H163448   0.630   6.183   2.271  0.4134 -0.0223  1.4392
14011TIP3    H263449   0.551   6.293   2.203  0.8958 -0.4326  0.1845
14012TIP3   OH263450   1.527   2.615  13.166 -0.1407  0.2554  0.0062
14012TIP3    H163451   1.438   2.579  13.170 -0.8822  2.0229  0.6321
14012TIP3    H263452   1.578   2.548  13.121 -1.3859 -1.5787  1.1922
14013TIP3   OH263453   0.004   6.679   3.614  0.4047 -0.5480  0.5668
14013TIP3    H163454  -0.014   6.585   3.621  2.4255 -1.1477 -1.3559
14013TIP3    H263455  -0.046   6.708   3.538  0.0006 -0.0944  0.9946
14014TIP3   OH263456   3.125   1.152  16.778 -0.7857  0.1509  0.6326
14014TIP3    H163457   3.200   1.111  16.822 -1.5140 -0.9797  0.8761
14014TIP3    H263458   3.091   1.083  16.720 -2.6470  0.0323  1.7829
14015TIP3   OH263459   5.131   0.001   6.108  0.3709 -0.0570 -0.2420
14015TIP3    H163460   5.067   0.071   6.095  0.2181  0.3641  2.3699
14015TIP3    H263461   5.135  -0.011   6.202  1.5866 -2.5129 -0.5355
14016TIP3   OH263462   5.581   5.701   0.166 -0.0767  0.4015 -0.0982
14016TIP3    H163463   5.611   5.738   0.083  0.5323  2.1433  0.8578
14016TIP3    H263464   5.661   5.690   0.217 -0.6350  1.3221  1.0150
14017TIP3   OH263465   5.382   4.057   6.742 -0.2390 -0.4867  0.1198
14017TIP3    H163466   5.302   4.093   6.704  0.2568  1.9720  1.2113
14017TIP3    H263467   5.447   4.066   6.672 -0.0932  0.9511  0.4134
14018TIP3   OH263468   2.446   5.999   3.211 -0.2972  0.1172  0.5732
14018TIP3    H163469   2.506   5.959   3.274 -1.0047 -3.4739 -0.7979
14018TIP3    H263470   2.493   6.075   3.177  1.3855  0.2633  3.0440
14019TIP3   OH263471   2.430   2.744   0.912 -0.3081 -0.3214 -0.0247
14019TIP3    H163472   2.364   2.810   0.890  0.0575 -0.0168 -0.1959
14019TIP3    H263473   2.386   2.661   0.891 -0.7725 -0.1430  0.2095
14020TIP3   OH263474   4.222   5.394   1.612 -0.3196  0.6772  0.1306
14020TIP3    H163475   4.200   5.371   1.522  0.7264  0.9466 -0.2065
14020TIP3    H263476   4.309   5.357   1.626 -1.1122 -0.7795  1.5872
14021TIP3   OH263477   4.731   1.357   0.916 -0.1674 -0.0922  0.0381
14021TIP3    H163478   4.769   1.340   0.829  1.1691 -1.6943  0.8713
14021TIP3    H263479   4.807   1.372   0.973 -0.8208 -1.7995  1.4536
14022TIP3   OH263480   2.922   2.864  17.129 -0.7600  0.3899  0.1964
14022TIP3    H163481   2.981   2.793  17.155  1.4891  2.2270  0.4328
14022TIP3    H263482   2.837   2.822  17.120 -0.2176 -1.7828  3.3301
14023TIP3   OH263483   3.611   0.953   5.543  0.2556  0.4687  0.1538
14023TIP3    H163484   3.601   1.008   5.465 -1.3246 -0.1523 -0.1318
14023TIP3    H263485   3.699   0.972   5.575 -0.1139  2.9459 -0.0850
14024TIP3   OH263486   5.014   4.757  12.722 -0.3436 -0.0322  0.2985
14024TIP3    H163487   5.107   4.777  12.731 -0.3295  0.0555 -0.0225
14024TIP3    H263488   5.004   4.669  12.758 -0.3787  0.4825  1.5864
14025TIP3   OH263489   0.436   6.315   0.026 -0.2304 -0.8341  0.3552
14025TIP3    H163490   0.527   6.314   0.057  0.0090 -0.8927 -0.3281
14025TIP3    H263491   0.442   6.344  -0.065 -1.0677  0.9340  0.8158
14026TIP3   OH263492   5.602   4.299  13.381  0.3237 -1.3913 -0.8568
14026TIP3    H163493   5.626   4.387  13.352  2.8960 -2.0826 -1.0320
14026TIP3    H263494   5.506   4.300  13.383  0.2655  1.1957 -1.4652
14027TIP3   OH263495   4.673   5.895   6.254 -0.1478 -0.2976 -0.1302
14027TIP3    H163496   4.618   5.818   6.237  0.0599 -0.5020  0.1104
14027TIP3    H263497   4.613   5.960   6.290  0.0940 -1.1710  1.9431
14028TIP3   OH263498   1.283   1.644   0.310 -0.2567 -0.2629 -0.5185
14028TIP3    H163499   1.219   1.707   0.344 -0.5064 -0.7025 -0.1656
14028TIP3    H263500   1.323   1.606   0.388  0.5755  0.1443 -0.7383
14029TIP3   OH263501   1.935   5.360   0.329 -0.3571 -0.2341 -0.6970
14029TIP3    H163502   2.025   5.382   0.305 -0.4622  0.8362 -0.1449
14029TIP3    H263503   1.903   5.307   0.255  0.4974 -0.0524 -1.2076
14030TIP3   OH263504   2.217   2.910   4.995 -0.1829 -0.3135 -0.3792
14030TIP3    H163505   2.228   2.828   4.948 -0.7750 -0.5621 -0.1063
14030TIP3    H263506   2.128   2.939   4.973  0.1055  0.3894 -0.6721
14031TIP3   OH263507   2.440   3.314   6.486 -0.0007 -0.4978  0.0876
14031TIP3    H163508   2.381   3.355   6.549  0.2444 -1.6275  1.0925
14031TIP3    H263509   2.394   3.236   6.457  0.5854 -0.8763  0.1499
14032TIP3   OH263510   0.237   1.307  15.185  0.0875 -0.4783  0.5864
14032TIP3    H163511   0.302   1.348  15.127 -0.8186 -1.8473 -1.5285
14032TIP3    H263512   0.216   1.225  15.142 -0.6654 -1.5952  2.9321
14033TIP3   OH263513   5.818   4.283  12.008  0.1105 -0.1730 -0.1620
14033TIP3    H163514   5.885   4.221  11.979  1.2573  0.5996  0.6960
14033TIP3    H263515   5.868   4.354  12.048 -0.9646  2.4346 -3.0386
14034TIP3   OH263516   4.439   3.624  11.272  0.0657 -0.2421  0.1189
14034TIP3    H163517   4.354   3.581  11.264 -0.1146 -0.0311  0.8726
14034TIP3    H263518   4.423   3.715  11.244  0.2602 -0.4357 -0.6530
14035TIP3   OH263519   1.553   0.669  15.841 -0.1283 -0.1514  0.1517
14035TIP3    H163520   1.515   0.690  15.926  0.6783 -2.4591  1.1709
14035TIP3    H263521   1.482   0.630  15.791 -0.0222 -1.1523  0.7465
14036TIP3   OH263522   1.225   0.921  12.207 -0.3419  0.1280 -0.2861
14036TIP3    H163523   1.299   0.870  12.239  0.0842  0.2048 -1.1191
14036TIP3    H263524   1.259   1.010  12.200 -0.2135 -0.0003 -1.5582
14037TIP3   OH263525   4.036   2.335   3.998 -0.2413 -0.1356  0.3311
14037TIP3    H163526   4.094   2.380   3.937 -0.2346 -0.3953  0.1448
14037TIP3    H263527   4.002   2.405   4.055 -2.2118  0.5085 -1.5272
14038TIP3   OH263528   0.114   2.174  16.356 -0.1947  0.1926 -0.0472
14038TIP3    H163529   0.033   2.223  16.354  0.0249  0.7357  2.0429
14038TIP3    H263530   0.159   2.197  16.275 -1.2491  1.4059 -0.3074
14039TIP3   OH263531   5.890   6.670   1.305  0.9212  0.7943  0.0306
14039TIP3    H163532   5.905   6.714   1.389  3.0513 -0.5957  0.4856
14039TIP3    H263533   5.976   6.673   1.262 -0.0988  1.3388 -2.0652
14040TIP3   OH263534   5.733   4.372   2.381 -0.3119 -0.4354 -0.0800
14040TIP3    H163535   5.758   4.459   2.414  0.2259  0.4990 -2.6779
14040TIP3    H263536   5.774   4.311   2.442 -0.9060  1.0962  1.9749
14041TIP3   OH263537   1.401   2.470  17.468 -0.2065 -0.5179  0.5034
14041TIP3    H163538   1.460   2.519  17.526  1.4113 -2.3823  0.5263
14041TIP3    H263539   1.315   2.480  17.509  0.2604  1.2151  1.1916
14042TIP3   OH263540   1.245   3.079   2.325 -0.6729 -0.4399  0.0834
14042TIP3    H163541   1.307   3.083   2.252 -0.7714  0.2758  0.0329
14042TIP3    H263542   1.173   3.025   2.292 -1.4229  1.0969 -0.9096
14043TIP3   OH263543   6.481   5.377  15.492 -0.5535 -0.3034 -0.3696
14043TIP3    H163544   6.501   5.432  15.417  0.8946  0.4914  0.5497
14043TIP3    H263545   6.482   5.288  15.457 -3.1109  0.1591 -1.9105
14044TIP3   OH263546   4.048   0.735  15.390  0.1996  0.2054  0.1593
14044TIP3    H163547   4.134   0.706  15.361  0.1170  0.1121  0.0089
14044TIP3    H263548   4.011   0.783  15.316 -0.9180 -1.9116 -0.7462
14045TIP3   OH263549   0.916   2.901   5.848  0.1093  0.1066 -0.2344
14045TIP3    H163550   0.960   2.850   5.781  1.7138  0.5413  0.4203
14045TIP3    H263551   0.826   2.870   5.848  0.5819 -1.3373 -1.1549
14046TIP3   OH263552   2.672   1.703  12.841 -0.4609 -0.4908  0.1414
14046TIP3    H163553   2.735   1.759  12.796 -0.2528 -0.2828  0.6856
14046TIP3    H263554   2.673   1.733  12.932 -1.5224 -0.3275  0.1171
14047TIP3   OH263555   4.763   3.694   6.426 -0.3659  0.1711 -0.4035
14047TIP3    H163556   4.852   3.712   6.455  0.4935 -1.6293 -1.7034
14047TIP3    H263557   4.732   3.627   6.487 -0.0629 -0.6452 -1.1218
14048TIP3   OH263558   2.985   2.722  11.829  0.1929  0.5854 -0.3162
14048TIP3    H163559   2.896   2.733  11.862 -0.2519  0.2582 -1.3582
14048TIP3    H263560   3.022   2.651  11.882 -0.1347  0.7811  0.1794
14049TIP3   OH263561   5.442   4.235   1.652 -0.1357  0.3660 -0.1221
14049TIP3    H163562   5.504   4.163   1.643  0.6947  1.0860 -0.2467
14049TIP3    H263563   5.436   4.250   1.746 -0.8095 -0.2740 -0.0485
14050TIP3   OH263564   1.863   4.813   1.987  0.0533 -0.3177  0.0675
14050TIP3    H163565   1.955   4.786   1.980 -0.0981 -1.0448  0.7294
14050TIP3    H263566   1.867   4.908   1.996  0.6075 -0.0979 -2.0389
14051TIP3   OH263567   6.459   4.529   3.047 -0.1571 -0.2254 -0.1565
14051TIP3    H163568   6.404   4.475   2.990 -2.5557  1.3930  0.4709
14051TIP3    H263569   6.510   4.582   2.987  0.1110 -1.1520 -0.7694
14052TIP3   OH263570   6.378   1.797   4.612 -0.6896 -0.3499 -0.2601
14052TIP3    H163571   6.453   1.782   4.555  0.9344  0.4828  1.5376
14052TIP3    H263572   6.308   1.743   4.575  0.4648 -0.3337 -2.6049
14053TIP3   OH263573   6.096   0.544  13.454 -0.0908  0.3929  0.2778
14053TIP3    H163574   6.017   0.521  13.405  0.4292  0.1335 -0.4623
14053TIP3    H263575   6.094   0.640  13.458  0.5890  0.5230 -1.5591
14054TIP3   OH263576   2.591   1.284  13.249 -0.4492  0.4911  0.3983
14054TIP3    H163577   2.547   1.255  13.328  0.4277  0.8983  1.0518
14054TIP3    H263578   2.671   1.232  13.245  0.8466  2.2940  1.2622
14055TIP3   OH263579   4.464   3.741   2.183  0.6362  0.3318  0.2247
14055TIP3    H163580   4.482   3.749   2.276  1.8016  0.6539 -0.0232
14055TIP3    H263581   4.538   3.691   2.148  0.3587  0.4692 -0.5763
14056TIP3   OH263582   1.473   5.986  12.082 -0.5914 -0.2280  0.1989
14056TIP3    H163583   1.449   6.077  12.101 -0.4876  0.3865 -2.2193
14056TIP3    H263584   1.557   5.993  12.037 -0.4327 -1.5650  0.2460
14057TIP3   OH263585   6.145   4.073   0.509  0.1671 -0.4122  0.4698
14057TIP3    H163586   6.167   4.153   0.462 -0.4562  0.5845  1.8028
14057TIP3    H263587   6.055   4.054   0.484 -0.6218  0.8440  2.1394
14058TIP3   OH263588   2.772   5.125  12.494 -0.1375  0.1639 -0.6553
14058TIP3    H163589   2.678   5.112  12.497 -0.1246 -0.0248 -0.9473
14058TIP3    H263590   2.785   5.197  12.431 -0.2551  2.1986  1.5093
14059TIP3   OH263591   0.173   6.063  15.918  0.0102 -0.0818  0.1583
14059TIP3    H163592   0.106   6.088  15.855 -0.1676  2.1129  1.1291
14059TIP3    H263593   0.256   6.079  15.872 -0.1116  1.8406  0.5022
14060TIP3   OH263594   5.326   5.105  14.309  0.1826 -0.4666  0.2771
14060TIP3    H163595   5.258   5.136  14.369 -0.9915 -0.9462 -0.7611
14060TIP3    H263596   5.321   5.164  14.234  1.4721 -0.0259  0.5064
14061TIP3   OH263597   5.026   2.169  14.817  0.2419  0.4805  0.4655
14061TIP3    H163598   4.999   2.229  14.887 -1.7948  1.1431 -0.7991
14061TIP3    H263599   5.106   2.209  14.781  0.1215  1.2740  1.0433
14062TIP3   OH263600   6.660   2.510   2.945 -0.1088 -0.0176 -0.1816
14062TIP3    H163601   6.677   2.511   3.039 -0.7665 -0.6216 -0.0427
14062TIP3    H263602   6.740   2.544   2.905  0.3491 -0.1972  0.5709
14063TIP3   OH263603   5.156   3.309   5.774 -0.2167  0.1775  0.0541
14063TIP3    H163604   5.122   3.315   5.685 -0.5482  1.4123  0.2550
14063TIP3    H263605   5.251   3.313   5.763 -0.2807  1.1763 -0.1916
14064TIP3   OH263606   5.220   0.428   5.757 -0.3134 -0.5801 -0.2350
14064TIP3    H163607   5.208   0.520   5.734  1.5923 -0.1490  0.3430
14064TIP3    H263608   5.216   0.426   5.853 -0.8672 -1.1981 -0.2607
14065TIP3   OH263609   6.360   6.680  11.804  0.1970  0.3461  0.0466
14065TIP3    H163610   6.305   6.736  11.859  0.5612  0.4632  0.2909
14065TIP3    H263611   6.422   6.640  11.864  0.6305  0.5101 -0.2782
14066TIP3   OH263612   6.378   1.150   3.928  0.2244 -0.0961  0.3237
14066TIP3    H163613   6.390   1.156   4.022  1.8098  0.2177  0.1319
14066TIP3    H263614   6.377   1.241   3.898  0.5693 -0.2055 -0.0387
14067TIP3   OH263615   2.363   4.167  15.455  0.6040 -0.4283 -0.8860
14067TIP3    H163616   2.440   4.152  15.510 -1.0559  0.2129  1.7747
14067TIP3    H263617   2.292   4.118  15.498 -1.0647  1.1701 -1.6706
14068TIP3   OH263618   0.009   5.966  12.577  0.3776 -0.3939  0.2239
14068TIP3    H163619  -0.055   5.909  12.534 -0.4213 -0.6333  1.6529
14068TIP3    H263620  -0.001   5.947  12.670  1.1903  0.9698  0.6182
14069TIP3   OH263621   5.694   5.779   5.781 -0.0688 -0.4890  0.0251
14069TIP3    H163622   5.624   5.719   5.809  1.0492 -2.2615 -0.8179
14069TIP3    H263623   5.675   5.795   5.689 -0.0625  0.0633  0.1170
14070TIP3   OH263624   2.968   6.524   4.036  0.5027  0.3478 -0.4617
14070TIP3    H163625   2.955   6.517   4.130 -1.0853  0.4008 -0.6398
14070TIP3    H263626   2.900   6.468   3.998  1.0541  0.3975 -1.5699
14071TIP3   OH263627   3.560   3.185   6.249 -0.1889 -0.2090  0.3165
14071TIP3    H163628   3.635   3.181   6.190  0.7795 -1.2460  1.5886
14071TIP3    H263629   3.537   3.094   6.265 -0.6955  0.0698  1.2265
14072TIP3   OH263630   4.358   2.514   4.565 -0.2834 -0.3196 -0.2160
14072TIP3    H163631   4.375   2.427   4.601 -0.4772 -0.7971 -1.2400
14072TIP3    H263632   4.423   2.526   4.496 -0.2444  0.3587 -0.0736
14073TIP3   OH263633   4.816   3.400   2.677 -0.2421 -0.3187 -0.3522
14073TIP3    H163634   4.759   3.475   2.660  1.4907  0.9007 -0.9858
14073TIP3    H263635   4.836   3.365   2.590  0.3518 -0.4486 -0.1651
14074TIP3   OH263636   6.229   2.171  14.488  0.8604 -0.0167  0.0016
14074TIP3    H163637   6.233   2.156  14.393 -1.2725 -2.0230  0.1278
14074TIP3    H263638   6.222   2.083  14.526  0.1533  0.8050  1.9068
14075TIP3   OH263639   6.194   1.497  13.447 -0.2568  0.5745 -0.2354
14075TIP3    H163640   6.289   1.499  13.443 -0.0726 -0.2456  2.0589
14075TIP3    H263641   6.169   1.425  13.388  0.7860 -1.0005  1.1416
14076TIP3   OH263642   3.047   5.767   2.982 -0.3195 -0.0971 -1.0607
14076TIP3    H163643   3.092   5.688   3.012 -1.6510 -0.6258 -0.3622
14076TIP3    H263644   2.997   5.739   2.906 -1.6676 -0.2468 -0.1642
14077TIP3   OH263645   6.528   2.622  14.868 -0.0461 -0.4690  0.0861
14077TIP3    H163646   6.443   2.613  14.825 -0.0094  1.7989 -0.5562
14077TIP3    H263647   6.509   2.620  14.961 -0.8729  0.4120 -0.0526
14078TIP3   OH263648   5.934   1.903   6.202  0.0631  0.4003  0.0254
14078TIP3    H163649   5.951   1.924   6.294 -1.0467 -0.6388  0.4896
14078TIP3    H263650   5.840   1.913   6.192  0.0043 -0.7249 -0.6657
14079TIP3   OH263651   0.070   3.662  15.184 -0.0846  0.3353  0.0005
14079TIP3    H163652   0.106   3.701  15.264  1.0082 -0.5298 -0.0502
14079TIP3    H263653  -0.010   3.617  15.212  0.5498 -0.3725  0.7053
14080TIP3   OH263654   2.134   5.646  14.717  0.0353  0.1267  0.1996
14080TIP3    H163655   2.047   5.613  14.740 -0.0301  0.3223  0.2380
14080TIP3    H263656   2.140   5.637  14.622  0.5662 -1.3211  0.3408
14081TIP3   OH263657   4.561   5.397  12.033 -0.2724  0.6628 -0.5786
14081TIP3    H163658   4.654   5.390  12.055 -0.5277 -0.5065  0.2097
14081TIP3    H263659   4.543   5.318  11.982 -0.8376  0.8964 -0.7464
14082TIP3   OH263660   2.156   6.163   2.090 -0.7834 -0.4050 -0.1140
14082TIP3    H163661   2.147   6.207   2.175  0.2607  0.0171 -0.2069
14082TIP3    H263662   2.137   6.071   2.109 -1.6857 -0.1380  0.3415
14083TIP3   OH263663   6.424   0.512   6.128 -0.0182 -0.8645  0.7518
14083TIP3    H163664   6.373   0.591   6.112  0.7853 -0.3624  0.6218
14083TIP3    H263665   6.512   0.544   6.151  0.6990 -1.7316 -0.6627
14084TIP3   OH263666   2.909   4.998   5.761 -0.8605 -0.7071  0.2825
14084TIP3    H163667   2.906   5.073   5.821  0.6848  0.2909 -0.7923
14084TIP3    H263668   2.946   4.927   5.813 -2.3005 -0.7493  1.3108
14085TIP3   OH263669   4.835   3.544  14.517 -0.1150  0.3092  0.3830
14085TIP3    H163670   4.825   3.499  14.433  2.0886 -1.2041  0.8349
14085TIP3    H263671   4.781   3.494  14.578  2.0819 -1.6782  0.8151
14086TIP3   OH263672   1.614   1.158   6.665  0.2848 -0.3793  0.2209
14086TIP3    H163673   1.626   1.172   6.571 -1.7209 -1.9319 -0.3377
14086TIP3    H263674   1.695   1.191   6.704  0.9381  0.8662 -1.9666
14087TIP3   OH263675   2.046   4.403   5.792 -0.2283  0.0844 -0.5126
14087TIP3    H163676   2.003   4.395   5.877 -1.4336  1.1311 -0.9675
14087TIP3    H263677   1.973   4.412   5.730  0.6260  2.1605 -1.3072
14088TIP3   OH263678   5.143   3.234  15.054 -0.0305  0.2901  0.4704
14088TIP3    H163679   5.196   3.173  15.002  0.1143 -0.4514  1.4640
14088TIP3    H263680   5.062   3.244  15.004 -1.9101 -4.0540  2.1784
14089TIP3   OH263681   4.203   0.391   5.595 -0.5751  0.4137 -0.2855
14089TIP3    H163682   4.135   0.458   5.601 -2.3100 -1.3094 -0.0209
14089TIP3    H263683   4.284   0.439   5.613 -1.9486  2.0898  2.0745
14090TIP3   OH263684   2.347   2.230  15.658  0.0154 -0.3667  0.1480
14090TIP3    H163685   2.325   2.137  15.661 -1.8028  0.0324  0.2811
14090TIP3    H263686   2.362   2.248  15.565  3.1119 -1.3134  0.3533
14091TIP3   OH263687   6.527   2.936   0.303 -0.6520 -0.0579 -0.6368
14091TIP3    H163688   6.576   3.018   0.306  0.2695 -0.5625 -1.2710
14091TIP3    H263689   6.487   2.929   0.389 -1.7578  1.6532 -0.9728
14092TIP3   OH263690   4.751   3.245  16.383 -0.2864 -0.2914 -0.2732
14092TIP3    H163691   4.837   3.230  16.344 -0.0938  3.4610 -1.7272
14092TIP3    H263692   4.693   3.186  16.335  1.0488 -0.7134 -1.4577
14093TIP3   OH263693   6.403   6.097  11.884  0.0398  0.1822  0.3002
14093TIP3    H163694   6.420   6.188  11.862  0.8620  0.0684  0.4168
14093TIP3    H263695   6.416   6.049  11.803  2.8045 -0.2033  0.8717
14094TIP3   OH263696   4.675   0.132  10.427 -0.1360  0.4464  0.5647
14094TIP3    H163697   4.616   0.081  10.373  0.2738 -0.0468  0.5690
14094TIP3    H263698   4.730   0.179  10.365  1.5564 -1.5075  0.4530
14095TIP3   OH263699   5.582   5.485   3.541  0.2139 -0.3841 -0.4108
14095TIP3    H163700   5.638   5.431   3.485  0.8845  0.4692 -0.5861
14095TIP3    H263701   5.493   5.457   3.521  0.3347  0.7414 -2.8249
14096TIP3   OH263702   1.693   5.567   6.218 -0.0070 -0.5988  0.1582
14096TIP3    H163703   1.713   5.491   6.272 -0.2161 -0.6077  0.2219
14096TIP3    H263704   1.728   5.545   6.132 -0.1986 -0.8265  0.1386
14097TIP3   OH263705   0.272   3.724  15.007  0.6025 -0.8262 -0.2719
14097TIP3    H163706   0.195   3.708  15.061 -2.2368 -0.2406 -3.7428
14097TIP3    H263707   0.310   3.805  15.042 -0.9091 -0.6424  1.0217
14098TIP3   OH263708   4.173   1.462  11.832 -0.1171  0.0899 -0.0056
14098TIP3    H163709   4.094   1.516  11.841 -0.3869 -0.3331  0.1976
14098TIP3    H263710   4.148   1.396  11.767  0.5988  0.9038 -1.1581
14099TIP3   OH263711   1.224   1.099   4.506 -0.0839  0.1982 -0.7065
14099TIP3    H163712   1.175   1.109   4.424 -1.5616 -1.5996 -0.0931
14099TIP3    H263713   1.211   1.008   4.531  0.8163  0.5639  1.2599
14100TIP3   OH263714   6.385   1.243  15.901 -0.3397  0.0812 -0.2965
14100TIP3    H163715   6.301   1.206  15.874 -0.6862  0.8565 -0.3012
14100TIP3    H263716   6.432   1.169  15.940 -1.1504 -0.2820  0.0083
14101TIP3   OH263717   3.773   2.018   0.285  0.4450  0.1988  0.2078
14101TIP3    H163718   3.777   1.983   0.196 -2.1822  1.8391 -0.6605
14101TIP3    H263719   3.701   1.972   0.326  0.4067  0.8021  0.8371
14102TIP3   OH263720   1.176   1.891  16.826 -0.4695 -0.8815  0.6676
14102TIP3    H163721   1.160   1.818  16.767  0.6628 -0.2787 -0.4320
14102TIP3    H263722   1.166   1.969  16.771 -1.7066 -0.1659  1.8177
14103TIP3   OH263723   5.359   1.158   0.892  0.2836  0.4840  0.1204
14103TIP3    H163724   5.293   1.224   0.909 -0.2281 -0.3858  1.6863
14103TIP3    H263725   5.316   1.094   0.835 -0.8912 -0.9655  2.4742
14104TIP3   OH263726   0.492   4.603   2.903  0.1599 -0.0659  0.1986
14104TIP3    H163727   0.422   4.574   2.961  0.3014 -0.6365  0.0859
14104TIP3    H263728   0.573   4.583   2.951  0.2985 -1.1075 -0.4454
14105TIP3   OH263729   2.955   0.643  13.029 -0.1091  0.6240  0.1145
14105TIP3    H163730   2.957   0.551  13.054  1.1271  0.8857  1.0639
14105TIP3    H263731   3.026   0.652  12.965  0.1747  1.0434  0.4879
14106TIP3   OH263732   4.635   5.276   5.138  0.0936  0.3107 -0.7115
14106TIP3    H163733   4.620   5.363   5.175  2.2960  0.8838 -1.0204
14106TIP3    H263734   4.549   5.248   5.106 -0.8154  2.0149  0.1029
14107TIP3   OH263735   0.868   2.611  16.053 -0.5816 -0.3912 -0.3917
14107TIP3    H163736   0.926   2.535  16.050  0.7144  0.4607  1.1925
14107TIP3    H263737   0.783   2.578  16.026 -0.0448 -2.4030  0.2183
14108TIP3   OH263738   3.864   0.725  10.791 -0.0844  0.2670  0.9246
14108TIP3    H163739   3.772   0.697  10.794  0.1604 -0.7926 -0.3725
14108TIP3    H263740   3.910   0.651  10.751  0.9511  1.6484 -0.5710
14109TIP3   OH263741   5.317   5.813   5.771 -0.7904 -0.1096  0.0228
14109TIP3    H163742   5.384   5.842   5.833  1.2668  0.4008 -2.2528
14109TIP3    H263743   5.284   5.731   5.806  1.3924 -0.6137  1.0228
14110TIP3   OH263744   4.125   1.382  10.968  0.5392  0.6707 -0.7579
14110TIP3    H163745   4.031   1.363  10.961 -0.1874  2.9136  1.2845
14110TIP3    H263746   4.141   1.450  10.903  0.6078  0.6603 -0.7517
14111TIP3   OH263747   1.290   1.693   5.510 -0.2468 -0.1322 -0.1495
14111TIP3    H163748   1.328   1.748   5.578  0.5643 -0.3148 -0.4466
14111TIP3    H263749   1.209   1.660   5.549 -0.5177  0.9062  0.1929
14112TIP3   OH263750   6.222   4.903  14.538  0.5391  0.2708  0.1236
14112TIP3    H163751   6.174   4.821  14.544  1.1527 -0.1020  0.1205
14112TIP3    H263752   6.276   4.904  14.618  0.9527  0.3968 -0.1551
14113TIP3   OH263753   3.359   6.166   4.664 -0.2342  0.0546 -0.2550
14113TIP3    H163754   3.356   6.127   4.751 -0.0136 -0.9327 -0.6769
14113TIP3    H263755   3.287   6.229   4.663 -1.2512 -1.0677  0.1130
14114TIP3   OH263756   2.141   6.154  15.819 -0.3541 -0.4906  0.0730
14114TIP3    H163757   2.159   6.221  15.753 -0.5663 -0.2159  0.2924
14114TIP3    H263758   2.176   6.074  15.781 -0.2908 -0.2980 -0.2861
14115TIP3   OH263759   2.169   1.133   0.884  0.2481 -0.3441 -0.0399
14115TIP3    H163760   2.250   1.122   0.935 -0.3470 -2.2703  0.5676
14115TIP3    H263761   2.186   1.088   0.802  0.7339  1.6401 -1.0794
14116TIP3   OH263762   4.934   6.634  12.262 -0.3425 -0.0302 -0.0396
14116TIP3    H163763   5.017   6.668  12.228  0.1382 -0.1464  0.9961
14116TIP3    H263764   4.891   6.596  12.185  1.3351 -1.5510 -0.2979
14117TIP3   OH263765   2.059   1.466  11.937  0.0467 -0.0992  0.1354
14117TIP3    H163766   2.091   1.522  12.009  0.7209  0.4528 -0.5784
14117TIP3    H263767   1.964   1.466  11.948  0.1718 -0.5788  1.4333
14118TIP3   OH263768   0.041   4.439  13.664 -0.0256 -0.1930 -0.3595
14118TIP3    H163769   0.064   4.441  13.571 -0.8653 -0.4549 -0.5771
14118TIP3    H263770  -0.018   4.513  13.676  2.0853  1.4627  0.5373
14119TIP3   OH263771   5.144   0.912  13.167  0.4086  0.3725  0.3015
14119TIP3    H163772   5.132   0.911  13.072  1.3430  2.7777  0.0822
14119TIP3    H263773   5.066   0.955  13.200  0.8348  1.0563  0.4402
14120TIP3   OH263774   1.037   4.600   5.527 -0.2697 -0.0011  0.7333
14120TIP3    H163775   1.068   4.614   5.437 -1.4610 -1.5012  0.0494
14120TIP3    H263776   0.966   4.664   5.538 -0.7965 -0.4876  0.2322
14121TIP3   OH263777   3.364   6.001  13.399  0.5834  0.1779  0.0954
14121TIP3    H163778   3.415   6.020  13.320  1.5189  0.0684  0.6582
14121TIP3    H263779   3.316   6.082  13.417 -2.3003 -0.7639 -2.4377
14122TIP3   OH263780   5.104   3.787   1.488 -0.4473 -0.0531 -0.1147
14122TIP3    H163781   5.183   3.790   1.435  0.1859  1.1538  0.8438
14122TIP3    H263782   5.039   3.745   1.431  0.8142 -0.9475 -0.9691
14123TIP3   OH263783   2.639   1.461   6.897  0.1584  0.3041  0.4988
14123TIP3    H163784   2.642   1.527   6.967 -0.7226  2.9557 -1.7999
14123TIP3    H263785   2.678   1.504   6.822  2.0394 -2.8266 -0.4743
14124TIP3   OH263786   0.578   2.290  14.840 -0.0919 -0.3039 -0.5381
14124TIP3    H163787   0.611   2.359  14.783  2.0608 -2.2611 -1.8131
14124TIP3    H263788   0.523   2.236  14.782  1.8830 -2.1458 -0.8166
14125TIP3   OH263789   3.730   4.600  15.355 -0.4743  0.0341 -0.2241
14125TIP3    H163790   3.649   4.626  15.399  0.6409  1.1918  1.2406
14125TIP3    H263791   3.785   4.564  15.424 -0.3768 -2.5223 -1.5037
14126TIP3   OH263792   6.412   1.346   0.313  0.1555 -0.0555 -0.3103
14126TIP3    H163793   6.411   1.250   0.311 -1.2211 -0.0617 -0.2659
14126TIP3    H263794   6.334   1.372   0.264  0.4341  1.0380 -0.1907
14127TIP3   OH263795   0.101   6.220  12.672  0.7923  1.0391  0.5070
14127TIP3    H163796   0.176   6.252  12.622  0.9778  0.5401  0.4633
14127TIP3    H263797   0.107   6.125  12.666  0.0436  0.9978  0.3338
14128TIP3   OH263798   6.181   6.618   2.059  0.1167 -0.0324 -0.0082
14128TIP3    H163799   6.138   6.691   2.015  1.3078  1.8905  1.8342
14128TIP3    H263800   6.110   6.568   2.099 -0.6654  0.5808 -0.6080
14129TIP3   OH263801   3.618   1.180   4.715  0.4503  0.2776 -0.4524
14129TIP3    H163802   3.541   1.192   4.660  1.3587  3.2536 -1.2468
14129TIP3    H263803   3.692   1.192   4.656  1.5221 -0.6926  0.6393
14130TIP3   OH263804   2.219   0.907  16.851 -0.0330  0.6620  0.5555
14130TIP3    H163805   2.247   0.970  16.917  0.7355  0.5982  0.3006
14130TIP3    H263806   2.299   0.886  16.803 -0.6049  0.7692 -0.4517
14131TIP3   OH263807   4.289   5.957   4.258 -0.1704  0.3684 -0.1564
14131TIP3    H163808   4.363   5.967   4.318 -0.3346  0.4711  0.0291
14131TIP3    H263809   4.211   5.964   4.314 -0.3310  0.8423 -0.4317
14132TIP3   OH263810   3.779   5.428  16.327 -0.3607  0.4938 -0.0700
14132TIP3    H163811   3.706   5.371  16.353 -1.0728  0.9698 -0.9414
14132TIP3    H263812   3.759   5.452  16.236  0.9914  0.4838 -0.3949
14133TIP3   OH263813   3.743   5.439  15.522  0.4894 -0.3223 -0.2416
14133TIP3    H163814   3.788   5.378  15.579  0.2315  0.6523  1.0454
14133TIP3    H263815   3.705   5.504  15.581 -1.9934 -0.6852 -1.3002
14134TIP3   OH263816   1.994   1.128   5.023 -0.6930  0.0525  0.2998
14134TIP3    H163817   2.072   1.073   5.028 -1.3924 -1.0369 -0.2754
14134TIP3    H263818   2.019   1.209   5.068  1.3071  0.3970 -1.2456
14135TIP3   OH263819   0.995   0.656  11.743 -0.6207 -0.4397  0.2561
14135TIP3    H163820   1.040   0.628  11.823  0.4252 -0.7644 -0.4215
14135TIP3    H263821   0.921   0.596  11.734 -1.1420  0.0161  1.3249
14136TIP3   OH263822   6.162   6.654   1.263  0.0592  0.3796 -0.8435
14136TIP3    H163823   6.246   6.679   1.301 -0.8383  1.8974  0.2320
14136TIP3    H263824   6.183   6.631   1.172  1.6598  0.4498 -0.5189
14137TIP3   OH263825   2.659   4.257   3.590  0.1550 -0.1662  0.4708
14137TIP3    H163826   2.568   4.246   3.563  0.4423 -0.5556 -0.3586
14137TIP3    H263827   2.672   4.352   3.594 -0.1746 -0.1085  0.2032
14138TIP3   OH263828   5.415   5.921   6.259  0.2731 -0.1523 -0.3057
14138TIP3    H163829   5.333   5.941   6.304  1.0045  0.0381  0.9938
14138TIP3    H263830   5.482   5.964   6.311  1.2812 -0.9497 -0.9059
14139TIP3   OH263831   4.902   3.521   1.055  0.1045  0.3626  0.2465
14139TIP3    H163832   4.829   3.459   1.062  0.5619 -0.0686  1.7085
14139TIP3    H263833   4.979   3.466   1.042  0.1889  0.8246 -1.4358
14140TIP3   OH263834   1.822   6.059  16.805  0.0859 -0.0457 -0.0596
14140TIP3    H163835   1.775   6.116  16.744 -1.4517  1.5613  2.4057
14140TIP3    H263836   1.793   5.971  16.783 -2.5507  0.7059 -0.0291
14141TIP3   OH263837   2.883   4.207  12.211  0.0871 -0.1394 -0.5279
14141TIP3    H163838   2.816   4.150  12.248  1.6181  0.7303  4.2027
14141TIP3    H263839   2.841   4.292  12.202 -0.1728 -0.2304 -0.1756
14142TIP3   OH263840   0.233   6.394   0.427  0.1151 -0.0075  0.1183
14142TIP3    H163841   0.204   6.325   0.487  0.6637 -1.2410 -0.9962
14142TIP3    H263842   0.162   6.401   0.363  0.1996  0.2614  0.0526
14143TIP3   OH263843   4.497   4.951  13.669 -0.9327 -0.6005 -0.2544
14143TIP3    H163844   4.425   4.979  13.613 -0.2579  0.6691 -0.5089
14143TIP3    H263845   4.576   4.981  13.624 -0.3256 -0.5028  0.8439
14144TIP3   OH263846   2.688   0.671  14.643  0.6260 -0.0678  0.0280
14144TIP3    H163847   2.767   0.724  14.652  0.3317  0.6649 -1.4098
14144TIP3    H263848   2.652   0.666  14.732  2.1701 -0.2652  0.6677
14145TIP3   OH263849   0.399   1.290  16.532 -0.3477  0.2158 -0.3934
14145TIP3    H163850   0.455   1.304  16.609  0.7717  0.7664 -1.2791
14145TIP3    H263851   0.420   1.200  16.505  1.5923  1.0194 -1.8209
14146TIP3   OH263852   3.120   1.805  13.104  0.4466  0.5029  0.3170
14146TIP3    H163853   3.152   1.788  13.193 -0.9768  1.4585  1.0659
14146TIP3    H263854   3.198   1.824  13.053  1.6889 -3.1726  0.5213
14147TIP3   OH263855   0.118   3.204  11.537 -0.4360 -0.2659 -0.2554
14147TIP3    H163856   0.193   3.211  11.478 -0.7429 -2.2391 -0.9623
14147TIP3    H263857   0.154   3.164  11.616 -0.7466 -1.4664 -0.6950
14148TIP3   OH263858   0.621   2.361   4.804  0.2619 -0.2584  0.2496
14148TIP3    H163859   0.703   2.315   4.785 -0.1770 -0.7604 -0.5021
14148TIP3    H263860   0.647   2.436   4.856  1.3142  0.0699 -0.7091
14149TIP3   OH263861   4.011   1.791   0.472  0.1581  0.1948 -0.3328
14149TIP3    H163862   3.940   1.817   0.530 -0.0892 -1.6466  0.2702
14149TIP3    H263863   3.971   1.729   0.411  0.6256  1.3728 -1.9055
14150TIP3   OH263864   2.560   1.336   5.693  0.7557  0.7936  0.0199
14150TIP3    H163865   2.569   1.427   5.666 -1.0400  1.4969  1.5343
14150TIP3    H263866   2.487   1.337   5.756 -0.0461 -1.8654 -0.7344
14151TIP3   OH263867   1.931   0.996  14.804  0.3398  0.5756  0.5551
14151TIP3    H163868   1.872   0.988  14.879  1.6022  2.0485  1.7843
14151TIP3    H263869   2.004   0.938  14.825 -0.1482 -0.4304 -0.4499
14152TIP3   OH263870   6.357   2.642   0.302 -0.2961 -0.0854 -0.4148
14152TIP3    H163871   6.303   2.689   0.239 -1.0549  1.3109  1.2091
14152TIP3    H263872   6.382   2.708   0.367  2.4585 -0.9418 -0.4953
14153TIP3   OH263873   3.233   0.699  15.566  0.1428  0.1606  0.6968
14153TIP3    H163874   3.227   0.750  15.647  0.1383  0.6654  0.3853
14153TIP3    H263875   3.167   0.631  15.576 -1.1313  1.3124  0.3576
14154TIP3   OH263876   6.655   6.355  10.788  0.1429  0.5868 -0.5010
14154TIP3    H163877   6.661   6.416  10.715 -0.9771 -0.5877 -1.6406
14154TIP3    H263878   6.567   6.318  10.781  0.2643 -0.0659  1.0292
14155TIP3   OH263879   0.454   4.021   6.079 -0.0802  0.0206 -0.2419
14155TIP3    H163880   0.530   3.992   6.029  2.2882  0.5310  2.7252
14155TIP3    H263881   0.467   4.115   6.090 -1.0508  0.0928  0.4267
14156TIP3   OH263882   2.457   1.347  15.376 -0.3336  0.5530 -0.2752
14156TIP3    H163883   2.412   1.272  15.415  1.7716 -1.1647 -0.9594
14156TIP3    H263884   2.415   1.359  15.291  0.3970 -0.9971 -0.8908
14157TIP3   OH263885   5.353   5.073  11.842 -0.5012 -0.1948 -1.0342
14157TIP3    H163886   5.296   5.072  11.765  0.0535 -1.3478 -1.4557
14157TIP3    H263887   5.429   5.022  11.816  0.7436  1.3200 -0.4723
14158TIP3   OH263888   3.348   2.117  13.280  0.2710 -0.4097 -0.2481
14158TIP3    H163889   3.326   2.206  13.254  0.0519 -0.2944  0.3286
14158TIP3    H263890   3.438   2.122  13.312  0.4846 -0.5216 -0.8178
14159TIP3   OH263891   3.701   0.480   6.799 -0.2452 -0.1923 -0.2750
14159TIP3    H163892   3.713   0.422   6.724  1.1818 -0.4236  0.1064
14159TIP3    H263893   3.756   0.442   6.867 -0.2297  0.9535  0.3639
14160TIP3   OH263894   4.186   1.026  11.768  0.3827  0.4971  0.7391
14160TIP3    H163895   4.278   1.050  11.763  0.3790  0.6596  1.3230
14160TIP3    H263896   4.160   1.008  11.678  0.6695  1.6045  0.4243
14161TIP3   OH263897   4.961   0.287   1.235  0.4421 -0.0131 -0.3735
14161TIP3    H163898   4.868   0.294   1.256  0.7064  2.4035  0.3521
14161TIP3    H263899   4.975   0.348   1.163  1.3188 -1.0355 -1.1045
14162TIP3   OH263900   5.388   2.978  13.529  0.5412  0.0014  0.0485
14162TIP3    H163901   5.337   2.954  13.606  0.9121 -0.3228  0.1924
14162TIP3    H263902   5.362   2.915  13.462 -0.4258  0.8062 -0.3653
14163TIP3   OH263903   0.437   1.637   2.171 -0.1368  0.5309 -0.1177
14163TIP3    H163904   0.405   1.727   2.168  0.3844  0.6964 -1.2360
14163TIP3    H263905   0.360   1.584   2.193 -0.3560  1.2762  0.9602
14164TIP3   OH263906   6.090   3.573   5.313 -0.0482 -0.3328 -0.1017
14164TIP3    H163907   6.133   3.619   5.384 -1.0507  0.9651 -0.2980
14164TIP3    H263908   6.114   3.622   5.234 -2.7396  1.1946 -0.1003
14165TIP3   OH263909   1.180   4.450   3.395 -0.0673  0.2781  0.0729
14165TIP3    H163910   1.193   4.363   3.434 -3.5376 -0.0008  0.8812
14165TIP3    H263911   1.165   4.508   3.470 -0.7040  0.9809 -0.5851
14166TIP3   OH263912   0.531   2.850  12.107  0.2501  0.4961 -0.1688
14166TIP3    H163913   0.555   2.941  12.126  1.1590  0.1448  0.4548
14166TIP3    H263914   0.514   2.812  12.193  0.2423 -0.0220 -0.4002
14167TIP3   OH263915   4.667   5.212  12.820  0.2197  0.0743 -0.2617
14167TIP3    H163916   4.641   5.138  12.765 -0.0862  0.1394 -0.2075
14167TIP3    H263917   4.594   5.223  12.881  0.5466  0.0139  0.1472
14168TIP3   OH263918   5.803   5.718   2.046 -0.1240 -0.2844  0.6893
14168TIP3    H163919   5.728   5.717   2.106 -1.5703  1.0471 -0.9888
14168TIP3    H263920   5.840   5.806   2.055  0.8631 -0.7141  1.0078
14169TIP3   OH263921   4.645   5.342   6.030 -0.2744  0.3136 -0.1258
14169TIP3    H163922   4.586   5.369   6.100 -1.3254  1.2493 -1.3135
14169TIP3    H263923   4.645   5.415   5.969  0.2658 -0.6328 -1.3169
14170TIP3   OH263924   3.660   1.986  12.004  0.3343  0.2720  0.2652
14170TIP3    H163925   3.663   2.073  12.043 -3.1281  0.0861  1.3406
14170TIP3    H263926   3.643   2.001  11.911 -1.5122  0.8277  0.6547
14171TIP3   OH263927   1.947   3.710  12.146  0.1488 -0.4160  0.3518
14171TIP3    H163928   1.965   3.748  12.060 -0.0737  1.6617  1.1620
14171TIP3    H263929   1.868   3.657  12.133  1.1611 -1.6309 -1.0935
14172TIP3   OH263930   0.364   4.462  15.280 -0.0356 -0.3154  0.1284
14172TIP3    H163931   0.430   4.403  15.318  0.3881  0.9482  1.4458
14172TIP3    H263932   0.408   4.500  15.205 -0.2949 -1.6009 -0.7112
14173TIP3   OH263933   1.939   4.423  15.536 -0.4259  0.1400 -0.1801
14173TIP3    H163934   1.957   4.374  15.616  1.3620  0.8456 -0.1027
14173TIP3    H263935   1.859   4.472  15.555 -0.9662 -0.9730  0.5439
14174TIP3   OH263936   3.221   0.310  17.486  0.3926 -0.3594  0.2921
14174TIP3    H163937   3.267   0.265  17.415 -1.2234 -0.2611 -0.8462
14174TIP3    H263938   3.133   0.273  17.485  0.1311  0.1427  1.8227
14175TIP3   OH263939   0.767   5.314   2.540 -0.0733 -0.0130  0.2114
14175TIP3    H163940   0.711   5.249   2.499  0.8356  0.2709 -1.5802
14175TIP3    H263941   0.716   5.395   2.538 -1.0460 -0.5180  2.0819
14176TIP3   OH263942   4.123   3.234   1.665  0.0832  0.0953  0.4550
14176TIP3    H163943   4.091   3.274   1.584 -0.5862  0.5788  0.9398
14176TIP3    H263944   4.052   3.247   1.727 -0.4635 -2.4676  0.4834
14177TIP3   OH263945   2.790   1.822  13.758  0.2718  1.5646 -0.1498
14177TIP3    H163946   2.759   1.863  13.839  0.4061 -0.9284  1.2526
14177TIP3    H263947   2.710   1.800  13.710  0.1479  1.8955 -0.0979
14178TIP3   OH263948   6.505   6.118  17.466 -0.1264  0.3566 -0.6405
14178TIP3    H163949   6.540   6.095  17.380 -1.6442  0.4702 -1.3252
14178TIP3    H263950   6.577   6.165  17.509  1.9606 -2.8217 -0.3680
14179TIP3   OH263951   6.112   3.036  12.679 -0.3260 -0.5541  0.6799
14179TIP3    H163952   6.048   2.981  12.723 -0.1448 -0.9991  0.3925
14179TIP3    H263953   6.066   3.118  12.661 -1.5598 -1.6493 -1.5582
14180TIP3   OH263954   4.296   1.158  10.905 -0.2500  0.3368  0.2220
14180TIP3    H163955   4.233   1.223  10.936 -0.1512 -0.0595  1.2887
14180TIP3    H263956   4.336   1.124  10.984 -0.1322 -0.8586 -0.3301
14181TIP3   OH263957   1.516   5.233   2.696  0.6712 -0.1859  0.1034
14181TIP3    H163958   1.609   5.249   2.682  0.5431 -1.6714 -3.2436
14181TIP3    H263959   1.476   5.320   2.691  1.8710  0.6136  2.6851
14182TIP3   OH263960   4.794   0.278  12.269  0.0514  0.2219  0.2163
14182TIP3    H163961   4.744   0.274  12.188  2.0330 -0.0884 -1.0590
14182TIP3    H263962   4.844   0.197  12.271  1.7832  1.2414  0.5226
14183TIP3   OH263963   3.618   3.252   4.179  0.1163 -0.0925 -0.4348
14183TIP3    H163964   3.540   3.305   4.164  0.5578  0.3358 -1.3020
14183TIP3    H263965   3.607   3.218   4.268 -0.1170  1.5458  0.1910
14184TIP3   OH263966   1.841   3.196  16.722  0.4217 -0.0103 -0.3582
14184TIP3    H163967   1.838   3.134  16.795 -1.4580 -0.2689 -0.5981
14184TIP3    H263968   1.846   3.282  16.764  2.3722 -0.2405 -0.0160
14185TIP3   OH263969   6.028   2.825  16.315  0.5277 -0.3404  0.4565
14185TIP3    H163970   5.947   2.798  16.359  0.3562 -0.1401  0.2640
14185TIP3    H263971   6.097   2.809  16.380  0.3502 -0.6387  0.5705
14186TIP3   OH263972   1.013   2.822  10.815  0.3607 -0.3130  0.1256
14186TIP3    H163973   0.964   2.876  10.877 -0.9461 -1.7415  0.4028
14186TIP3    H263974   1.005   2.869  10.732  0.4343  0.6050  0.6161
14187TIP3   OH263975   0.299   3.621  15.936  0.1180 -0.3040  0.4605
14187TIP3    H163976   0.207   3.607  15.914 -0.0530  1.0482  0.2451
14187TIP3    H263977   0.344   3.620  15.851  0.2892 -0.8012  0.5524
14188TIP3   OH263978   4.970   1.294  10.544 -0.3002 -0.0185 -0.7856
14188TIP3    H163979   5.060   1.322  10.565 -0.2091 -0.0661 -1.1089
14188TIP3    H263980   4.918   1.327  10.617 -0.0456  0.1584 -0.6790
14189TIP3   OH263981   5.147   0.917  12.475 -0.0859  0.4603 -0.4344
14189TIP3    H163982   5.207   0.898  12.403 -1.4363  2.0484 -2.0540
14189TIP3    H263983   5.200   0.968  12.537  1.2738 -1.4961  0.1207
14190TIP3   OH263984   5.089   4.578   1.429  0.3301  0.0427 -0.1011
14190TIP3    H163985   5.146   4.651   1.404  0.6069 -0.5513 -1.3213
14190TIP3    H263986   5.034   4.565   1.351 -0.1040 -0.6788  0.3252
14191TIP3   OH263987   2.199   4.059  12.096 -0.2229 -0.0923 -1.1794
14191TIP3    H163988   2.264   3.991  12.108 -1.0553 -1.1568 -2.4633
14191TIP3    H263989   2.117   4.012  12.078 -1.8383  1.0857  2.1104
14192TIP3   OH263990   1.336   1.312   3.673  1.2107  0.3836 -0.0975
14192TIP3    H163991   1.318   1.224   3.705 -0.8540  0.9367  0.4427
14192TIP3    H263992   1.355   1.363   3.752  1.4334  0.6380 -0.3118
14193TIP3   OH263993   2.809   6.078  12.616  0.5721  0.4239  0.8375
14193TIP3    H163994   2.864   6.018  12.566 -1.9432 -0.7992 -0.6375
14193TIP3    H263995   2.768   6.024  12.682 -0.4832  0.8453  0.5436
14194TIP3   OH263996   6.205   2.804   0.772  0.5018  0.8344  0.0215
14194TIP3    H163997   6.126   2.844   0.736 -0.4590 -0.5163  0.5528
14194TIP3    H263998   6.184   2.788   0.864  1.9110  1.7111  0.5255
14195TIP3   OH263999   0.494   2.342   5.946 -0.0645  0.3729  0.4998
14195TIP3    H164000   0.578   2.376   5.917 -0.1085 -1.2160 -1.7176
14195TIP3    H264001   0.509   2.249   5.961 -1.8269 -0.4463 -2.1090
14196TIP3   OH264002   6.609   2.277  13.647  0.1802  0.3807 -0.1653
14196TIP3    H164003   6.586   2.202  13.592  0.5121 -0.9479  1.4145
14196TIP3    H264004   6.579   2.353  13.598  0.2588 -0.7449 -2.0557
14197TIP3   OH264005   5.067   3.074   1.444  0.1504  0.5234  0.0690
14197TIP3    H164006   5.116   3.013   1.499  1.5930  0.8161 -0.8435
14197TIP3    H264007   5.017   3.018   1.384  1.8520  0.1994 -1.0964
14198TIP3   OH264008   2.019   3.506   4.482 -0.6356  0.1185 -0.0911
14198TIP3    H164009   2.079   3.432   4.469  2.0579  2.3043 -0.9622
14198TIP3    H264010   1.952   3.495   4.414  0.4050 -0.8660 -0.9885
14199TIP3   OH264011   2.703   4.534   3.045  0.0518  0.0276 -0.1466
14199TIP3    H164012   2.667   4.515   2.958 -0.3246 -1.8982  0.3745
14199TIP3    H264013   2.654   4.611   3.075  1.0880  1.5225 -2.1193
14200TIP3   OH264014   6.639   2.358  12.991  0.2657  0.2010  0.1885
14200TIP3    H164015   6.632   2.444  13.031  0.3522  0.7478 -0.9314
14200TIP3    H264016   6.576   2.304  13.038 -1.6737  1.5432 -0.7694
14201TIP3   OH264017   0.524   5.371  16.468 -0.5381 -0.4557  0.0701
14201TIP3    H164018   0.555   5.461  16.460 -0.2285 -0.6488 -1.1459
14201TIP3    H264019   0.553   5.343  16.555  2.2372 -0.4209 -0.7634
14202TIP3   OH264020   2.749   5.961   2.165 -0.0549 -0.6951 -0.4735
14202TIP3    H164021   2.697   5.886   2.191 -1.8901  0.3574 -0.9059
14202TIP3    H264022   2.724   6.030   2.226  1.0845 -0.2422 -0.5001
14203TIP3   OH264023   6.298   0.049  13.123 -0.2957  0.3413  0.1700
14203TIP3    H164024   6.273  -0.024  13.181 -0.1078  0.4709  0.4155
14203TIP3    H264025   6.237   0.043  13.050 -1.8481  1.3552  1.3070
14204TIP3   OH264026   3.422   6.331   5.117  0.4701  0.0388  0.6247
14204TIP3    H164027   3.417   6.236   5.118 -0.7676  0.0700 -0.2938
14204TIP3    H264028   3.334   6.360   5.091  1.7618  1.3081 -2.9042
14205TIP3   OH264029   5.189   2.776  15.943  0.2175  0.6049  0.2503
14205TIP3    H164030   5.133   2.712  15.899  0.4938  0.7051 -0.2494
14205TIP3    H264031   5.268   2.779  15.891  0.4005  1.0049  0.5432
14206TIP3   OH264032   5.571   6.201   2.771 -0.1279  0.3403  0.4963
14206TIP3    H164033   5.630   6.128   2.752 -1.1555 -0.0716 -1.4840
14206TIP3    H264034   5.570   6.208   2.866  1.5899 -0.8871  0.6457
14207TIP3   OH264035   5.855   2.920   1.145 -0.4019 -0.1559 -0.0182
14207TIP3    H164036   5.943   2.941   1.176 -0.5771 -1.1224  1.2509
14207TIP3    H264037   5.800   2.992   1.176 -0.1311  0.2278 -0.4281
14208TIP3   OH264038   3.596   3.877   2.418  0.1009  0.0433  0.1392
14208TIP3    H164039   3.596   3.970   2.442 -0.8821 -0.3486  1.8794
14208TIP3    H264040   3.504   3.856   2.405  0.2837 -0.7765  0.1185
14209TIP3   OH264041   2.495   6.279  14.307 -0.2805  0.2722  0.2512
14209TIP3    H164042   2.532   6.192  14.295  0.0695  0.5341 -0.7271
14209TIP3    H264043   2.432   6.270  14.378 -0.9440 -0.9859 -0.4746
14210TIP3   OH264044   5.536   3.388   6.198  0.4653 -0.4453 -0.2301
14210TIP3    H164045   5.499   3.389   6.110  1.8696  0.9686 -0.8444
14210TIP3    H264046   5.533   3.296   6.224 -2.5849 -0.5420 -0.5601
14211TIP3   OH264047   4.504   3.938   6.184 -0.1297 -0.0615  0.9812
14211TIP3    H164048   4.422   3.900   6.216  0.0689 -1.0842  0.3223
14211TIP3    H264049   4.477   4.004   6.121 -0.4861  0.9789  2.1951
14212TIP3   OH264050   2.035   3.357  13.632  0.3616  0.3694 -0.1068
14212TIP3    H164051   1.989   3.440  13.632 -0.4806 -0.0436 -1.9875
14212TIP3    H264052   1.966   3.291  13.629  1.0053 -0.2917 -1.8903
14213TIP3   OH264053   5.899   5.991  16.400  0.0108 -0.0901  0.8896
14213TIP3    H164054   5.981   5.978  16.353  0.4240 -0.2885  1.6702
14213TIP3    H264055   5.855   5.907  16.396 -1.7068  0.7908 -2.3975
14214TIP3   OH264056   1.254   2.308  13.994  1.2086 -0.5986 -0.4587
14214TIP3    H164057   1.271   2.401  14.009 -1.4703  0.4194 -2.8453
14214TIP3    H264058   1.177   2.289  14.047  0.6604 -0.9527 -1.3656
14215TIP3   OH264059   0.098   6.518  10.969 -0.3681  0.1616 -0.6281
14215TIP3    H164060   0.170   6.455  10.975  0.6107  1.3197  0.4329
14215TIP3    H264061   0.041   6.483  10.902  0.3436 -1.6534 -0.3383
14216TIP3   OH264062   5.857   4.526   3.095 -0.3948  0.7726  0.5310
14216TIP3    H164063   5.906   4.476   3.160  0.3694  1.6892  0.6750
14216TIP3    H264064   5.919   4.591   3.063 -0.6038  0.0889 -1.4341
14217TIP3   OH264065   1.124   2.276  17.251 -0.0817  0.4547  0.1699
14217TIP3    H164066   1.120   2.367  17.280 -1.2862 -0.2936  2.6977
14217TIP3    H264067   1.095   2.226  17.328 -0.2545 -2.0103 -1.4038
14218TIP3   OH264068   2.686   3.603  15.039  0.6923 -0.0659  0.7998
14218TIP3    H164069   2.641   3.664  15.097  0.9786  0.2307  0.7079
14218TIP3    H264070   2.713   3.655  14.964  2.5009  0.1055  1.5160
14219TIP3   OH264071   3.190   4.012   1.833 -0.5102 -0.0014 -0.0836
14219TIP3    H164072   3.180   3.999   1.927  0.0184  1.6189  0.2272
14219TIP3    H264073   3.242   3.937   1.804  0.6100  0.2467  1.1969
14220TIP3   OH264074   0.200   5.767   6.054  0.2522  0.0375 -0.5995
14220TIP3    H164075   0.222   5.757   5.961 -0.5240  0.3765 -0.8303
14220TIP3    H264076   0.275   5.730   6.101  1.2541  1.0749 -1.3414
14221TIP3   OH264077   0.205   1.398  15.719  0.1892 -1.1371 -0.2331
14221TIP3    H164078   0.252   1.327  15.763  0.0958 -1.2028 -0.2407
14221TIP3    H264079   0.249   1.478  15.750 -1.4235 -0.9905  1.8956
14222TIP3   OH264080   5.613   0.286  16.206  0.4784  0.0402 -0.2512
14222TIP3    H164081   5.697   0.327  16.185 -0.7480  2.1717 -1.2987
14222TIP3    H264082   5.551   0.358  16.210 -1.6583 -1.6254 -1.2402
14223TIP3   OH264083   4.603   1.147   4.809 -0.6273 -0.3423  0.3170
14223TIP3    H164084   4.628   1.148   4.902  0.8363  0.7811 -0.0529
14223TIP3    H264085   4.679   1.110   4.765  0.1285  2.2077 -0.7387
14224TIP3   OH264086   4.996   2.101  13.937  0.4648 -0.5284 -0.4632
14224TIP3    H164087   4.972   2.117  13.846  1.2762 -2.5008 -1.0683
14224TIP3    H264088   5.035   2.184  13.967 -1.5574  0.7805 -1.2617
14225TIP3   OH264089   3.411   4.647   2.011  0.1180 -0.1605 -0.2372
14225TIP3    H164090   3.480   4.689   1.958  0.0929 -1.5149 -1.4106
14225TIP3    H264091   3.330   4.689   1.982 -0.0729 -1.8867 -2.4322
14226TIP3   OH264092   0.158   3.747  15.436 -0.4580 -0.0830  0.2777
14226TIP3    H164093   0.214   3.719  15.509  0.2718  0.3279 -0.1095
14226TIP3    H264094   0.096   3.807  15.475  0.0922  0.3336  0.5310
14227TIP3   OH264095   3.391   3.127  12.272 -0.0332 -0.3681 -0.6494
14227TIP3    H164096   3.402   3.138  12.178 -0.3952  3.3420 -0.4091
14227TIP3    H264097   3.478   3.141  12.309 -0.3955  1.3025 -0.3327
14228TIP3   OH264098   0.408   2.634  16.034  0.2789  0.3624 -0.3940
14228TIP3    H164099   0.319   2.630  16.000  0.2727  0.6652 -0.4074
14228TIP3    H264100   0.434   2.725  16.026  0.6590  0.2409 -0.5561
14229TIP3   OH264101   2.233   5.266  15.933  0.3855 -0.6401  0.2575
14229TIP3    H164102   2.253   5.222  16.015  0.7650  1.1310  1.1725
14229TIP3    H264103   2.151   5.313  15.951 -0.5037 -1.6602 -0.9795
14230TIP3   OH264104   3.319   2.981  13.296  0.1933  0.0421  0.5008
14230TIP3    H164105   3.361   2.896  13.279 -2.2379 -1.5211  1.6057
14230TIP3    H264106   3.345   3.003  13.385  1.7123  1.0802 -0.1663
14231TIP3   OH264107   3.457   3.729  15.652  0.2098  0.1955  0.6264
14231TIP3    H164108   3.546   3.696  15.664  0.0963  0.2809  1.8636
14231TIP3    H264109   3.469   3.816  15.616  0.6386  0.2531  0.8923
14232TIP3   OH264110   0.832   3.085  17.211 -0.3015 -0.2072  0.0036
14232TIP3    H164111   0.915   3.083  17.164 -0.6884 -1.4085 -0.6557
14232TIP3    H264112   0.846   3.150  17.280  0.5211  1.0585 -1.2895
14233TIP3   OH264113   1.257   0.762   3.637 -0.2581 -0.1590 -0.1417
14233TIP3    H164114   1.181   0.752   3.695 -0.4081  0.2986 -0.2564
14233TIP3    H264115   1.233   0.834   3.578  0.7262  0.7818  0.5642
14234TIP3   OH264116   4.102   0.367   5.190 -0.6422 -0.1185 -0.4237
14234TIP3    H164117   4.056   0.394   5.111 -2.1782 -1.1970  0.0403
14234TIP3    H264118   4.080   0.433   5.255 -0.1616  0.2605 -0.6474
14235TIP3   OH264119   4.634   1.180   1.508 -0.2733 -0.0661 -0.6896
14235TIP3    H164120   4.725   1.183   1.478  0.0263 -1.4084  0.0100
14235TIP3    H264121   4.583   1.172   1.428  0.1925  1.0969 -1.1124
14236TIP3   OH264122   0.968   0.850   2.311  0.3473  0.0564  0.0369
14236TIP3    H164123   0.959   0.756   2.325  0.1743 -0.0856 -0.9646
14236TIP3    H264124   1.061   0.864   2.292 -0.1264 -0.4387 -3.2197
14237TIP3   OH264125   6.317   1.371  14.105 -0.4700 -0.4164  0.2820
14237TIP3    H164126   6.387   1.308  14.090  0.8555  1.2809 -1.2747
14237TIP3    H264127   6.330   1.401  14.195  1.8591  0.9458 -0.4116
14238TIP3   OH264128   0.015   1.797  16.708 -0.8639 -0.0671  0.3771
14238TIP3    H164129  -0.049   1.738  16.669  0.5436 -0.4308 -1.5345
14238TIP3    H264130  -0.011   1.884  16.678 -0.7526 -0.1659 -0.0169
14239TIP3   OH264131   1.889   5.905   5.670 -0.0992 -0.4573 -0.3720
14239TIP3    H164132   1.891   5.852   5.750  0.4776 -1.1966 -0.8592
14239TIP3    H264133   1.884   5.995   5.701 -1.0462 -0.7761  0.4806
14240TIP3   OH264134   1.987   3.384   5.520  0.0471 -0.2306  0.0729
14240TIP3    H164135   2.009   3.477   5.527 -2.8485  0.5686  0.0002
14240TIP3    H264136   1.963   3.358   5.609 -0.1825 -0.6258 -0.1000
14241TIP3   OH264137   3.366   1.961  15.464  0.7011 -0.8486  0.6648
14241TIP3    H164138   3.451   1.986  15.427  0.2074  0.1691  0.1954
14241TIP3    H264139   3.331   2.041  15.501 -1.9998 -0.0893 -2.9410
14242TIP3   OH264140   3.326   3.786   2.377 -0.2315  0.0968 -0.0646
14242TIP3    H164141   3.366   3.763   2.293 -0.4806  1.0156 -0.4433
14242TIP3    H264142   3.347   3.712   2.434  0.2625 -0.3671 -0.8275
14243TIP3   OH264143   1.369   1.152   2.541  0.1749  0.0459  0.5880
14243TIP3    H164144   1.331   1.071   2.574 -0.8937 -0.3014 -1.3478
14243TIP3    H264145   1.295   1.200   2.503  1.2831  0.4075 -1.2367
14244TIP3   OH264146   0.565   0.345   0.952 -0.5357  0.1144 -0.0743
14244TIP3    H164147   0.565   0.405   0.877  2.4270 -1.2165 -1.3039
14244TIP3    H264148   0.539   0.261   0.915  0.7002 -0.5013  0.4166
14245TIP3   OH264149   0.312   1.596   4.196 -0.4891 -0.3516 -0.1694
14245TIP3    H164150   0.367   1.658   4.244  0.7119 -0.3964 -1.4291
14245TIP3    H264151   0.284   1.643   4.118 -1.7681 -0.5375  0.1647
14246TIP3   OH264152   5.741   2.808   6.259  0.2732  0.6740  0.0154
14246TIP3    H164153   5.814   2.853   6.303 -0.2041  1.7086 -0.2247
14246TIP3    H264154   5.667   2.867   6.269 -0.4011 -0.1193 -0.2280
14247TIP3   OH264155   5.920   2.054   3.726  0.1679 -0.2275  0.3279
14247TIP3    H164156   5.951   2.111   3.796  0.5540  0.9220 -0.7319
14247TIP3    H264157   5.832   2.087   3.706  0.5694  0.3222 -0.5988
14248TIP3   OH264158   2.494   3.216   4.848  0.4461  0.0976  0.3770
14248TIP3    H164159   2.571   3.272   4.847 -0.2276  1.3083 -3.4159
14248TIP3    H264160   2.522   3.137   4.893  2.9197  1.6053  1.7356
14249TIP3   OH264161   0.737   6.176  15.723 -0.2617 -0.0075  0.0744
14249TIP3    H164162   0.746   6.248  15.786 -1.0293  0.1989 -0.0406
14249TIP3    H264163   0.825   6.164  15.688  0.1683 -0.0952  1.1534
14250TIP3   OH264164   1.218   5.619  12.998  0.7221  0.3533 -0.2518
14250TIP3    H164165   1.229   5.528  13.026  0.6735  0.7737  1.2073
14250TIP3    H264166   1.130   5.642  13.026 -0.5041 -0.0612 -3.4084
14251TIP3   OH264167   4.551   6.390  12.314 -1.0287  0.1687  0.1449
14251TIP3    H164168   4.616   6.327  12.345  1.5813  2.8867  0.6776
14251TIP3    H264169   4.602   6.454  12.265 -3.5922  1.6738 -0.7417
14252TIP3   OH264170   4.238   6.342   1.468  0.1614 -0.0882  0.7371
14252TIP3    H164171   4.163   6.294   1.503  0.6866 -0.3802  1.4712
14252TIP3    H264172   4.230   6.333   1.373  0.2960 -1.6936  0.8629
14253TIP3   OH264173   1.755   3.151   5.136 -0.7578  0.4336 -0.4873
14253TIP3    H164174   1.817   3.149   5.209 -0.2041 -1.9217 -0.9288
14253TIP3    H264175   1.686   3.210   5.165 -0.8533 -0.8364  2.2321
14254TIP3   OH264176   3.915   0.690  15.120 -0.3833 -0.9574  0.4909
14254TIP3    H164177   3.843   0.697  15.058 -1.6112  0.4244  1.9661
14254TIP3    H264178   3.874   0.698  15.206  1.6152  1.2670  1.3683
14255TIP3   OH264179   6.252   0.775   4.526 -0.3260  0.1584 -0.0199
14255TIP3    H164180   6.226   0.706   4.588  0.6112 -0.4832 -0.3213
14255TIP3    H264181   6.273   0.850   4.581 -0.6824 -0.0174  0.3627
14256TIP3   OH264182   4.542   6.448  16.911  0.1198 -0.1777  0.0504
14256TIP3    H164183   4.464   6.395  16.899 -0.3537  0.7704 -1.3066
14256TIP3    H264184   4.576   6.462  16.822  2.3686 -1.3058  0.6563
14257TIP3   OH264185   0.215   0.254   3.334  0.5689 -0.2720 -0.3603
14257TIP3    H164186   0.251   0.321   3.391  1.7661 -0.3590 -0.9780
14257TIP3    H264187   0.290   0.221   3.285 -0.4185 -0.1778 -2.0097
14258TIP3   OH264188   2.362   6.634  15.452 -0.3063  0.2177  0.2599
14258TIP3    H164189   2.453   6.644  15.477 -0.8827  0.2279  2.6019
14258TIP3    H264190   2.322   6.718  15.474 -1.5181 -0.8795  2.5792
14259TIP3   OH264191   5.906   0.229  14.681  0.2760 -0.1042 -0.0248
14259TIP3    H164192   5.841   0.160  14.692 -0.7324  0.5477 -1.5620
14259TIP3    H264193   5.979   0.203  14.738 -1.6566 -0.4087  2.5105
14260TIP3   OH264194   2.884   6.610   5.141  0.5239 -0.3040 -0.4994
14260TIP3    H164195   2.875   6.699   5.174 -2.1241 -0.0527 -1.6950
14260TIP3    H264196   2.928   6.562   5.211  0.9563  1.6585  0.6270
14261TIP3   OH264197   2.694   0.524  15.625  0.2673 -0.4644 -0.1754
14261TIP3    H164198   2.639   0.584  15.574  1.1048 -0.1560 -0.7346
14261TIP3    H264199   2.752   0.581  15.675  0.5775 -0.7926 -0.1531
14262TIP3   OH264200   6.200   2.163  12.987 -0.0061 -0.1845 -0.3394
14262TIP3    H164201   6.215   2.091  13.049  0.8120  0.1264 -0.1660
14262TIP3    H264202   6.266   2.228  13.010 -0.2719  0.3135 -0.9708
14263TIP3   OH264203   1.100   2.757  11.430  0.9655 -0.4533  0.0824
14263TIP3    H164204   1.084   2.760  11.335  0.2667  1.7726  0.2263
14263TIP3    H264205   1.124   2.846  11.453  0.6075 -0.8462  2.1037
14264TIP3   OH264206   1.204   2.527   2.396 -0.1659 -0.0714  0.2984
14264TIP3    H164207   1.291   2.495   2.371  0.2264  0.8538  0.4203
14264TIP3    H264208   1.221   2.587   2.468 -0.6708  1.5935 -0.8994
14265TIP3   OH264209   3.945   6.078  16.017  0.2059 -0.0197  0.2084
14265TIP3    H164210   3.881   6.146  16.038 -0.5505 -0.7077  0.2166
14265TIP3    H264211   4.015   6.090  16.080 -0.5497 -0.0845  1.0787
14266TIP3   OH264212   5.312   2.522  16.259  0.3969 -0.0842  0.4788
14266TIP3    H164213   5.273   2.445  16.218 -0.2901  0.3822  0.2511
14266TIP3    H264214   5.259   2.537  16.338  0.8355 -0.1354  0.7911
14267TIP3   OH264215   3.689   3.967   2.675  0.5685 -0.3791  0.3516
14267TIP3    H164216   3.609   3.914   2.676  0.3721 -0.0750  0.7298
14267TIP3    H264217   3.754   3.910   2.633 -0.7152  0.6365 -3.4370
14268TIP3   OH264218   6.617   0.034   6.481  0.0780  0.2802 -0.0551
14268TIP3    H164219   6.690   0.034   6.543  1.2300  0.7857 -1.3715
14268TIP3    H264220   6.646   0.090   6.409 -1.7045  0.6850 -0.5157
14269TIP3   OH264221   5.702   3.790  12.323 -0.5303  0.0727  0.2831
14269TIP3    H164222   5.645   3.713  12.323  1.0986 -1.1900 -0.4014
14269TIP3    H264223   5.647   3.860  12.359 -2.1867 -1.2932  0.5654
14270TIP3   OH264224   3.553   0.519  16.472  0.0607  0.1278 -0.0950
14270TIP3    H164225   3.534   0.609  16.448 -1.2938 -0.3149 -0.8066
14270TIP3    H264226   3.481   0.494  16.530 -1.4426 -1.4802 -2.4906
14271TIP3   OH264227   5.182   1.084  15.000  0.3946  0.1696  0.6568
14271TIP3    H164228   5.136   1.059  15.080  1.3561 -0.0672  1.1397
14271TIP3    H264229   5.223   1.003  14.969 -1.5905 -0.2284 -1.1969
14272TIP3   OH264230   6.488   5.023   0.294 -0.3756 -0.5197  0.0580
14272TIP3    H164231   6.540   4.943   0.293 -0.4643 -0.5831 -0.7402
14272TIP3    H264232   6.440   5.021   0.211  0.5251  0.9438 -0.5345
14273TIP3   OH264233   5.417   6.599   2.469  0.1236  0.0057  0.3870
14273TIP3    H164234   5.340   6.549   2.442 -0.6306  1.3572 -0.0545
14273TIP3    H264235   5.381   6.681   2.503  1.3728  0.6592  0.1868
14274TIP3   OH264236   5.346   5.417  15.544  0.0212 -0.1736 -0.2024
14274TIP3    H164237   5.358   5.501  15.500 -2.8007 -0.6261 -2.0578
14274TIP3    H264238   5.335   5.440  15.637 -0.5445  1.4812 -0.6487
14275TIP3   OH264239   1.229   0.580  12.178  0.1913  0.2901 -0.1961
14275TIP3    H164240   1.170   0.654  12.166 -0.0387  0.3180  0.9809
14275TIP3    H264241   1.249   0.579  12.271  2.2170  0.3884 -0.5771
14276TIP3   OH264242   2.071   1.370   5.149  0.3086  0.4323 -0.3318
14276TIP3    H164243   2.073   1.391   5.243  1.2036 -1.0755  0.0093
14276TIP3    H264244   2.046   1.453   5.107 -1.5678  0.7726  1.3213
14277TIP3   OH264245   4.860   0.179  16.561  0.0711 -0.1873 -0.0130
14277TIP3    H164246   4.935   0.204  16.507 -0.2223 -0.7998 -0.7218
14277TIP3    H264247   4.842   0.088  16.536 -3.8030  1.2147 -3.3927
14278TIP3   OH264248   1.771   0.277  13.643 -0.1451 -0.2293  0.4482
14278TIP3    H164249   1.827   0.271  13.720  1.5704  0.2467 -0.6995
14278TIP3    H264250   1.698   0.333  13.671  1.3819  1.4791  1.2159
14279TIP3   OH264251   0.456   3.885  16.797 -0.0570  0.4907  0.3817
14279TIP3    H164252   0.438   3.877  16.891 -2.7967 -0.5051 -0.1351
14279TIP3    H264253   0.413   3.809  16.758 -0.1861  1.6179 -1.8148
14280TIP3   OH264254   6.239   5.997  14.308  0.2189  0.1550  0.1689
14280TIP3    H164255   6.276   5.934  14.246  1.8175  1.3811 -0.1979
14280TIP3    H264256   6.233   6.079  14.258  0.5415  0.9062  1.3202
14281TIP3   OH264257   3.628   1.476   2.173 -0.6952  0.4801  0.5769
14281TIP3    H164258   3.618   1.384   2.151 -1.4696  0.6773  0.0824
14281TIP3    H264259   3.601   1.482   2.265 -0.6335  0.2118  0.6107
14282TIP3   OH264260   3.273   5.864  16.001  0.9803 -0.0919 -0.4181
14282TIP3    H164261   3.277   5.959  15.987  1.4925  0.3306  2.1560
14282TIP3    H264262   3.217   5.832  15.930 -0.6250  2.3497 -0.3629
14283TIP3   OH264263   4.757   1.024  16.610 -0.0181  0.3251  0.0094
14283TIP3    H164264   4.851   1.010  16.627 -0.0246 -1.1283 -0.9720
14283TIP3    H264265   4.716   0.940  16.633 -0.9075  0.5365 -0.7577
14284TIP3   OH264266   4.274   3.799  17.520 -0.0684  0.5634  0.3545
14284TIP3    H164267   4.352   3.818  17.573  0.9686 -0.1683 -0.8742
14284TIP3    H264268   4.243   3.715  17.552  0.6678  0.0315 -0.3113
14285TIP3   OH264269   3.580   2.954   5.280  0.3253  0.5811 -0.7102
14285TIP3    H164270   3.626   3.020   5.332  1.1120  1.1451 -2.0681
14285TIP3    H264271   3.582   2.875   5.335 -0.5920  1.6471  0.9091
14286TIP3   OH264272   1.442   5.637   2.985  0.3666  0.5298  0.2148
14286TIP3    H164273   1.383   5.679   3.048 -0.6351 -0.4577 -0.0255
14286TIP3    H264274   1.518   5.612   3.037 -0.9805 -1.4276  1.4047
14287TIP3   OH264275   6.238   5.465  14.424  0.1980 -0.5375  0.3061
14287TIP3    H164276   6.150   5.491  14.397 -0.4618 -1.4168  1.4940
14287TIP3    H264277   6.269   5.407  14.355 -1.3059 -2.4664  1.1424
14288TIP3   OH264278   1.464   1.834  11.888  0.0447 -0.4899 -0.1130
14288TIP3    H164279   1.380   1.833  11.934 -1.3802 -1.5122 -2.5344
14288TIP3    H264280   1.464   1.916  11.839  1.1733  0.2050  0.9932
14289TIP3   OH264281   5.003   3.390  15.509 -0.2109 -0.5704  0.0689
14289TIP3    H164282   5.046   3.378  15.424 -1.4241 -0.8846 -0.5195
14289TIP3    H264283   5.075   3.390  15.572  1.2197  3.6157 -1.2257
14290TIP3   OH264284   6.570   0.150  11.282  0.0240  0.6203  0.2374
14290TIP3    H164285   6.625   0.106  11.347  0.4070  0.2250 -0.3486
14290TIP3    H264286   6.482   0.147  11.319  0.0594 -0.5541  0.2475
14291TIP3   OH264287   4.931   6.644  13.931  0.2356  0.1726 -0.1008
14291TIP3    H164288   5.005   6.704  13.939  0.9052 -0.6949  0.3695
14291TIP3    H264289   4.935   6.589  14.010  0.3326 -1.2373 -1.0379
14292TIP3   OH264290   0.338   1.183   1.259  0.0330 -0.5201 -0.3682
14292TIP3    H164291   0.330   1.271   1.222 -0.3054 -0.0971  0.6841
14292TIP3    H264292   0.315   1.124   1.187  0.2948  0.2482 -1.0869
14293TIP3   OH264293   6.292   3.000   4.305  0.3091 -0.2345  0.4058
14293TIP3    H164294   6.262   2.979   4.217 -2.6100  0.2009  1.1665
14293TIP3    H264295   6.244   2.940   4.362 -2.5760  3.2109  2.0468
14294TIP3   OH264296   2.321   3.342   2.234 -0.2679 -0.0841 -0.4344
14294TIP3    H164297   2.415   3.351   2.217  0.1889 -1.6121  1.0234
14294TIP3    H264298   2.289   3.432   2.238  1.2768  0.4982 -0.2419
14295TIP3   OH264299   5.279   0.444   1.130 -0.3606  0.7313 -0.3882
14295TIP3    H164300   5.307   0.392   1.054 -1.6755 -0.6837  0.0555
14295TIP3    H264301   5.272   0.534   1.096 -0.9440  0.1287 -1.9634
14296TIP3   OH264302   0.929   0.260   4.821  0.2176  0.1021 -0.5562
14296TIP3    H164303   0.883   0.184   4.856 -0.5538  0.9575  0.3188
14296TIP3    H264304   1.002   0.223   4.772  1.0111 -1.1512  1.4793
14297TIP3   OH264305   6.472   2.050   4.426 -0.2309  0.4400  0.2660
14297TIP3    H164306   6.479   1.993   4.502  0.0488  0.8362  0.5488
14297TIP3    H264307   6.562   2.081   4.412 -0.4882  1.3458  0.5461
14298TIP3   OH264308   6.701   5.633   5.349  0.3071  0.5822 -0.5758
14298TIP3    H164309   6.668   5.645   5.438 -1.2614  0.4420 -1.1004
14298TIP3    H264310   6.703   5.722   5.312  2.3003  0.8197  0.0113
14299TIP3   OH264311   1.464   2.291   0.309  0.0981  0.0252  0.4350
14299TIP3    H164312   1.536   2.233   0.282 -0.1250  0.1739 -0.5335
14299TIP3    H264313   1.498   2.338   0.385  0.8025 -0.3584  0.3665
14300TIP3   OH264314   6.673   0.618   0.543 -0.2067 -0.3527 -0.0547
14300TIP3    H164315   6.713   0.614   0.456 -0.8633  1.3656 -0.4663
14300TIP3    H264316   6.654   0.526   0.564  0.2356 -0.8346 -1.5836
14301TIP3   OH264317   5.112   5.726  14.969 -0.3564  0.2802  0.0236
14301TIP3    H164318   5.178   5.761  14.909 -1.8565  1.1464 -1.2268
14301TIP3    H264319   5.066   5.659  14.918 -2.1913  1.5953 -0.1774
14302TIP3   OH264320   6.606   0.831  16.683 -0.1578 -0.6149 -0.6941
14302TIP3    H164321   6.640   0.901  16.738 -2.0693 -1.6468  1.9954
14302TIP3    H264322   6.520   0.863  16.655  0.0120 -0.8940 -1.5780
14303TIP3   OH264323   5.980   2.753  13.272  0.1915  0.1034 -0.1480
14303TIP3    H164324   5.896   2.711  13.254  0.4181  0.0139 -1.0812
14303TIP3    H264325   6.020   2.763  13.185  1.4335 -0.4589  0.3416
14304TIP3   OH264326   0.563   2.757  15.741 -0.2945 -0.4243  0.5399
14304TIP3    H164327   0.585   2.839  15.786 -0.8359  0.4286 -0.6899
14304TIP3    H264328   0.628   2.694  15.772  0.9456  0.8166  0.5320
14305TIP3   OH264329   3.336   1.463  13.184 -0.0361  0.0762  0.0272
14305TIP3    H164330   3.261   1.486  13.239  0.7602  0.9702  0.7645
14305TIP3    H264331   3.342   1.368  13.190  0.2972  0.1958  1.8363
14306TIP3   OH264332   3.564   5.875   0.683  0.0942 -0.3038 -0.1828
14306TIP3    H164333   3.523   5.895   0.599  0.9275 -2.0256 -1.0693
14306TIP3    H264334   3.493   5.838   0.736 -0.2230 -0.1772 -0.5168
14307TIP3   OH264335   3.526   1.533   4.708 -0.4727 -0.1507 -0.0529
14307TIP3    H164336   3.604   1.510   4.658  0.4875 -1.4987  1.9543
14307TIP3    H264337   3.453   1.519   4.647  0.6160 -1.8406 -1.0353
14308TIP3   OH264338   2.394   4.814  15.753 -0.5004  0.2466 -0.3899
14308TIP3    H164339   2.374   4.760  15.829 -1.3856  1.7970  0.5411
14308TIP3    H264340   2.351   4.898  15.771  2.5587  2.0496 -0.7137
14309TIP3   OH264341   5.431   3.034  11.727  0.4077  0.5770 -0.1550
14309TIP3    H164342   5.383   2.997  11.653 -0.9375  0.5545  0.6920
14309TIP3    H264343   5.469   3.115  11.694 -1.7493  1.5510 -0.4161
14310TIP3   OH264344   6.041   0.644  16.100 -0.8209 -0.6775 -0.2422
14310TIP3    H164345   5.965   0.595  16.070 -1.0362 -0.2473 -0.4144
14310TIP3    H264346   6.021   0.735  16.077 -0.3265 -0.5419 -0.1428
14311TIP3   OH264347   0.604   5.988   1.998  0.0851 -0.0688  0.0491
14311TIP3    H164348   0.532   5.958   2.053 -0.7780  1.3975 -0.2201
14311TIP3    H264349   0.683   5.970   2.048 -0.6738  1.3410  1.8704
14312TIP3   OH264350   0.073   0.559  13.075 -0.1867 -0.5211 -0.1787
14312TIP3    H164351   0.013   0.602  13.014 -0.6518 -0.6897  0.1555
14312TIP3    H264352   0.064   0.609  13.157 -0.2246 -0.8336  0.0093
14313TIP3   OH264353   4.909   3.617   4.584  0.2630 -0.4376 -0.1313
14313TIP3    H164354   4.945   3.584   4.502 -1.4008 -1.0365 -0.6566
14313TIP3    H264355   4.817   3.590   4.583 -0.4489  1.7523  0.7466
14314TIP3   OH264356   2.018   2.182   2.287  0.0488 -0.6470  0.7486
14314TIP3    H164357   1.957   2.255   2.286  0.2414 -0.4861  0.6777
14314TIP3    H264358   1.990   2.128   2.361  0.4836 -0.0035  1.3989
14315TIP3   OH264359   5.337   2.925   0.787 -0.6095  0.0840  0.0245
14315TIP3    H164360   5.401   2.993   0.763 -1.3327  0.3101 -1.3692
14315TIP3    H264361   5.361   2.850   0.734  0.3498 -0.8967  1.7549
14316TIP3   OH264362   3.189   3.328  15.126 -0.1886  0.2720 -0.0060
14316TIP3    H164363   3.134   3.257  15.091 -0.6245 -0.1891  1.5321
14316TIP3    H264364   3.130   3.378  15.182  0.1165  1.8803 -1.0799
14317TIP3   OH264365   0.154   2.870  13.912 -0.2142  0.4556  0.4494
14317TIP3    H164366   0.246   2.879  13.936 -0.6442  0.7481  2.0931
14317TIP3    H264367   0.108   2.862  13.996 -1.6812  0.2536 -0.3455
14318TIP3   OH264368   5.928   5.384  13.396  0.4992  0.1611 -0.4152
14318TIP3    H164369   5.843   5.391  13.440  1.2738 -0.6995  1.3287
14318TIP3    H264370   5.951   5.291  13.404  1.4429  0.3094 -1.2089
14319TIP3   OH264371   3.070   1.581  15.664  0.2195  0.7862 -0.0119
14319TIP3    H164372   3.117   1.661  15.641 -0.5121  0.9341 -1.0699
14319TIP3    H264373   2.985   1.590  15.621  0.0550 -0.4761  0.0088
14320TIP3   OH264374   2.068   0.125  13.017 -0.7872 -0.5003 -0.2890
14320TIP3    H164375   2.028   0.135  13.104 -2.2952 -0.8714 -0.9265
14320TIP3    H264376   2.161   0.147  13.032 -1.2663  0.7649  1.1426
14321TIP3   OH264377   4.328   3.994   0.732 -0.8200 -0.3122 -0.1249
14321TIP3    H164378   4.245   3.951   0.755 -0.3470 -1.0973  0.1241
14321TIP3    H264379   4.379   3.926   0.688  0.1376 -0.1683  0.7362
14322TIP3   OH264380   6.699   6.701   0.764  0.2360  0.6527  0.2966
14322TIP3    H164381   6.687   6.795   0.759  0.6880  0.8038  1.6539
14322TIP3    H264382   6.620   6.668   0.808  0.3059  0.4653  0.2854
14323TIP3   OH264383   0.985   2.141  14.389 -0.1664 -0.5571  0.0157
14323TIP3    H164384   0.929   2.064  14.393  0.6603 -1.1462  0.6077
14323TIP3    H264385   0.997   2.167  14.481 -0.6464  0.4410 -0.1893
14324TIP3   OH264386   1.574   3.775   6.001 -0.1368  0.1444  0.1315
14324TIP3    H164387   1.642   3.820   6.051 -0.0453  0.1990 -0.0402
14324TIP3    H264388   1.597   3.683   6.006 -0.8377  0.0134  1.2605
14325TIP3   OH264389   5.880   0.581  12.988 -0.1463  0.1536 -0.3894
14325TIP3    H164390   5.800   0.534  12.963 -0.6221 -0.4665  2.0066
14325TIP3    H264391   5.951   0.524  12.959 -0.6680 -0.7003 -0.0529
14326TIP3   OH264392   1.517   3.873  13.572  0.4942  0.5775  0.0671
14326TIP3    H164393   1.484   3.818  13.501 -2.8467 -0.1374  1.9567
14326TIP3    H264394   1.517   3.962  13.536  0.4511  0.0508 -1.2823
14327TIP3   OH264395   0.775   0.892   3.525 -0.1694  0.1375  0.4276
14327TIP3    H164396   0.749   0.971   3.478 -0.9349 -0.6163 -0.4584
14327TIP3    H264397   0.729   0.897   3.609  0.5710  1.1049  0.7847
14328TIP3   OH264398   5.178   6.470   1.003 -0.3642  0.0394  0.2801
14328TIP3    H164399   5.139   6.435   0.923  0.7919  0.1228 -0.3442
14328TIP3    H264400   5.136   6.555   1.015 -0.2531  0.2084 -0.4746
14329TIP3   OH264401   5.535   1.508   4.494  0.2601 -0.0757  0.3530
14329TIP3    H164402   5.545   1.477   4.584 -1.2363  0.8371  0.8774
14329TIP3    H264403   5.582   1.592   4.493 -0.3706  0.2845  0.5127
14330TIP3   OH264404   1.272   1.069  15.515  0.5041 -0.2283  0.6059
14330TIP3    H164405   1.367   1.072  15.500  1.2777 -0.9401  4.3252
14330TIP3    H264406   1.259   1.119  15.595 -2.0832 -1.3158  0.9668
14331TIP3   OH264407   1.988   5.746  16.562  0.2237 -0.1120 -0.1931
14331TIP3    H164408   1.970   5.662  16.520 -1.4026  0.5992 -0.9968
14331TIP3    H264409   1.970   5.811  16.494  0.1086  0.9487  0.8190
14332TIP3   OH264410   0.778   4.594   4.852  0.1441 -0.8216 -0.0829
14332TIP3    H164411   0.847   4.658   4.869 -0.3926 -0.4010  0.5710
14332TIP3    H264412   0.740   4.621   4.768  0.7082 -0.9981 -0.3955
14333TIP3   OH264413   2.931   4.090  13.064 -0.9082  0.5623  0.0011
14333TIP3    H164414   2.877   4.142  13.123 -0.7980  1.7758 -0.9256
14333TIP3    H264415   2.881   4.086  12.982  0.7628  2.5902 -1.2316
14334TIP3   OH264416   1.594   5.850  16.740  0.4419 -0.3144  0.3024
14334TIP3    H164417   1.527   5.870  16.806 -1.4702 -0.1136 -1.5970
14334TIP3    H264418   1.664   5.808  16.790 -0.8853 -0.1394  2.4652
14335TIP3   OH264419   5.398   5.188  13.947 -0.2391  0.7759 -0.2291
14335TIP3    H164420   5.382   5.245  14.022 -0.4281  0.8922 -0.3571
14335TIP3    H264421   5.319   5.134  13.942 -0.5767  1.3153 -0.8361
14336TIP3   OH264422   1.433   0.685   3.852 -0.3669 -0.7279  0.5121
14336TIP3    H164423   1.485   0.763   3.872 -0.8455 -0.2043 -0.2274
14336TIP3    H264424   1.386   0.708   3.772 -2.2595 -0.9470  1.5300
14337TIP3   OH264425   2.884   1.098  17.493  0.3121  0.6134 -0.0045
14337TIP3    H164426   2.885   1.004  17.510  0.5585  0.7661  0.8271
14337TIP3    H264427   2.878   1.139  17.579 -1.2022  1.3442 -0.4075
14338TIP3   OH264428   5.079   0.870   4.195 -0.3478 -0.5223  0.3726
14338TIP3    H164429   5.160   0.886   4.243 -0.5200 -0.8613  0.7779
14338TIP3    H264430   5.104   0.809   4.126  0.0551  0.5268 -0.4423
14339TIP3   OH264431   1.371   4.784  17.511 -0.0075  0.2291 -0.6297
14339TIP3    H164432   1.466   4.772  17.512  0.5203  3.1971 -2.1541
14339TIP3    H264433   1.352   4.830  17.592  0.3241  1.8315 -1.4115
14340TIP3   OH264434   1.524   2.458  10.939  0.2654 -0.0898  0.5075
14340TIP3    H164435   1.551   2.447  11.030  1.1845 -0.8235  0.1618
14340TIP3    H264436   1.529   2.370  10.901 -0.2116  0.1854 -0.2212
14341TIP3   OH264437   2.633   6.016   1.159 -0.2865 -0.3358  0.0297
14341TIP3    H164438   2.636   5.977   1.071 -1.7344  0.5374 -0.4441
14341TIP3    H264439   2.585   6.098   1.147 -1.4500 -0.7036  1.8224
14342TIP3   OH264440   0.690   6.268   4.739  0.4678 -0.2110  0.0931
14342TIP3    H164441   0.610   6.319   4.724  0.5634 -0.3594 -0.9618
14342TIP3    H264442   0.759   6.320   4.699  1.2177  0.7379  2.4125
14343TIP3   OH264443   2.055   1.096  15.730  0.1717 -0.4427 -0.3106
14343TIP3    H164444   2.052   1.022  15.790  1.2225 -0.3283 -0.0905
14343TIP3    H264445   2.101   1.165  15.779  1.2795 -0.4318 -1.3114
14344TIP3   OH264446   3.695   6.434   0.165 -0.2308  0.2582 -0.2687
14344TIP3    H164447   3.707   6.340   0.179 -0.1485  0.1532 -0.9792
14344TIP3    H264448   3.784   6.470   0.172 -0.2300  0.2489 -0.2313
14345TIP3   OH264449   1.977   2.504   4.392  0.2557  0.0239  0.4022
14345TIP3    H164450   1.998   2.480   4.483  0.8902  0.3104  0.3385
14345TIP3    H264451   1.921   2.432   4.361  1.3854 -0.9309  0.5007
14346TIP3   OH264452   0.711   0.053  14.813 -0.0269 -0.0615  0.2211
14346TIP3    H164453   0.753   0.094  14.738  0.8658 -0.0060  0.7295
14346TIP3    H264454   0.641   0.000  14.776  0.1563  0.2631 -0.6121
14347TIP3   OH264455   3.099   4.560   5.176  0.1999  0.2943  0.2101
14347TIP3    H164456   3.040   4.630   5.205  0.3804  0.2246  0.7467
14347TIP3    H264457   3.096   4.495   5.246 -1.9135 -1.4550 -1.3367
14348TIP3   OH264458   4.903   6.162   5.685  0.0098  0.2324 -0.1386
14348TIP3    H164459   4.946   6.245   5.667 -0.6655  0.3480 -1.2899
14348TIP3    H264460   4.974   6.098   5.686  0.2103  0.3435 -2.5267
14349TIP3   OH264461   3.788   2.789  15.739 -0.3732 -0.0336 -0.0312
14349TIP3    H164462   3.753   2.858  15.795  0.5234  0.0737  0.4299
14349TIP3    H264463   3.718   2.770  15.677 -1.7177 -0.7232  1.6149
14350TIP3   OH264464   1.777   0.662  16.931  0.2244 -0.3062  0.0893
14350TIP3    H164465   1.763   0.673  16.837  0.0307  1.5817  0.2931
14350TIP3    H264466   1.722   0.587  16.955  1.6520 -1.9571 -1.5634
14351TIP3   OH264467   0.432   0.732   3.237 -0.4249 -0.0018 -0.0999
14351TIP3    H164468   0.376   0.655   3.253 -0.6978 -0.0117 -1.0386
14351TIP3    H264469   0.385   0.804   3.278  0.4358 -0.5006  1.8945
14352TIP3   OH264470   0.951   3.532  13.745  0.2718 -0.3829  0.8219
14352TIP3    H164471   0.878   3.485  13.784  0.9791 -1.9175  0.3748
14352TIP3    H264472   0.909   3.596  13.686 -0.7109 -0.7300  1.1184
14353TIP3   OH264473   6.047   6.013  13.038 -0.0639 -0.1100  0.4180
14353TIP3    H164474   6.040   6.106  13.056 -0.5362 -0.3923  1.8183
14353TIP3    H264475   6.002   5.970  13.111 -0.2806 -1.4266 -0.4370
14354TIP3   OH264476   6.546   6.568   1.840 -0.0263  0.8996  0.0984
14354TIP3    H164477   6.590   6.597   1.760  0.5106 -0.3391 -0.0739
14354TIP3    H264478   6.455   6.555   1.814  0.2588 -0.0204 -0.4553
14355TIP3   OH264479   1.942   0.623  13.641 -0.5458  0.5302 -0.1519
14355TIP3    H164480   1.920   0.530  13.648 -2.3857  0.9028 -0.2647
14355TIP3    H264481   2.000   0.641  13.714  1.1788 -1.0379 -1.0695
14356TIP3   OH264482   4.697   3.651   2.455  0.1796  0.0412 -0.1309
14356TIP3    H164483   4.772   3.705   2.479  0.4904  1.0099 -2.9290
14356TIP3    H264484   4.621   3.705   2.476  0.3118 -0.1159  0.8069
14357TIP3   OH264485   1.946   1.541   2.094 -0.1138 -0.2875  0.1714
14357TIP3    H164486   2.017   1.522   2.155  0.2544  0.7439  0.0756
14357TIP3    H264487   1.946   1.466   2.034  0.0474 -0.9160  0.9365
14358TIP3   OH264488   6.231   6.295  12.070  0.2867  0.5170  0.3258
14358TIP3    H164489   6.229   6.278  11.976 -0.6112  1.2130  0.2022
14358TIP3    H264490   6.217   6.390  12.077 -0.3039  0.3739  1.1825
14359TIP3   OH264491   6.363   2.879   0.094  0.3677 -0.4080 -0.2353
14359TIP3    H164492   6.365   2.946   0.025 -2.9347  0.6893  0.5792
14359TIP3    H264493   6.425   2.910   0.159 -1.3273  2.1590  0.2786
14360TIP3   OH264494   2.755   5.701  13.311 -0.1235  0.2299  0.0087
14360TIP3    H164495   2.841   5.684  13.274  0.8839  0.1945  2.1938
14360TIP3    H264496   2.715   5.614  13.321 -0.3193  0.2267 -0.7726
14361TIP3   OH264497   0.045   4.782  13.518  0.5310 -0.2047  0.4672
14361TIP3    H164498   0.085   4.869  13.509 -1.0340  0.6209  1.1353
14361TIP3    H264499  -0.043   4.799  13.551 -0.8612 -1.8552 -2.0622
14362TIP3   OH264500   4.223   1.290  15.416 -0.2368  0.4591  0.4356
14362TIP3    H164501   4.159   1.316  15.483  1.5768  2.3358  1.5824
14362TIP3    H264502   4.209   1.196  15.404 -1.5131  0.3248  2.4791
14363TIP3   OH264503   5.716   1.655  16.669 -0.1497  0.2691  0.1978
14363TIP3    H164504   5.735   1.728  16.728 -0.2112  0.0980  0.4291
14363TIP3    H264505   5.800   1.634  16.629  0.1792 -0.5817  1.3294
14364TIP3   OH264506   2.100   5.377  17.449  0.2089 -0.2335 -0.6995
14364TIP3    H164507   2.161   5.375  17.523 -0.1004 -2.1296 -0.4517
14364TIP3    H264508   2.157   5.387  17.373  0.6277  0.5462 -0.2965
14365TIP3   OH264509   6.642   5.656   4.611  0.2601 -0.1371  0.5864
14365TIP3    H164510   6.683   5.616   4.688 -0.0039 -0.4438  0.5667
14365TIP3    H264511   6.709   5.653   4.543  0.1399 -0.8426  0.4879
14366TIP3   OH264512   0.440   0.842   0.325  0.2089  0.3190  0.2781
14366TIP3    H164513   0.414   0.898   0.252  1.5686  1.2913  0.5061
14366TIP3    H264514   0.363   0.840   0.382 -0.9786 -0.6789 -1.2725
14367TIP3   OH264515   0.230   1.533  14.472 -0.1505 -0.6068  0.0171
14367TIP3    H164516   0.271   1.471  14.533  0.0457 -0.6363 -0.1430
14367TIP3    H264517   0.177   1.590  14.527  1.6621  0.7028  0.4876
14368TIP3   OH264518   5.411   5.733  16.295  0.0969  0.0473  0.3738
14368TIP3    H164519   5.467   5.768  16.225 -0.6263 -1.7336 -1.1750
14368TIP3    H264520   5.471   5.687  16.353  0.9774  3.0766  2.0848
14369TIP3   OH264521   6.497   2.783   1.905 -0.1444 -0.0792  0.2694
14369TIP3    H164522   6.568   2.775   1.842  1.1453 -0.9781  1.7701
14369TIP3    H264523   6.419   2.755   1.857  0.5431  0.5488 -1.2925
14370TIP3   OH264524   5.945   2.909  11.119 -0.5915  0.3214  0.2662
14370TIP3    H164525   5.901   2.994  11.127  0.1874  0.7825 -0.2233
14370TIP3    H264526   5.987   2.896  11.204 -2.9377 -0.8921  1.3490
14371TIP3   OH264527   2.003   1.405   5.417 -0.2153 -0.2898 -0.1664
14371TIP3    H164528   2.080   1.354   5.442 -0.4638  0.1131  1.5452
14371TIP3    H264529   2.007   1.483   5.471 -1.9451 -0.3813  0.1608
14372TIP3   OH264530   0.028   4.975  17.386 -0.5317  0.1961 -0.0522
14372TIP3    H164531  -0.024   5.026  17.448  0.6892  0.2490  0.9636
14372TIP3    H264532   0.004   4.884  17.404 -0.7355  0.2584 -0.0115
14373TIP3   OH264533   4.046   6.245  16.755  0.2644 -0.2893  0.2790
14373TIP3    H164534   4.011   6.305  16.690  0.9603 -0.4991 -0.3021
14373TIP3    H264535   3.973   6.188  16.777  0.1387 -0.5144 -0.6686
14374TIP3   OH264536   3.174   1.769   5.667 -0.3488 -0.0068  0.2493
14374TIP3    H164537   3.196   1.859   5.694  0.7888 -0.6819  1.7498
14374TIP3    H264538   3.085   1.775   5.633  0.3847  2.0440 -1.5584
14375TIP3   OH264539   3.565   3.731   5.767 -0.2948 -0.5104 -0.3491
14375TIP3    H164540   3.639   3.780   5.802 -0.5683 -0.2931 -0.0664
14375TIP3    H264541   3.488   3.771   5.808 -0.5846 -0.6052 -0.7921
14376TIP3   OH264542   1.860   4.272  14.045 -0.0492 -0.4583  0.5703
14376TIP3    H164543   1.814   4.281  14.129 -1.0767  2.5154 -0.1634
14376TIP3    H264544   1.789   4.264  13.980  0.6653 -0.8557 -0.1748
14377TIP3   OH264545   3.070   5.870   4.164  0.1522 -0.3174 -0.3522
14377TIP3    H164546   3.030   5.906   4.085  0.8098 -1.2834 -1.1527
14377TIP3    H264547   3.000   5.870   4.229 -0.9958 -1.3841 -1.5270
14378TIP3   OH264548   2.271   4.514   5.131  0.6207  0.4385  0.3539
14378TIP3    H164549   2.340   4.454   5.158 -1.1183 -1.7509  0.2100
14378TIP3    H264550   2.269   4.581   5.200  3.1786  0.9109  0.0628
14379TIP3   OH264551   4.535   1.431  12.397  0.2901 -0.1957 -0.1554
14379TIP3    H164552   4.501   1.451  12.310  0.1295 -1.0029 -0.2799
14379TIP3    H264553   4.624   1.399  12.381  0.1906 -0.5290 -0.0352
14380TIP3   OH264554   2.048   5.553   0.545 -0.2713  0.3061  0.2649
14380TIP3    H164555   1.976   5.540   0.483  0.5951 -0.3211 -0.6252
14380TIP3    H264556   2.043   5.478   0.604  1.6309 -1.5704 -1.8068
14381TIP3   OH264557   2.202   3.172  16.183  0.9543 -0.6719  0.1520
14381TIP3    H164558   2.113   3.179  16.218  0.7566 -0.6991 -0.3294
14381TIP3    H264559   2.229   3.263  16.169  0.2158 -0.6676 -1.6007
14382TIP3   OH264560   4.658   4.020   4.276 -0.2387  0.4365 -0.1052
14382TIP3    H164561   4.736   3.998   4.327  0.6395  0.7653 -1.2421
14382TIP3    H264562   4.647   3.945   4.217 -0.3924  0.6760 -0.3820
14383TIP3   OH264563   6.080   4.725   0.777 -0.2170 -0.9341  0.2340
14383TIP3    H164564   6.013   4.700   0.714 -1.8448 -1.0217  1.8976
14383TIP3    H264565   6.101   4.816   0.755 -0.3569 -1.1320 -0.7588
14384TIP3   OH264566   4.943   6.226  14.575 -0.1750  0.3303 -0.1293
14384TIP3    H164567   4.890   6.164  14.625 -0.6023  0.9021  0.1360
14384TIP3    H264568   4.926   6.203  14.484  0.6152 -0.7235 -0.0242
14385TIP3   OH264569   4.836   5.348   2.014  0.5521 -0.3541  0.6627
14385TIP3    H164570   4.820   5.261   2.051 -1.0268  0.6175  2.3645
14385TIP3    H264571   4.842   5.406   2.090  0.4014  1.2162 -0.4857
14386TIP3   OH264572   4.493   5.934   5.965  0.3814 -0.2379  0.6350
14386TIP3    H164573   4.415   5.964   6.011  1.0512  0.2590  1.4737
14386TIP3    H264574   4.541   6.015   5.945 -0.2520 -0.3669 -1.6321
14387TIP3   OH264575   1.949   3.110   6.221 -0.0102 -0.1427 -0.2592
14387TIP3    H164576   1.909   3.051   6.284 -1.8180 -0.9416 -2.0453
14387TIP3    H264577   2.021   3.061   6.183  0.0591 -0.2628  0.0306
14388TIP3   OH264578   1.766   2.000   1.371 -0.7013 -0.2890  0.0923
14388TIP3    H164579   1.748   1.910   1.400  1.2092  0.0940  2.9030
14388TIP3    H264580   1.861   2.008   1.378 -0.7050  1.5825 -1.4230
14389TIP3   OH264581   3.663   4.208  12.980  0.8257 -0.2649  0.0449
14389TIP3    H164582   3.664   4.213  13.076  0.5138 -0.0561  0.0399
14389TIP3    H264583   3.658   4.299  12.951  1.4376 -0.3034 -0.1820
14390TIP3   OH264584   0.234   0.505  12.739 -0.3947  0.0986 -0.3443
14390TIP3    H164585   0.144   0.482  12.719  0.0674 -1.7740 -0.4212
14390TIP3    H264586   0.260   0.444  12.808  1.4292 -0.8064 -1.7388
14391TIP3   OH264587   0.239   0.055  12.757 -0.0930  0.0208  0.6303
14391TIP3    H164588   0.186   0.018  12.687 -1.2742  2.3096  0.2176
14391TIP3    H264589   0.176   0.084  12.822  0.8125  0.4748  1.3237
14392TIP3   OH264590   1.487   2.136   3.746 -0.1954  0.2456 -0.0476
14392TIP3    H164591   1.572   2.109   3.779 -1.5095 -0.7129  2.9216
14392TIP3    H264592   1.460   2.065   3.687  1.1598  0.7627 -1.3524
14393TIP3   OH264593   0.987   1.140  13.831 -0.1162  0.3033 -0.0256
14393TIP3    H164594   1.077   1.133  13.799 -0.3863 -0.0415 -0.7295
14393TIP3    H264595   0.991   1.207  13.899  0.8234 -0.2727  0.5140
14394TIP3   OH264596   2.716   1.568  11.766  0.3716  0.4098  0.3714
14394TIP3    H164597   2.643   1.626  11.743 -1.0411 -1.5917 -0.5231
14394TIP3    H264598   2.677   1.500  11.821  1.6710 -0.4278  0.3131
14395TIP3   OH264599   1.889   4.169   5.786  0.6093  0.6686 -0.1622
14395TIP3    H164600   1.843   4.089   5.758  1.0260  0.1327  0.6446
14395TIP3    H264601   1.847   4.193   5.869  1.6871  0.2268  0.5415
14396TIP3   OH264602   2.723   5.866   5.175  0.2388  0.6129  0.2735
14396TIP3    H164603   2.799   5.924   5.179 -0.6068  1.6713  1.8779
14396TIP3    H264604   2.662   5.910   5.116  0.6639 -0.0278 -0.6749
14397TIP3   OH264605   0.285   5.091  14.961 -0.1308 -0.0490  0.4464
14397TIP3    H164606   0.282   4.996  14.953 -1.6801  0.0200 -0.2535
14397TIP3    H264607   0.194   5.116  14.975  0.3015  1.3150  0.9498
14398TIP3   OH264608   4.567   0.872   0.774 -0.9088 -0.7464  0.3037
14398TIP3    H164609   4.543   0.792   0.726  0.5588 -1.4599  0.7081
14398TIP3    H264610   4.566   0.940   0.707 -0.9154 -1.3440 -0.3205
14399TIP3   OH264611   6.479   6.270  11.212 -0.9474 -0.3353  0.2909
14399TIP3    H164612   6.535   6.242  11.140 -1.6902 -0.0468 -0.4157
14399TIP3    H264613   6.407   6.208  11.212 -1.0121 -0.2635  0.7117
14400TIP3   OH264614   2.633   2.439  14.144 -0.4366 -0.3679 -0.4599
14400TIP3    H164615   2.642   2.411  14.235  4.0506  2.4389  0.2920
14400TIP3    H264616   2.591   2.524  14.149  1.3798  0.5929 -0.6951
14401TIP3   OH264617   2.311   5.785   3.122  0.3478  0.1049  0.1623
14401TIP3    H164618   2.362   5.855   3.161 -0.2567 -0.1049  1.3636
14401TIP3    H264619   2.369   5.709   3.123  0.8099  0.4362 -0.6353
14402TIP3   OH264620   5.131   2.895   3.328 -0.3440  0.1965 -0.6123
14402TIP3    H164621   5.166   2.873   3.242 -0.6768  0.8424 -0.9157
14402TIP3    H264622   5.179   2.973   3.355  0.1009 -0.2807  0.0073
14403TIP3   OH264623   2.373   6.585   1.313  0.2302 -0.1432  0.2612
14403TIP3    H164624   2.464   6.614   1.314  0.0483  0.4722 -0.2718
14403TIP3    H264625   2.372   6.507   1.369  1.2913 -0.7972 -0.5997
14404TIP3   OH264626   3.886   0.825  17.306 -0.2489 -0.9132 -0.1949
14404TIP3    H164627   3.850   0.843  17.219 -0.8127 -0.1916  0.1684
14404TIP3    H264628   3.878   0.730  17.316 -0.3090 -0.9848 -0.8729
14405TIP3   OH264629   1.706   3.555   3.060 -0.0489 -0.7855 -0.2434
14405TIP3    H164630   1.740   3.643   3.046 -1.2408 -0.2138  0.3045
14405TIP3    H264631   1.783   3.502   3.079  0.4918  0.6095  1.7697
14406TIP3   OH264632   1.285   5.160   4.023 -0.0944  0.4046 -0.2464
14406TIP3    H164633   1.338   5.091   3.982  0.1109  1.2265 -1.4262
14406TIP3    H264634   1.213   5.113   4.064 -0.0507 -0.5071 -1.1673
14407TIP3   OH264635   0.886   4.987   2.684 -0.0081  0.2819 -0.7240
14407TIP3    H164636   0.834   4.971   2.605 -0.3624 -0.4866 -0.3499
14407TIP3    H264637   0.877   4.906   2.734  1.0697  0.3705 -0.3766
14408TIP3   OH264638   1.827   2.018  11.628 -0.6379  0.5250 -0.6994
14408TIP3    H164639   1.856   2.046  11.715  0.0219 -0.2556 -0.6594
14408TIP3    H264640   1.738   2.054  11.620 -0.5481  0.9553  0.1255
14409TIP3   OH264641   5.091   3.878  14.073  0.3041  0.1036  0.6503
14409TIP3    H164642   5.137   3.904  13.993 -2.3828  3.1023 -0.1197
14409TIP3    H264643   5.090   3.957  14.126 -2.0739 -0.4469  1.5183
14410TIP3   OH264644   1.796   1.366   1.612 -0.1635 -0.1333 -0.1859
14410TIP3    H164645   1.821   1.458   1.624 -4.2355  1.0307  0.8527
14410TIP3    H264646   1.739   1.366   1.535 -0.0755 -1.8559 -0.2901
14411TIP3   OH264647   5.077   2.923   2.756  0.1669 -0.4318 -0.1322
14411TIP3    H164648   5.064   2.853   2.820  2.1954  1.4314  2.5633
14411TIP3    H264649   5.003   2.982   2.769  0.8864  0.2510  1.0122
14412TIP3   OH264650   0.214   3.939   2.159  0.3224  0.2683 -0.1744
14412TIP3    H164651   0.267   3.954   2.237  0.9860 -0.6704 -0.4179
14412TIP3    H264652   0.224   3.845   2.141  0.4922  0.5322 -1.5958
14413TIP3   OH264653   2.736   0.119  13.164  0.1756 -0.0418  0.0838
14413TIP3    H164654   2.654   0.107  13.212  0.2171 -0.3885  0.0725
14413TIP3    H264655   2.797   0.059  13.208  0.8934  1.4595  1.1979
14414TIP3   OH264656   1.583   3.269   2.222 -0.2855  0.0872 -0.6842
14414TIP3    H164657   1.548   3.352   2.254  1.4433  1.3095 -1.8059
14414TIP3    H264658   1.625   3.230   2.299 -0.4451  0.6297 -0.3140
14415TIP3   OH264659   0.841   3.787  12.127  0.3412  0.0031 -0.6111
14415TIP3    H164660   0.754   3.821  12.104  0.3651  0.3264 -0.2432
14415TIP3    H264661   0.901   3.831  12.067  0.2570 -0.1690 -0.8206
14416TIP3   OH264662   2.151   0.821  13.229 -0.3276  0.4859  0.5099
14416TIP3    H164663   2.163   0.726  13.242 -0.2083  0.4351  0.0402
14416TIP3    H264664   2.227   0.860  13.272  0.1491  0.3089 -0.1626
14417TIP3   OH264665   3.305   6.396  13.720 -0.0679  0.0186 -0.1058
14417TIP3    H164666   3.288   6.313  13.766 -1.0792  0.4343  0.3171
14417TIP3    H264667   3.225   6.411  13.670  0.7633 -0.0860 -1.5096
14418TIP3   OH264668   1.934   1.587  12.200 -0.0616  0.4588  0.2641
14418TIP3    H164669   1.943   1.545  12.286  0.3026 -0.6332 -0.2761
14418TIP3    H264670   1.971   1.674  12.212  0.9068 -0.0184  0.9770
14419TIP3   OH264671   6.340   4.046  15.144 -0.1488 -0.1764  0.2284
14419TIP3    H164672   6.259   4.094  15.160 -0.7016 -1.5570  1.9464
14419TIP3    H264673   6.313   3.968  15.095  0.4775  0.3605 -1.0172
14420TIP3   OH264674   1.906   2.884   1.361  0.0518  0.1522 -0.1824
14420TIP3    H164675   1.971   2.916   1.423 -0.7769  0.7025  0.4219
14420TIP3    H264676   1.920   2.789   1.358  0.1263  0.1234  0.8151
14421TIP3   OH264677   3.133   3.749   5.340 -0.3396  0.4926 -0.2190
14421TIP3    H164678   3.045   3.763   5.304 -0.2157  0.7742 -0.4161
14421TIP3    H264679   3.182   3.709   5.268 -1.1902 -2.9038  0.8648
14422TIP3   OH264680   2.066   2.038  17.264  0.2931  0.1920  0.1319
14422TIP3    H164681   2.100   1.959  17.305 -0.2847 -0.7767 -1.2044
14422TIP3    H264682   1.998   2.007  17.205 -0.4543  1.7664  0.1283
14423TIP3   OH264683   2.759   0.249  13.893  0.6097 -0.2994  0.5799
14423TIP3    H164684   2.801   0.176  13.848  0.0741 -1.4077  1.8014
14423TIP3    H264685   2.830   0.292  13.940  0.6043 -1.4798  1.7249
14424TIP3   OH264686   5.681   6.576  15.683  0.0538 -0.2008  0.0604
14424TIP3    H164687   5.659   6.667  15.704 -1.8134 -1.2212  3.1910
14424TIP3    H264688   5.648   6.564  15.593  0.3158  2.1522 -0.4101
14425TIP3   OH264689   6.099   5.258   0.193  0.3555  0.3323  0.0206
14425TIP3    H164690   6.092   5.278   0.286  0.6867 -0.7332  0.2891
14425TIP3    H264691   6.130   5.339   0.153 -0.2477  0.9416  0.7644
14426TIP3   OH264692   2.039   1.182   3.446  0.2994  0.4451 -0.7514
14426TIP3    H164693   1.978   1.159   3.516 -0.1161 -0.3033 -1.3361
14426TIP3    H264694   1.985   1.222   3.379  0.3236 -0.7801 -1.5358
14427TIP3   OH264695   5.776   1.427  11.242  0.2728  0.5098  0.3087
14427TIP3    H164696   5.820   1.354  11.198 -1.0640 -0.6044  0.7424
14427TIP3    H264697   5.686   1.422  11.211  0.0131  1.5866  0.8642
14428TIP3   OH264698   3.703   5.157   1.003  0.2371 -0.4409 -0.2515
14428TIP3    H164699   3.749   5.083   0.965  0.2370 -0.6229  0.0942
14428TIP3    H264700   3.656   5.120   1.078  0.8784  0.0570  0.4099
14429TIP3   OH264701   2.150   1.988  16.511 -0.8620  0.4147  0.0732
14429TIP3    H164702   2.064   1.969  16.474 -0.7798 -0.7341  0.4401
14429TIP3    H264703   2.143   1.962  16.603 -0.1728  0.4718  0.1453
14430TIP3   OH264704   3.249   3.578   5.125 -0.6437  0.2469  0.5746
14430TIP3    H164705   3.199   3.571   5.044 -0.1731  3.2812 -0.0591
14430TIP3    H264706   3.340   3.567   5.099 -0.3563  2.6576  0.3662
14431TIP3   OH264707   4.954   3.368  12.035 -0.3606  0.2643 -0.1735
14431TIP3    H164708   4.959   3.463  12.025  0.5152  0.1580 -0.7934
14431TIP3    H264709   4.883   3.341  11.977  1.2168  0.2479 -2.1998
14432TIP3   OH264710   3.227   0.650   2.061 -0.3620 -0.2401  0.0516
14432TIP3    H164711   3.292   0.685   2.121 -0.2872  1.5905 -1.0060
14432TIP3    H264712   3.217   0.558   2.086  0.5688  0.1408  2.0122
14433TIP3   OH264713   5.880   0.714   0.944  0.0430  0.6168 -0.4176
14433TIP3    H164714   5.925   0.663   0.877 -0.8313  0.6289 -1.0206
14433TIP3    H264715   5.947   0.727   1.012  0.8728  0.4195 -1.1739
14434TIP3   OH264716   1.217   4.025  15.088 -0.4898 -0.4501  0.8291
14434TIP3    H164717   1.265   3.979  15.018 -0.8521 -0.9383  0.8944
14434TIP3    H264718   1.280   4.031  15.160 -0.3069 -0.4761  0.6721
14435TIP3   OH264719   5.109   5.294   0.769  0.7010 -0.0929 -0.3489
14435TIP3    H164720   5.202   5.314   0.760  0.3798  1.0747 -1.1984
14435TIP3    H264721   5.098   5.273   0.862  1.7937 -0.2113 -0.2334
14436TIP3   OH264722   6.340   6.331   0.394 -1.1664 -0.0576 -0.0938
14436TIP3    H164723   6.363   6.353   0.303  0.3863  2.9156  0.8783
14436TIP3    H264724   6.387   6.249   0.411  1.1589  0.9470 -1.1158
14437TIP3   OH264725   2.310   5.098   1.740 -0.1678  0.1950  0.2743
14437TIP3    H164726   2.388   5.097   1.794  0.5155 -1.0996 -0.6869
14437TIP3    H264727   2.245   5.146   1.792  1.2634  1.3659  1.0557
14438TIP3   OH264728   5.063   6.364   4.829 -0.1781 -0.0804  0.1871
14438TIP3    H164729   5.015   6.447   4.826  1.4160  0.8675 -1.9157
14438TIP3    H264730   5.129   6.376   4.897 -2.3356 -1.1630  2.6498
14439TIP3   OH264731   5.345   2.905  12.269  0.9660  1.0273 -0.2881
14439TIP3    H164732   5.294   2.937  12.195  0.4260  0.5360 -0.1387
14439TIP3    H264733   5.434   2.939  12.254  1.2598 -0.3510 -1.9996
14440TIP3   OH264734   3.505   0.982   2.512  0.1393  0.2013  0.6417
14440TIP3    H164735   3.502   0.912   2.447 -0.9339  1.5549 -0.8242
14440TIP3    H264736   3.586   0.965   2.561  0.7179 -1.1422 -0.6948
14441TIP3   OH264737   4.789   3.180   1.230  0.2178  0.6537  0.2303
14441TIP3    H164738   4.753   3.260   1.192  0.3080  0.5852  0.0022
14441TIP3    H264739   4.719   3.115   1.220 -0.3262  1.0026  1.4935
14442TIP3   OH264740   2.740   3.095  17.537 -0.0845 -0.0153 -0.1681
14442TIP3    H164741   2.804   3.084  17.606  0.3848 -1.8565 -0.8303
14442TIP3    H264742   2.785   3.147  17.470 -0.1233  0.7260  0.3738
14443TIP3   OH264743   4.002   5.289  15.527 -0.4536 -0.2890  0.1624
14443TIP3    H164744   4.097   5.298  15.541 -0.5060 -0.9534  1.1075
14443TIP3    H264745   3.982   5.201  15.561 -1.5590  0.2179  0.8728
14444TIP3   OH264746   5.406   3.060   3.949  0.1369 -0.1019 -0.0179
14444TIP3    H164747   5.315   3.045   3.922  0.0092  0.2912  0.1918
14444TIP3    H264748   5.454   2.984   3.915  0.1761  0.8321 -2.2220
14445TIP3   OH264749   4.262   1.936  11.684  0.0368  0.0830 -0.3912
14445TIP3    H164750   4.276   1.860  11.628 -0.5127  0.1790 -0.6583
14445TIP3    H264751   4.350   1.970  11.700  0.3465 -0.9387  0.2050
14446TIP3   OH264752   0.334   6.044  17.517  0.4804 -0.2977  0.7298
14446TIP3    H164753   0.421   6.017  17.546  0.0957  0.1631  2.4068
14446TIP3    H264754   0.310   6.116  17.574  1.0229  3.1235 -2.9187
14447TIP3   OH264755   0.380   3.999   5.647 -0.0758 -0.0009  0.3854
14447TIP3    H164756   0.318   3.990   5.574  0.7284 -1.2376 -0.1669
14447TIP3    H264757   0.448   4.057   5.614  0.1494 -0.3418  0.2558
14448TIP3   OH264758   5.027   0.982  11.739  0.7348  0.1744  0.1844
14448TIP3    H164759   5.050   1.009  11.650 -0.9710  2.0689  0.2407
14448TIP3    H264760   4.936   0.952  11.732  0.2570  1.2274  1.4058
14449TIP3   OH264761   6.058   1.005  17.172 -0.5025 -0.3039 -0.2565
14449TIP3    H164762   6.063   0.918  17.213  0.1833 -0.3631 -0.4578
14449TIP3    H264763   5.983   1.047  17.214 -1.0563 -1.1190 -0.4006
14450TIP3   OH264764   2.705   5.029   6.160  0.0352 -0.3696 -0.6761
14450TIP3    H164765   2.799   5.039   6.173 -0.2954  0.4262  1.6077
14450TIP3    H264766   2.668   5.115   6.181 -1.3252 -1.1276  0.2625
14451TIP3   OH264767   4.619   2.067  11.020 -0.2183 -0.3283  0.4870
14451TIP3    H164768   4.684   2.137  11.034  0.0761 -0.5822  0.3941
14451TIP3    H264769   4.541   2.113  10.990 -0.3311  0.0635  1.3490
14452TIP3   OH264770   5.350   1.378  14.879 -0.5102  0.1965  0.1471
14452TIP3    H164771   5.441   1.355  14.856  0.0190  2.6052 -0.4169
14452TIP3    H264772   5.303   1.295  14.873  0.9266 -0.5649 -3.2088
14453TIP3   OH264773   2.049   0.150   6.026  0.1025 -0.1328  0.3099
14453TIP3    H164774   1.997   0.145   6.106 -0.6505 -0.6661 -0.1926
14453TIP3    H264775   2.068   0.059   6.004  0.1481 -0.0003 -0.2094
14454TIP3   OH264776   1.441   3.598   3.135  0.0713 -0.3386 -0.4464
14454TIP3    H164777   1.536   3.598   3.123  0.0613 -0.8650 -0.5656
14454TIP3    H264778   1.426   3.656   3.209  0.7316 -2.3076  1.3524
14455TIP3   OH264779   6.390   1.209  16.890  0.3725 -0.1677  0.1120
14455TIP3    H164780   6.322   1.246  16.834 -0.7147 -0.7882  0.9744
14455TIP3    H264781   6.433   1.284  16.930 -0.4873  0.2198  0.3272
14456TIP3   OH264782   1.359   1.097   1.858  0.4569 -0.2287 -1.1178
14456TIP3    H164783   1.397   1.164   1.801 -0.5506  0.1852 -1.3267
14456TIP3    H264784   1.302   1.145   1.918  1.0263 -0.7303 -0.1474
14457TIP3   OH264785   3.043   1.677   0.258  0.1527 -0.1758  0.1955
14457TIP3    H164786   3.007   1.598   0.297 -1.7237  0.4766 -0.0951
14457TIP3    H264787   3.080   1.648   0.174  0.2260 -0.8689  0.4658
14458TIP3   OH264788   2.324   3.904  17.490 -0.2034  0.0648  0.2253
14458TIP3    H164789   2.230   3.891  17.477 -0.1885 -0.2106  0.3892
14458TIP3    H264790   2.365   3.825  17.454 -0.1159 -0.3989  1.3080
14459TIP3   OH264791   6.509   0.205   4.284 -0.4636  0.4943  0.0995
14459TIP3    H164792   6.525   0.282   4.228 -3.3458 -0.2695 -2.0728
14459TIP3    H264793   6.521   0.131   4.225  3.5652 -1.0292  2.4656
14460TIP3   OH264794   5.071   6.164   1.146 -0.4736 -0.1630  0.4805
14460TIP3    H164795   5.075   6.069   1.152 -0.0360 -0.1405  0.5669
14460TIP3    H264796   5.139   6.187   1.082 -1.6182 -0.0221 -0.7383
14461TIP3   OH264797   1.804   5.177   2.360  0.5738  0.3662 -0.2886
14461TIP3    H164798   1.715   5.142   2.369  0.1285  1.5529  0.2190
14461TIP3    H264799   1.813   5.195   2.267  0.6468 -0.6504 -0.4869
14462TIP3   OH264800   2.356   1.159  14.697 -0.1138  0.0930 -0.0009
14462TIP3    H164801   2.271   1.124  14.668 -0.6868  2.0556 -0.8116
14462TIP3    H264802   2.419   1.090  14.675 -1.3184 -0.8632 -0.5740
14463TIP3   OH264803   2.163   0.437  14.297  0.1198 -0.1153  0.3359
14463TIP3    H164804   2.212   0.426  14.215  1.6934  1.2194  1.0329
14463TIP3    H264805   2.191   0.363  14.351  0.4550 -0.0059  0.3122
14464TIP3   OH264806   1.337   0.776   4.856 -0.3000 -0.5811  0.3584
14464TIP3    H164807   1.410   0.808   4.909 -0.8299  1.2948  0.0218
14464TIP3    H264808   1.284   0.725   4.918 -0.1593  0.3750  1.2951
14465TIP3   OH264809   3.546   4.186  15.389  0.0098  0.3761 -0.3912
14465TIP3    H164810   3.518   4.144  15.307 -0.8618 -0.5874  0.3734
14465TIP3    H264811   3.474   4.245  15.411 -1.6857 -2.2311  1.6730
14466TIP3   OH264812   4.680   0.058  14.988  0.1588 -0.0471  0.5973
14466TIP3    H164813   4.707   0.010  14.910  3.7191 -0.7674  2.0779
14466TIP3    H264814   4.674  -0.009  15.056 -1.0755  0.8262  1.3937
14467TIP3   OH264815   4.292   2.372  16.886 -0.2270  0.1334 -0.0519
14467TIP3    H164816   4.285   2.278  16.905 -1.5240  0.7931  3.6348
14467TIP3    H264817   4.385   2.391  16.895  0.0046 -0.7189 -0.4847
14468TIP3   OH264818   2.950   4.138  14.175  0.0953  0.2334 -0.5592
14468TIP3    H164819   3.019   4.146  14.241  0.9714 -0.5718 -1.3640
14468TIP3    H264820   2.916   4.227  14.166  0.1887  0.4250  0.7125
14469TIP3   OH264821   6.639   3.201   4.192 -0.0901 -0.2394 -0.1310
14469TIP3    H164822   6.552   3.160   4.187 -0.2285  0.1478 -1.0237
14469TIP3    H264823   6.656   3.231   4.103  0.7831  0.0660  0.1351
14470TIP3   OH264824   0.384   1.742  11.243  0.4782  0.4090  0.7069
14470TIP3    H164825   0.409   1.652  11.264  1.5322  0.6435  0.4992
14470TIP3    H264826   0.415   1.793  11.318 -1.4000  0.4383  1.5216
14471TIP3   OH264827   2.407   0.650   2.539  0.1575 -0.3882  0.5135
14471TIP3    H164828   2.451   0.728   2.505  1.6981 -1.3154  0.2781
14471TIP3    H264829   2.445   0.637   2.626  0.1482 -1.0466  0.4279
14472TIP3   OH264830   0.726   2.705   0.565  0.1851  0.8191 -0.8177
14472TIP3    H164831   0.655   2.762   0.594 -0.1103  0.2453 -0.3928
14472TIP3    H264832   0.787   2.702   0.639  1.0481  1.9239 -1.4644
14473TIP3   OH264833   2.583   5.340   1.322 -0.0953  0.4635 -0.1039
14473TIP3    H164834   2.554   5.262   1.276 -1.0676  0.1601  0.9766
14473TIP3    H264835   2.575   5.317   1.415  2.2325  0.8928  0.2577
14474TIP3   OH264836   5.351   1.608  10.649 -0.1900  0.4236  0.3099
14474TIP3    H164837   5.387   1.577  10.732 -0.0494 -1.9313 -0.5435
14474TIP3    H264838   5.375   1.701  10.645  1.2505  0.1883  2.1329
14475TIP3   OH264839   2.468   3.274   3.178  0.2952  0.4036 -0.1382
14475TIP3    H164840   2.413   3.246   3.106  0.3317 -0.6846  0.2376
14475TIP3    H264841   2.481   3.368   3.164  0.2777  0.2195 -1.5218
14476TIP3   OH264842   1.053   4.148   4.295 -0.9847  0.4779  0.1723
14476TIP3    H164843   1.014   4.203   4.227 -0.9718  0.7224  0.3627
14476TIP3    H264844   1.070   4.065   4.251 -0.1695  0.9117 -0.3632
14477TIP3   OH264845   5.053   2.379   3.885  0.4282 -0.0195  0.2861
14477TIP3    H164846   5.127   2.344   3.934 -0.0784 -0.3371  0.8385
14477TIP3    H264847   5.016   2.447   3.941  0.7587  0.6830 -0.3217
14478TIP3   OH264848   5.295   3.550  15.114 -0.1861  0.0903  0.1889
14478TIP3    H164849   5.361   3.546  15.045  1.5411 -0.6999  1.7969
14478TIP3    H264850   5.224   3.602  15.077  0.6263 -0.3879 -2.1842
14479TIP3   OH264851   5.554   1.895   5.287 -0.3785 -0.3123 -0.2874
14479TIP3    H164852   5.606   1.970   5.317 -1.1810 -0.4609  1.6273
14479TIP3    H264853   5.570   1.828   5.353 -1.1987 -1.1562 -0.9234
14480TIP3   OH264854   6.217   3.799  14.188 -0.2783  0.2541 -0.1136
14480TIP3    H164855   6.251   3.851  14.115 -0.8064  0.9054  0.1004
14480TIP3    H264856   6.132   3.767  14.157 -0.5965  0.7016  0.2833
14481TIP3   OH264857   0.800   1.449  13.521 -0.4343  0.4617 -0.0009
14481TIP3    H164858   0.837   1.366  13.551  0.8491  0.0338 -2.4839
14481TIP3    H264859   0.738   1.474  13.590  0.2591 -1.7517  1.5543
14482TIP3   OH264860   0.442   3.122  17.150 -0.2101 -0.5178 -0.6351
14482TIP3    H164861   0.515   3.181  17.131  1.0793 -1.3088  1.3756
14482TIP3    H264862   0.476   3.035  17.128 -1.2378 -0.7284 -1.4205
14483TIP3   OH264863   4.127   0.803   1.479 -0.1899  0.0806  0.1528
14483TIP3    H164864   4.112   0.825   1.387 -0.8362  1.1429  0.4920
14483TIP3    H264865   4.223   0.805   1.489 -0.1492  0.7891 -0.3143
14484TIP3   OH264866   3.843   4.819   3.127  0.6052 -0.0343 -0.0757
14484TIP3    H164867   3.864   4.800   3.219 -0.1771 -0.8134 -0.0428
14484TIP3    H264868   3.880   4.906   3.111  0.6035  0.1829  1.0244
14485TIP3   OH264869   3.467   4.437  14.670 -0.6651  0.5007  0.7018
14485TIP3    H164870   3.508   4.356  14.700 -2.6765 -0.3533  1.2518
14485TIP3    H264871   3.483   4.500  14.740  2.5330  1.2252 -0.5184
14486TIP3   OH264872   1.720   1.219  16.962 -0.4599  0.4157  0.5455
14486TIP3    H164873   1.758   1.144  17.007 -2.4155 -0.5300  0.6819
14486TIP3    H264874   1.711   1.286  17.030 -0.5269  0.0808  0.8704
14487TIP3   OH264875   1.886   4.329  12.595  0.3311  0.0939 -0.3122
14487TIP3    H164876   1.878   4.420  12.567 -0.5357 -0.2140 -1.1286
14487TIP3    H264877   1.975   4.321  12.628  0.0437  1.5330  0.8697
14488TIP3   OH264878   3.493   0.916  16.639  0.3010  0.1200 -0.0861
14488TIP3    H164879   3.521   1.007  16.632  0.1631  0.0973 -1.2933
14488TIP3    H264880   3.545   0.870  16.573 -2.0341 -0.0248 -1.9618
14489TIP3   OH264881   2.020   0.374  10.353 -0.4090 -0.3320  0.4912
14489TIP3    H164882   2.098   0.429  10.355 -1.2902  0.9227  1.9780
14489TIP3    H264883   2.050   0.291  10.315  0.8307  1.2897 -2.3759
14490TIP3   OH264884   6.111   5.966   3.312  0.1244 -0.4430 -0.1142
14490TIP3    H164885   6.042   5.909   3.278  0.0198  0.1575 -0.9292
14490TIP3    H264886   6.137   5.925   3.394 -1.8767 -0.1749  0.7198
14491TIP3   OH264887   3.578   3.837  16.065 -0.0905  0.4397  0.1168
14491TIP3    H164888   3.574   3.864  15.974 -0.2481 -1.5886 -0.5418
14491TIP3    H264889   3.666   3.860  16.094  0.8581 -1.0748 -1.3472
14492TIP3   OH264890   0.460   2.808   1.417  0.2306  0.1192 -0.4420
14492TIP3    H164891   0.460   2.893   1.374  2.3888  0.1773 -0.4228
14492TIP3    H264892   0.501   2.749   1.354 -0.4246 -0.7259 -0.1031
14493TIP3   OH264893   3.384   3.694   0.668  0.0359  0.4690 -0.2575
14493TIP3    H164894   3.412   3.776   0.710 -0.4667  0.7676 -0.4861
14493TIP3    H264895   3.382   3.630   0.739  1.4526  0.3800 -0.2638
14494TIP3   OH264896   4.944   0.785   5.380 -0.0667 -0.7555 -0.1737
14494TIP3    H164897   4.916   0.862   5.429 -0.8076 -0.4560 -1.0598
14494TIP3    H264898   4.882   0.778   5.308  0.0975 -2.0781 -0.2126
14495TIP3   OH264899   5.343   0.691  15.571 -0.5734  0.0681 -0.0017
14495TIP3    H164900   5.435   0.704  15.592 -0.0390  1.1266 -2.5513
14495TIP3    H264901   5.326   0.600  15.591  1.9575 -1.0570 -2.2729
14496TIP3   OH264902   2.034   3.019  13.093 -0.4295 -0.2213 -0.4461
14496TIP3    H164903   2.065   3.068  13.168 -3.5540 -0.7424  1.3543
14496TIP3    H264904   2.074   2.932  13.103 -0.9342 -0.3348  0.7542
14497TIP3   OH264905   0.006   0.780  13.270 -0.6907  0.2614  0.6368
14497TIP3    H164906   0.093   0.797  13.306 -0.9451  1.6318  0.6349
14497TIP3    H264907  -0.054   0.824  13.331 -1.4295 -1.0458  0.8957
14498TIP3   OH264908   4.078   5.118  15.807  0.5867 -0.7529 -0.3170
14498TIP3    H164909   4.089   5.066  15.887 -2.3917 -0.0652  0.6798
14498TIP3    H264910   4.031   5.059  15.748 -1.7786  0.2947  0.4023
14499TIP3   OH264911   0.444   0.966  11.802 -0.3438  0.2667 -0.2538
14499TIP3    H164912   0.489   0.913  11.737 -1.7380  0.3290 -1.3156
14499TIP3    H264913   0.495   1.047  11.808  0.1345  0.0076 -0.8055
14500TIP3   OH264914   0.910   1.327  15.892 -0.2295 -0.1031  0.1918
14500TIP3    H164915   0.990   1.372  15.864  0.6367 -0.1538  2.3898
14500TIP3    H264916   0.869   1.387  15.954 -1.3850 -0.5083 -0.1629
14501TIP3   OH264917   4.073   6.085  13.176 -0.0601  0.1427  0.3386
14501TIP3    H164918   4.104   6.043  13.256 -1.4673 -0.3961  0.6196
14501TIP3    H264919   3.986   6.117  13.197 -1.6655 -2.4455 -1.6978
14502TIP3   OH264920   1.860   6.532  16.002 -0.0622  0.2589 -0.0143
14502TIP3    H164921   1.796   6.581  16.055  0.7689  1.5642 -0.1816
14502TIP3    H264922   1.845   6.440  16.026 -1.7564  0.5550  0.2088
14503TIP3   OH264923   1.763   5.988  12.021 -0.6343  0.1321  0.0138
14503TIP3    H164924   1.832   6.014  11.960 -0.7579  3.0000  0.9353
14503TIP3    H264925   1.809   5.945  12.092 -0.1836 -0.7349 -0.7767
14504TIP3   OH264926   1.604   3.633  15.047  0.3832 -0.0760  0.1171
14504TIP3    H164927   1.626   3.617  14.955 -2.9383 -1.8450 -0.5364
14504TIP3    H264928   1.519   3.591  15.058  0.4408  0.5210  3.9164
14505TIP3   OH264929   1.431   5.379  12.539 -0.2885 -0.6591 -0.0507
14505TIP3    H164930   1.345   5.374  12.497  0.4710 -0.4951 -1.6718
14505TIP3    H264931   1.431   5.463  12.584 -0.1928  0.3764 -1.8969
14506TIP3   OH264932   2.885   3.543  16.038 -0.3054 -0.1827 -0.0671
14506TIP3    H164933   2.902   3.452  16.064 -1.2784 -0.8741 -1.6761
14506TIP3    H264934   2.790   3.548  16.031 -0.2116  0.6667 -0.9560
14507TIP3   OH264935   2.447   1.362  14.204 -0.5742 -0.3572  0.7694
14507TIP3    H164936   2.524   1.372  14.260 -1.1689 -1.3574  1.8221
14507TIP3    H264937   2.374   1.390  14.259 -1.0269  0.0872 -0.0381
14508TIP3   OH264938   4.736   0.554  14.838 -0.3065  1.0011 -0.0460
14508TIP3    H164939   4.667   0.590  14.783 -1.0655  0.8440  0.7792
14508TIP3    H264940   4.691   0.495  14.898  0.5770  0.7089  0.3576
14509TIP3   OH264941   3.805   3.372   5.735  0.4929 -0.3235 -0.0372
14509TIP3    H164942   3.722   3.398   5.695 -0.8558 -1.2908  1.9658
14509TIP3    H264943   3.834   3.296   5.683 -0.1617 -0.3233 -0.4099
14510TIP3   OH264944   1.463   4.891  15.218 -0.2651 -0.4026 -0.8188
14510TIP3    H164945   1.552   4.898  15.253  0.0149 -0.2080 -1.5543
14510TIP3    H264946   1.428   4.980  15.224  0.0850 -0.1840 -1.7926
14511TIP3   OH264947   3.602   4.636   6.126 -0.5015 -0.1595  0.3089
14511TIP3    H164948   3.681   4.598   6.086 -1.2929 -1.2281 -0.2710
14511TIP3    H264949   3.531   4.610   6.068 -1.1653  1.8288  0.1368
14512TIP3   OH264950   3.007   6.663   2.838 -0.0830 -0.1976  0.0431
14512TIP3    H164951   3.068   6.591   2.821 -0.0577 -0.0202 -0.6758
14512TIP3    H264952   3.001   6.709   2.754 -0.1104  0.6282  0.4848
14513TIP3   OH264953   2.742   1.494   1.054 -0.0981  0.1377 -0.4304
14513TIP3    H164954   2.679   1.475   1.124  0.5371 -0.3188  0.0267
14513TIP3    H264955   2.747   1.589   1.051 -1.7768  0.2324 -1.3482
14514TIP3   OH264956   4.903   1.213  11.387  0.2522  0.0247 -0.0533
14514TIP3    H164957   4.873   1.180  11.472  2.5184 -1.9532  0.0912
14514TIP3    H264958   4.849   1.168  11.323  1.0915 -1.4874  0.2660
14515TIP3   OH264959   0.170   1.855   5.833 -0.0492 -0.7962  0.9101
14515TIP3    H164960   0.129   1.815   5.909 -1.5247  0.4682  0.8298
14515TIP3    H264961   0.195   1.943   5.862  0.7117 -0.8083  0.3380
14516TIP3   OH264962   3.212   5.253  13.474  0.2835  0.4925  0.1929
14516TIP3    H164963   3.134   5.306  13.492  0.3254  0.9243 -0.7964
14516TIP3    H264964   3.189   5.165  13.502 -0.8894  0.4373 -0.8524
14517TIP3   OH264965   0.049   0.266   5.581  0.1998  0.5923  0.8889
14517TIP3    H164966   0.052   0.312   5.497  0.5718  2.2436  1.7576
14517TIP3    H264967   0.099   0.322   5.640  1.3245 -1.3504  1.8543
14518TIP3   OH264968   3.755   1.460   6.508  0.2404  0.0283  0.6377
14518TIP3    H164969   3.799   1.377   6.491  0.1471  0.3283 -1.2239
14518TIP3    H264970   3.827   1.523   6.520  0.3082 -0.1823  1.3741
14519TIP3   OH264971   0.062   6.197  16.130 -0.0037 -0.2183  0.0142
14519TIP3    H164972   0.065   6.133  16.059 -3.4210 -1.1816  0.5874
14519TIP3    H264973   0.110   6.155  16.202  3.9306  0.9660 -1.6209
14520TIP3   OH264974   1.442   0.843  16.385  0.1737 -0.1249  0.0508
14520TIP3    H164975   1.535   0.825  16.398  0.2381  0.1678  0.0012
14520TIP3    H264976   1.431   0.934  16.414 -0.3692 -0.5925  1.4356
14521TIP3   OH264977   4.868   4.883   5.210  0.4540  0.3998  0.1299
14521TIP3    H164978   4.896   4.853   5.296 -0.5846 -0.6553  0.1280
14521TIP3    H264979   4.773   4.874   5.211  0.5530 -1.8549 -1.8786
14522TIP3   OH264980   3.721   6.176   0.227  0.8244 -0.5498 -0.1345
14522TIP3    H164981   3.701   6.177   0.321  0.3414 -1.9674 -0.1895
14522TIP3    H264982   3.639   6.149   0.185  1.7054 -2.5372 -0.7056
14523TIP3   OH264983   2.331   5.901  11.737 -0.3501 -0.0163  0.0417
14523TIP3    H164984   2.346   5.866  11.825 -0.3183  1.3247  0.5902
14523TIP3    H264985   2.341   5.995  11.747  1.5682  0.0505 -1.7768
14524TIP3   OH264986   6.294   5.289   1.799 -0.0010  0.4048  0.4085
14524TIP3    H164987   6.385   5.285   1.829 -0.4563  0.1355  1.8217
14524TIP3    H264988   6.265   5.198   1.800  0.0623  0.3508 -1.2182
14525TIP3   OH264989   0.857   3.386  12.438  0.5150 -0.1607  0.1532
14525TIP3    H164990   0.854   3.292  12.418  0.2285  0.2362 -1.9207
14525TIP3    H264991   0.901   3.425  12.363 -1.4078  1.6192 -0.1400
14526TIP3   OH264992   3.783   2.745   0.065 -0.7533 -0.1512 -0.3001
14526TIP3    H164993   3.727   2.789   0.128 -0.3911  0.4313 -0.3812
14526TIP3    H264994   3.799   2.659   0.104 -0.3090  0.3013  0.5348
14527TIP3   OH264995   6.496   1.925  12.761 -0.3722 -0.3603 -0.5416
14527TIP3    H164996   6.506   1.919  12.856 -0.3826 -0.0551 -0.5220
14527TIP3    H264997   6.481   2.018  12.744  0.7831 -0.2362 -0.9571
14528TIP3   OH264998   5.964   3.922   6.529  0.4659 -0.0989  0.1305
14528TIP3    H164999   6.052   3.886   6.522  0.0119 -1.1497 -0.4547
14528TIP3    H265000   5.977   4.016   6.536  1.5965 -0.1660 -0.8274
14529TIP3   OH265001   0.715   2.637  13.337  0.1530  0.3017 -0.3973
14529TIP3    H165002   0.689   2.545  13.346  1.3094 -0.0994 -0.9492
14529TIP3    H265003   0.764   2.640  13.255 -0.2638  1.5131 -0.6249
14530TIP3   OH265004   1.411   4.454  17.319  0.3366  0.1084  0.4643
14530TIP3    H165005   1.483   4.457  17.382  0.9838 -1.0135 -0.2086
14530TIP3    H265006   1.426   4.529  17.261 -0.7306  1.6754  2.0886
14531TIP3   OH265007   0.264   2.876   3.968  0.3014  0.6354  0.3719
14531TIP3    H165008   0.260   2.971   3.972  0.8302  0.7373 -0.9348
14531TIP3    H265009   0.212   2.853   3.891 -2.5256 -0.4007  2.4208
14532TIP3   OH265010   1.735   6.589   3.317  0.1540 -0.4961  0.2383
14532TIP3    H165011   1.728   6.503   3.276  0.1095 -0.4386  0.1262
14532TIP3    H265012   1.645   6.614   3.335  0.2036 -0.7852  0.9143
14533TIP3   OH265013   1.125   3.021   0.759 -0.9681  0.0893 -0.1138
14533TIP3    H165014   1.111   2.961   0.685  0.2302 -2.6836  1.7291
14533TIP3    H265015   1.056   2.999   0.821  0.3201 -0.4255  1.1838
14534TIP3   OH265016   5.129   4.114   0.292  0.3084  0.1790  0.0757
14534TIP3    H165017   5.136   4.105   0.197  0.2614  2.5044 -0.1822
14534TIP3    H265018   5.113   4.207   0.308 -0.1244 -0.2098  2.3521
14535TIP3   OH265019   2.610   4.368  17.096  0.0309  0.3083 -0.0123
14535TIP3    H165020   2.628   4.274  17.092  1.2643  0.4306  1.6450
14535TIP3    H265021   2.543   4.377  17.163  2.8899  0.8536  3.0516
14536TIP3   OH265022   5.249   4.980   4.769 -0.2092 -0.1234 -0.7288
14536TIP3    H165023   5.315   5.012   4.830 -0.7941 -0.5636  0.1752
14536TIP3    H265024   5.168   5.024   4.796 -0.6870 -1.1068 -0.5024
14537TIP3   OH265025   3.874   0.957   4.422  0.8338 -0.3965  0.1289
14537TIP3    H165026   3.859   1.028   4.484  1.2703  2.8371 -3.1035
14537TIP3    H265027   3.787   0.933   4.391  0.6014 -2.1358  1.9588
14538TIP3   OH265028   5.729   0.529   5.197  0.1920 -0.2386 -0.4685
14538TIP3    H165029   5.740   0.600   5.134  2.4561 -0.9993 -1.0113
14538TIP3    H265030   5.672   0.466   5.152  1.0092 -0.3357 -1.3899
14539TIP3   OH265031   2.100   4.680  14.795  0.2422  0.4965  0.2916
14539TIP3    H165032   2.120   4.594  14.830 -0.6588 -0.5356 -1.5584
14539TIP3    H265033   2.118   4.741  14.867  0.0806 -1.3023  1.9210
14540TIP3   OH265034   4.973   5.092   3.019 -0.0937 -0.1175 -0.4292
14540TIP3    H165035   5.051   5.042   3.042  0.4443  0.9592  0.2043
14540TIP3    H265036   4.901   5.031   3.030  0.4861 -0.6175  0.8532
14541TIP3   OH265037   5.801   2.769  14.468 -0.0725 -0.3148 -0.2635
14541TIP3    H165038   5.891   2.792  14.494 -0.4322  0.7820  0.0793
14541TIP3    H265039   5.804   2.765  14.373  0.4310 -0.6751 -0.2351
14542TIP3   OH265040   2.326   2.667  12.431  0.4160  0.3475 -0.7622
14542TIP3    H165041   2.248   2.719  12.449  1.0489  2.3565 -3.2772
14542TIP3    H265042   2.379   2.675  12.511 -0.6919  1.3494 -0.0931
14543TIP3   OH265043   0.294   5.592  15.469  0.4526  0.2428  0.0706
14543TIP3    H165044   0.321   5.684  15.465  0.4338  0.2187 -0.9245
14543TIP3    H265045   0.199   5.595  15.473  0.4414  0.2712 -0.1741
14544TIP3   OH265046   4.501   4.743   0.351 -0.0199 -0.0598 -0.1491
14544TIP3    H165047   4.421   4.752   0.402  1.5304 -0.7096  2.5512
14544TIP3    H265048   4.490   4.806   0.279 -2.2439  1.0651  1.0678
14545TIP3   OH265049   1.504   1.237   0.868  0.1307 -0.1452  0.1329
14545TIP3    H165050   1.500   1.183   0.947  1.1199 -1.1941 -0.5048
14545TIP3    H265051   1.597   1.241   0.846  0.4690  3.7379  1.4028
14546TIP3   OH265052   4.043   4.189   4.747  0.1391 -0.2202 -0.7102
14546TIP3    H165053   4.045   4.262   4.809  0.3916 -1.7097  1.0961
14546TIP3    H265054   4.131   4.152   4.750  1.0321  1.2430 -4.0252
14547TIP3   OH265055   2.691   0.816   5.692  0.1291  0.0275  0.0609
14547TIP3    H165056   2.620   0.860   5.646 -0.1431 -1.4466 -1.0064
14547TIP3    H265057   2.688   0.726   5.661  3.5184  0.2303 -1.3456
14548TIP3   OH265058   6.402   1.360  12.793 -0.0658  0.4785  0.4672
14548TIP3    H165059   6.447   1.311  12.724  0.3232  0.3499  0.8049
14548TIP3    H265060   6.320   1.389  12.753 -0.0368  0.0403  0.0868
14549TIP3   OH265061   3.763   1.008  14.803  0.6235 -0.2021  0.3268
14549TIP3    H165062   3.748   1.029  14.895 -0.2259 -1.0920  0.3990
14549TIP3    H265063   3.843   0.956  14.802  2.5447  2.5493  0.1875
14550TIP3   OH265064   0.891   6.539   6.107 -0.1226  0.0346 -0.1647
14550TIP3    H165065   0.946   6.593   6.164 -2.0222  0.1052  1.7420
14550TIP3    H265066   0.886   6.454   6.151  0.9859 -1.0381 -1.9659
14551TIP3   OH265067   4.048   5.622  14.401  0.1801 -0.0680  0.0432
14551TIP3    H165068   4.075   5.706  14.364  0.5142 -0.7455 -1.2907
14551TIP3    H265069   4.066   5.558  14.333 -0.4037 -1.1916  0.9035
14552TIP3   OH265070   6.044   1.512  12.326 -0.3505  0.8215  0.0758
14552TIP3    H165071   6.139   1.523  12.334 -0.3000  0.2086  0.3474
14552TIP3    H265072   6.031   1.488  12.234  0.0131 -1.3966  0.5367
14553TIP3   OH265073   4.842   5.688   0.660  0.1285 -0.3519  0.3421
14553TIP3    H165074   4.748   5.698   0.675  0.4918  0.6863  2.2229
14553TIP3    H265075   4.850   5.605   0.613 -1.8831  0.7716 -2.1626
14554TIP3   OH265076   2.972   0.459  16.843 -0.1815  0.4111 -0.4900
14554TIP3    H165077   3.067   0.468  16.839 -0.2686  1.0799 -2.0434
14554TIP3    H265078   2.944   0.455  16.751 -1.7088  0.9464 -0.0923
14555TIP3   OH265079   4.001   6.319   0.223 -0.0318  0.4312 -0.0188
14555TIP3    H165080   4.020   6.344   0.133 -0.7719 -0.5019 -0.4465
14555TIP3    H265081   3.952   6.237   0.216  1.0418 -0.3587  1.2805
14556TIP3   OH265082   0.523   5.345   4.545  0.1278 -0.1968 -0.1887
14556TIP3    H165083   0.615   5.326   4.560  0.0653  0.0695  0.5616
14556TIP3    H265084   0.515   5.439   4.558  0.0537  0.0654 -1.9077
14557TIP3   OH265085   3.627   4.649   4.013  0.2964 -0.0943  0.6026
14557TIP3    H165086   3.578   4.584   4.063 -0.0536 -0.6865 -0.4858
14557TIP3    H265087   3.572   4.727   4.013 -0.6917 -0.7626 -0.6312
14558TIP3   OH265088   4.378   2.733   0.848  0.5683  0.6301  0.5412
14558TIP3    H165089   4.393   2.683   0.929 -0.5313 -0.3627  0.1684
14558TIP3    H265090   4.424   2.683   0.780  1.6509  1.5650  0.5629
14559TIP3   OH265091   6.404   6.277  13.687  0.0183  0.2116  0.3712
14559TIP3    H165092   6.395   6.184  13.667 -0.7277  0.2307  0.5965
14559TIP3    H265093   6.431   6.279  13.779  1.2404  0.1889  0.0251
14560TIP3   OH265094   3.151   3.738   3.156 -0.3531  0.1682 -0.3235
14560TIP3    H165095   3.200   3.671   3.108 -1.6587 -0.5792 -0.6627
14560TIP3    H265096   3.062   3.732   3.122 -0.8529  1.0315  0.7511
14561TIP3   OH265097   3.474   3.563  11.462  0.0315  0.3902  0.0405
14561TIP3    H165098   3.443   3.534  11.376  1.9426 -0.5775 -0.3882
14561TIP3    H265099   3.464   3.658  11.460 -3.0217  0.1617  0.0767
14562TIP3   OH265100   1.249   4.092  14.676  0.0808 -0.0748 -0.0673
14562TIP3    H165101   1.182   4.067  14.613 -1.1883  1.8318  0.4572
14562TIP3    H265102   1.204   4.150  14.738  1.7823 -0.1919  1.3787
14563TIP3   OH265103   4.523   0.165   4.385  0.2015 -0.1647  0.7750
14563TIP3    H165104   4.603   0.121   4.357  0.6207 -0.3731  2.2143
14563TIP3    H265105   4.514   0.143   4.477 -0.0000  2.1233  1.3575
14564TIP3   OH265106   3.740   2.765  17.387 -0.0081 -0.4696 -0.1099
14564TIP3    H165107   3.831   2.745  17.364  0.1136  0.5846 -0.5617
14564TIP3    H265108   3.731   2.734  17.477  0.7461 -0.7235 -0.1156
14565TIP3   OH265109   6.108   3.668  13.117 -0.1975 -0.1563 -0.2974
14565TIP3    H165110   6.030   3.719  13.097  1.4747  2.1775 -1.3225
14565TIP3    H265111   6.172   3.694  13.050  2.2688 -0.0127  1.9247
14566TIP3   OH265112   2.777   2.840   4.809  0.2882  0.0202 -0.0187
14566TIP3    H165113   2.836   2.790   4.753  0.2915  0.0003  0.0027
14566TIP3    H265114   2.828   2.917   4.834  0.4691 -0.2184  0.3674
14567TIP3   OH265115   5.706   3.492   0.509  0.2059  0.3991 -0.1932
14567TIP3    H165116   5.671   3.576   0.539 -2.8272 -0.9425  0.4285
14567TIP3    H265117   5.735   3.448   0.590  0.3623  0.2651 -0.3226
14568TIP3   OH265118   0.116   5.303  10.782 -0.4211 -0.0200  0.8225
14568TIP3    H165119   0.122   5.214  10.748  0.0096  0.5772 -0.7833
14568TIP3    H265120   0.028   5.310  10.818 -0.1072 -1.3917  1.9303
14569TIP3   OH265121   3.966   2.529  16.986 -0.3027  0.0659  0.0926
14569TIP3    H165122   3.989   2.436  16.993  0.0855 -0.0835 -2.3142
14569TIP3    H265123   4.040   2.575  17.026  0.7088 -0.6229 -0.9219
14570TIP3   OH265124   0.535   1.685  17.425  0.0977 -0.6447 -0.5922
14570TIP3    H165125   0.557   1.688  17.332  2.1054 -1.1878 -0.1674
14570TIP3    H265126   0.555   1.773  17.458 -0.8230 -0.3851 -0.6957
14571TIP3   OH265127   5.863   5.449   0.230  0.0730 -0.2089 -0.1486
14571TIP3    H165128   5.822   5.505   0.295  0.7086  0.7718 -0.5779
14571TIP3    H265129   5.955   5.474   0.230  0.4944 -1.6595  0.0655
14572TIP3   OH265130   1.034   2.328   2.473  0.7215  0.1559  0.4645
14572TIP3    H165131   1.009   2.336   2.565  0.1926  2.7652  0.1704
14572TIP3    H265132   1.085   2.407   2.455  0.8223 -0.3013 -1.4805
14573TIP3   OH265133   2.755   2.244   1.358  0.4610 -0.3776  0.3911
14573TIP3    H165134   2.785   2.296   1.283  0.5717  0.5844  1.0838
14573TIP3    H265135   2.694   2.302   1.404 -0.1162 -1.2012  0.6926
14574TIP3   OH265136   5.937   4.397  13.477 -0.1257 -0.4489 -0.5302
14574TIP3    H165137   5.871   4.401  13.547 -0.8933 -1.0427 -1.1990
14574TIP3    H265138   5.945   4.304  13.457  1.3136 -0.4403 -0.1202
14575TIP3   OH265139   1.483   1.101   5.339  0.2315 -0.1093 -1.2456
14575TIP3    H165140   1.402   1.078   5.293 -2.3543  2.2465  1.7174
14575TIP3    H265141   1.496   1.194   5.320  1.5132 -0.1300 -0.5731
14576TIP3   OH265142   4.592   3.431   3.825 -0.0154 -0.5509 -0.0636
14576TIP3    H165143   4.622   3.350   3.783 -0.1702 -0.8301  0.3598
14576TIP3    H265144   4.503   3.443   3.792 -0.3215 -1.0387  0.5486
14577TIP3   OH265145   1.824   5.594   6.805  0.0166  0.4450 -0.3314
14577TIP3    H165146   1.792   5.614   6.893 -1.4766  0.8607 -0.9338
14577TIP3    H265147   1.814   5.676   6.757  1.1746  0.3290 -0.7986
14578TIP3   OH265148   6.314   5.907   2.675  0.0267 -0.6777 -0.2636
14578TIP3    H165149   6.252   5.873   2.610 -1.2780 -1.2541  1.2281
14578TIP3    H265150   6.327   5.998   2.650 -0.9838 -0.6989 -0.9381
14579TIP3   OH265151   3.392   5.698  12.147  0.7112  0.2399 -0.3762
14579TIP3    H165152   3.342   5.629  12.104 -1.7848  0.6250  1.6144
14579TIP3    H265153   3.399   5.768  12.082  0.8422 -0.7984 -1.5081
14580TIP3   OH265154   0.058   0.685  10.666  0.5977  0.2622 -0.1490
14580TIP3    H165155  -0.038   0.684  10.669  0.5698 -1.3410 -0.6693
14580TIP3    H265156   0.079   0.765  10.618 -0.5694 -0.2671 -1.6356
14581TIP3   OH265157   1.402   5.501   3.810  0.0369  0.0591 -0.1266
14581TIP3    H165158   1.387   5.407   3.797 -0.1144 -0.0760  0.9372
14581TIP3    H265159   1.372   5.518   3.899 -2.0272  1.5796 -1.0372
14582TIP3   OH265160   1.989   0.240   1.716 -0.0955  0.6133  0.0617
14582TIP3    H165161   1.996   0.335   1.725 -0.1435  0.5232  1.1583
14582TIP3    H265162   1.897   0.224   1.695  0.0187  0.8377 -0.6255
14583TIP3   OH265163   3.838   2.518  11.774 -0.0109  0.4749 -0.1533
14583TIP3    H165164   3.751   2.478  11.772  0.7378 -1.2381  0.0761
14583TIP3    H265165   3.863   2.515  11.866  1.3416 -1.4583 -0.5451
14584TIP3   OH265166   1.137   4.585   6.671  0.0426  0.2957 -0.9182
14584TIP3    H165167   1.083   4.580   6.750  0.4481  2.3138 -0.4677
14584TIP3    H265168   1.171   4.496   6.660  1.0635  0.2055  1.9790
14585TIP3   OH265169   4.841   1.035   4.733  0.4172  0.3996 -0.8059
14585TIP3    H165170   4.863   1.121   4.699 -0.2070  0.4357 -1.1326
14585TIP3    H265171   4.803   0.989   4.658 -1.9761  0.8317  0.0712
14586TIP3   OH265172   3.249   1.562  12.703 -0.1844  0.5142 -0.1740
14586TIP3    H165173   3.322   1.508  12.673 -2.4853 -2.1400 -1.3567
14586TIP3    H265174   3.291   1.644  12.732  3.2864 -1.1106 -0.0923
14587TIP3   OH265175   6.237   5.284  14.655 -0.4612 -0.0063  0.4081
14587TIP3    H165176   6.160   5.292  14.598 -1.2953 -0.3392  1.4620
14587TIP3    H265177   6.287   5.364  14.639 -1.8040  0.9578  0.8229
14588TIP3   OH265178   0.909   6.096  14.915 -0.4694  0.3262  0.4643
14588TIP3    H165179   1.000   6.067  14.907 -0.3396  0.9983 -0.6900
14588TIP3    H265180   0.915   6.182  14.956 -0.7102 -0.2679  1.8150
14589TIP3   OH265181   4.212   0.811   2.522 -0.1576  0.0120  0.0581
14589TIP3    H165182   4.209   0.876   2.592 -2.3831 -1.5593  1.5578
14589TIP3    H265183   4.161   0.849   2.451  0.3131  0.7470  0.1076
14590TIP3   OH265184   5.971   6.255  16.549  0.2844  0.2573  0.3641
14590TIP3    H165185   5.921   6.314  16.493 -1.1078 -0.1017  1.1758
14590TIP3    H265186   5.998   6.184  16.491 -1.5366 -0.3508  0.2016
14591TIP3   OH265187   3.352   3.657  11.745 -0.1176  0.3468  0.2022
14591TIP3    H165188   3.278   3.718  11.745 -0.5957 -0.2072  0.8253
14591TIP3    H265189   3.370   3.643  11.838 -0.1867 -0.6550  0.0755
14592TIP3   OH265190   5.742   4.628  14.732 -0.4255  0.0496 -0.7842
14592TIP3    H165191   5.656   4.592  14.709 -0.3956 -1.0722  0.7374
14592TIP3    H265192   5.736   4.645  14.826 -0.5997  4.5929 -1.3875
14593TIP3   OH265193   4.847   6.087   3.563  0.1113 -0.2287 -0.5563
14593TIP3    H165194   4.752   6.075   3.559  0.2793 -2.1505  0.2886
14593TIP3    H265195   4.867   6.148   3.491 -2.4268  5.4420  2.8311
14594TIP3   OH265196   0.127   0.774  12.184 -0.1483  0.0623 -0.0851
14594TIP3    H165197   0.199   0.788  12.245 -0.9013 -0.1224  0.8550
14594TIP3    H265198   0.170   0.766  12.099  0.7917  2.3413  0.0874
14595TIP3   OH265199   4.357   5.269   6.301 -0.4003  0.4419  0.7444
14595TIP3    H165200   4.396   5.209   6.237 -0.4932 -0.9795  1.9845
14595TIP3    H265201   4.420   5.341   6.306 -0.3163  0.5222 -0.8170
14596TIP3   OH265202   1.591   2.057  16.724  0.1747  0.2662  0.7017
14596TIP3    H165203   1.515   2.111  16.744  0.5571  0.7341  0.9051
14596TIP3    H265204   1.574   2.022  16.637  0.5298  1.7846  0.0025
14597TIP3   OH265205   2.686   6.322  11.628 -0.2853 -0.4003 -0.4672
14597TIP3    H165206   2.762   6.359  11.674 -0.9926  0.9980 -0.3692
14597TIP3    H265207   2.666   6.385  11.559  0.0679 -1.9199 -2.0309
14598TIP3   OH265208   2.174   2.149  15.228 -0.0613 -0.5964 -0.1174
14598TIP3    H165209   2.262   2.136  15.264  0.4140 -0.7135 -1.2654
14598TIP3    H265210   2.157   2.070  15.177  0.1363  0.3814 -1.7785
14599TIP3   OH265211   3.808   1.894   3.753 -0.1587  0.6733  0.0797
14599TIP3    H165212   3.863   1.816   3.754 -0.7417  0.2378 -0.8315
14599TIP3    H265213   3.734   1.872   3.809  0.8206  1.4808  1.8163
14600TIP3   OH265214   1.217   5.144   1.211  0.2128 -0.2559  0.8685
14600TIP3    H165215   1.153   5.197   1.259  0.7765  0.2901  1.0291
14600TIP3    H265216   1.244   5.199   1.137  3.4067  1.2194  2.9136
14601TIP3   OH265217   5.924   1.784  13.958 -0.2257 -0.0720 -0.4763
14601TIP3    H165218   6.017   1.768  13.971 -0.6860 -2.1051  0.8170
14601TIP3    H265219   5.919   1.876  13.931  2.0315  0.5507  0.9491
14602TIP3   OH265220   6.287   2.432   2.195  0.9516  0.6633 -0.2786
14602TIP3    H165221   6.304   2.406   2.286 -0.8943  1.3403  0.3164
14602TIP3    H265222   6.373   2.456   2.160  1.9323 -1.1244  0.7693
14603TIP3   OH265223   4.652   2.812  16.699  0.2043  0.1700 -0.5758
14603TIP3    H165224   4.670   2.725  16.735 -0.9280 -0.5127 -1.5612
14603TIP3    H265225   4.738   2.851  16.686  0.7188  0.2686  2.2755
14604TIP3   OH265226   4.133   1.891   5.159  0.1969 -0.1219  0.2262
14604TIP3    H165227   4.056   1.862   5.207  0.5365 -0.1259  0.7829
14604TIP3    H265228   4.149   1.822   5.094  0.1383 -0.4626  0.5692
14605TIP3   OH265229   6.299   5.512   2.071  0.1567  0.8431 -0.2516
14605TIP3    H165230   6.222   5.494   2.018  0.4221  1.8246 -1.0091
14605TIP3    H265231   6.373   5.487   2.016  0.4015  0.7306  0.1276
14606TIP3   OH265232   4.496   0.917   5.421 -0.1281 -0.1710 -0.3505
14606TIP3    H165233   4.528   0.933   5.510  0.2672 -0.6566 -0.3969
14606TIP3    H265234   4.543   0.838   5.394 -0.2014  0.0124 -1.0107
14607TIP3   OH265235   6.039   4.018  11.571 -0.2198 -0.1509 -0.1107
14607TIP3    H165236   6.047   3.963  11.493  0.2476  0.6952 -0.6717
14607TIP3    H265237   5.946   4.017  11.592 -0.3022 -0.6435 -0.4840
14608TIP3   OH265238   5.299   1.227   1.881  0.9984  0.2689 -0.3393
14608TIP3    H165239   5.247   1.299   1.917  0.2904 -0.7182  0.6716
14608TIP3    H265240   5.362   1.207   1.949  0.9242 -0.3319 -0.4432
14609TIP3   OH265241   4.245   5.432   5.530 -0.3356 -0.5266  0.7577
14609TIP3    H165242   4.239   5.522   5.561 -0.1353 -0.1935 -0.1533
14609TIP3    H265243   4.313   5.434   5.463 -1.5667 -0.9779 -0.5481
14610TIP3   OH265244   2.770   0.614   3.248 -0.6719  0.2687 -0.6581
14610TIP3    H165245   2.704   0.636   3.181 -0.9047 -0.6467 -0.7355
14610TIP3    H265246   2.827   0.691   3.250 -0.7968  0.4073 -1.7455
14611TIP3   OH265247   1.060   0.548   0.441 -0.3066 -0.1485  0.2723
14611TIP3    H165248   1.125   0.479   0.455  1.0503  1.1345  0.5632
14611TIP3    H265249   1.087   0.590   0.359 -1.5615 -0.4125 -0.3047
14612TIP3   OH265250   4.532   1.243  14.098  0.4512 -0.0744 -0.1494
14612TIP3    H165251   4.475   1.287  14.161  1.4286  0.9342  0.0793
14612TIP3    H265252   4.472   1.200  14.037 -0.5415  0.4800  0.3997
14613TIP3   OH265253   2.065   6.095  11.263  0.2448  0.2675 -0.2417
14613TIP3    H165254   2.090   6.143  11.184  0.9937  0.9853  0.4162
14613TIP3    H265255   2.046   6.006  11.232  0.7282  0.4842 -1.1949
14614TIP3   OH265256   0.288   2.853   5.506 -0.5440  0.2547 -0.1217
14614TIP3    H165257   0.384   2.857   5.501 -0.5536  0.3719 -0.2336
14614TIP3    H265258   0.266   2.917   5.574 -0.3551 -1.9960  2.2046
14615TIP3   OH265259   2.085   0.452   2.493  0.6528 -0.1816  0.2443
14615TIP3    H165260   2.060   0.360   2.491  1.2944 -0.3545 -0.8816
14615TIP3    H265261   2.025   0.494   2.431  1.2747 -0.1102 -0.3280
14616TIP3   OH265262   4.704   4.606   6.273  0.3283 -0.0453 -0.1043
14616TIP3    H165263   4.641   4.558   6.219  0.2333  0.9490 -0.9139
14616TIP3    H265264   4.655   4.681   6.307  1.2780  1.2859 -1.5381
14617TIP3   OH265265   1.660   1.591   0.290 -0.3692 -0.5346 -0.5471
14617TIP3    H165266   1.648   1.517   0.231  1.1143 -0.9724 -0.3262
14617TIP3    H265267   1.679   1.551   0.375 -1.1389  0.1006 -0.0650
14618TIP3   OH265268   2.618   0.401   2.426 -0.7022  0.9752 -0.0294
14618TIP3    H165269   2.551   0.332   2.423  0.0503  0.2161  0.1369
14618TIP3    H265270   2.579   0.474   2.379 -1.0079 -0.0372 -1.4254
14619TIP3   OH265271   3.247   4.484   3.866 -0.0179 -0.2110  0.0128
14619TIP3    H165272   3.285   4.443   3.788  1.7487 -0.3798  0.9129
14619TIP3    H265273   3.278   4.574   3.863  1.5486 -0.6570  1.3832
14620TIP3   OH265274   5.128   2.229   1.784 -0.0592 -0.0125  0.0971
14620TIP3    H165275   5.199   2.182   1.743 -1.1270 -2.8212  1.2282
14620TIP3    H265276   5.151   2.321   1.774  2.4009 -0.7384 -1.8066
14621TIP3   OH265277   1.334   3.742  14.795 -0.1577  0.7593  0.3346
14621TIP3    H165278   1.311   3.752  14.703  0.4930  0.0081  0.0688
14621TIP3    H265279   1.391   3.665  14.796  1.7374  2.1044  1.0343
14622TIP3   OH265280   5.807   6.054   2.791 -0.3526 -0.2113 -0.3557
14622TIP3    H165281   5.861   5.987   2.749 -1.6496 -0.1286 -2.2730
14622TIP3    H265282   5.851   6.071   2.875  0.4355 -2.8654 -0.1445
14623TIP3   OH265283   4.407   1.470  11.188 -0.1345 -0.0744 -0.6324
14623TIP3    H165284   4.454   1.386  11.190  2.0353  1.0836  1.3957
14623TIP3    H265285   4.321   1.449  11.224  0.8301 -1.2402  1.1764
14624TIP3   OH265286   5.231   3.256   1.293  0.0879  0.6232  0.0644
14624TIP3    H165287   5.155   3.202   1.274  0.7031  0.1343 -1.1213
14624TIP3    H265288   5.198   3.328   1.346 -1.4028  1.0135 -1.3296
14625TIP3   OH265289   5.513   2.734  11.573  1.0408 -0.2430 -0.1667
14625TIP3    H165290   5.455   2.801  11.609 -1.8308 -2.1670 -0.8619
14625TIP3    H265291   5.554   2.694  11.649 -0.0891 -0.0958  0.5491
14626TIP3   OH265292   0.391   6.460   3.822  0.4892  0.5094 -0.1197
14626TIP3    H165293   0.399   6.443   3.916 -0.4462  1.9163  0.2524
14626TIP3    H265294   0.469   6.511   3.800  0.1648  1.1239  0.1423
14627TIP3   OH265295   6.104   3.582  17.584  0.4591  0.0629  0.3025
14627TIP3    H165296   6.119   3.551  17.673 -2.1084 -1.7329  0.2169
14627TIP3    H265297   6.185   3.561  17.537  0.9884 -1.1038  1.6615
14628TIP3   OH265298   1.605   3.798  11.782 -1.1804 -0.0634  0.1096
14628TIP3    H165299   1.558   3.732  11.833  0.7186  0.2275  2.4232
14628TIP3    H265300   1.537   3.858  11.751 -2.5589 -0.9571  1.2855
14629TIP3   OH265301   6.367   6.120  15.891 -0.1694 -0.2345  1.0342
14629TIP3    H165302   6.393   6.166  15.970 -1.4448 -0.3692  1.5655
14629TIP3    H265303   6.298   6.060  15.919  0.0111 -0.9782 -0.0133
14630TIP3   OH265304   2.119   1.877   2.182  0.0122  0.0207  1.2602
14630TIP3    H165305   2.035   1.836   2.205  0.8290 -1.9181  0.9390
14630TIP3    H265306   2.156   1.905   2.265 -1.5025  2.1823  1.3222
14631TIP3   OH265307   4.272   3.425  14.320 -0.5361  0.1033  0.1323
14631TIP3    H165308   4.347   3.447  14.375  0.5594 -2.2331 -0.2985
14631TIP3    H265309   4.295   3.456  14.233 -0.5360  0.2982  0.2015
14632TIP3   OH265310   0.304   5.205  14.554 -0.4301 -0.0183 -0.2899
14632TIP3    H165311   0.225   5.178  14.506 -0.4669 -0.1061 -0.1794
14632TIP3    H265312   0.350   5.123  14.571 -1.7300 -0.3121  2.1894
14633TIP3   OH265313   0.010   3.184   2.466  0.1494  0.1861 -0.2164
14633TIP3    H165314  -0.050   3.130   2.415  0.9853 -0.7698 -0.2042
14633TIP3    H265315   0.074   3.216   2.403  0.5997 -0.1700  0.0590
14634TIP3   OH265316   2.064   5.281   3.109 -0.3147  0.2868  0.1988
14634TIP3    H165317   2.036   5.283   3.201 -0.5092  1.6154  0.1376
14634TIP3    H265318   2.040   5.368   3.075  1.0838  0.3404 -0.7084
14635TIP3   OH265319   0.475   3.077   2.658 -0.0302 -0.0077 -0.1193
14635TIP3    H165320   0.563   3.100   2.687 -1.0910  2.8257  1.2295
14635TIP3    H265321   0.436   3.160   2.631 -2.5963 -1.0143  0.2019
14636TIP3   OH265322   2.883   6.031   6.834  0.2832 -0.1876  0.5058
14636TIP3    H165323   2.917   5.960   6.780 -1.1730  0.5248 -1.4493
14636TIP3    H265324   2.790   6.013   6.843 -0.4456  2.1193 -1.2619
14637TIP3   OH265325   4.199   3.092  14.740  0.1468  0.8052 -0.1147
14637TIP3    H165326   4.260   3.153  14.781 -0.7119  1.4222  0.2717
14637TIP3    H265327   4.126   3.147  14.710 -0.8870 -0.0726  0.7147
14638TIP3   OH265328   3.102   3.574   6.225  0.4086 -0.3722 -0.6450
14638TIP3    H165329   3.125   3.633   6.298  0.3579  1.3247 -1.9305
14638TIP3    H265330   3.008   3.561   6.234  0.0332  1.4334 -1.4584
14639TIP3   OH265331   5.092   1.732  17.114 -0.1901  0.1080 -0.0701
14639TIP3    H165332   5.055   1.646  17.094  1.5459 -0.9926  1.1367
14639TIP3    H265333   5.127   1.762  17.030  0.5765 -1.1088 -0.2120
14640TIP3   OH265334   6.635   4.854   5.051 -0.2009 -0.1237 -0.4890
14640TIP3    H165335   6.632   4.916   4.978  0.4098  0.1608 -0.2830
14640TIP3    H265336   6.722   4.867   5.090 -0.6107 -0.0940  0.4448
14641TIP3   OH265337   1.900   2.539   6.339  0.5654 -0.2502 -0.1004
14641TIP3    H165338   1.989   2.570   6.326  0.3731  0.7184  0.7733
14641TIP3    H265339   1.885   2.478   6.267  1.3126  0.9261 -1.2894
14642TIP3   OH265340   2.242   2.481  12.916  0.4607  0.1272 -0.2960
14642TIP3    H165341   2.167   2.530  12.949  1.4697  1.0118  0.7545
14642TIP3    H265342   2.273   2.431  12.991 -0.5577 -2.2317 -1.3463
14643TIP3   OH265343   4.367   1.624  12.705 -0.4516 -0.2383  0.1925
14643TIP3    H165344   4.383   1.715  12.680  0.4211 -0.6601 -0.8477
14643TIP3    H265345   4.453   1.589  12.729 -0.4924 -1.2230 -0.9750
14644TIP3   OH265346   6.309   5.508  13.805  0.1011 -0.1319 -0.0034
14644TIP3    H165347   6.243   5.456  13.759  0.4137 -0.5316 -0.0072
14644TIP3    H265348   6.307   5.475  13.895 -1.4001  1.5110  0.6115
14645TIP3   OH265349   5.816   5.778  11.962  0.2530 -0.0642 -0.4400
14645TIP3    H165350   5.815   5.827  11.880  0.1475  0.6754 -0.0047
14645TIP3    H265351   5.869   5.700  11.943  0.9223  0.5070 -0.9683
14646TIP3   OH265352   0.122   0.954  13.550  0.3427  0.2134 -0.0745
14646TIP3    H165353   0.148   0.869  13.587 -0.6714 -0.6643 -1.2675
14646TIP3    H265354   0.028   0.944  13.533 -0.3491  2.4579  1.9764
14647TIP3   OH265355   4.569   3.563  16.084  0.5005  0.1144  0.1992
14647TIP3    H165356   4.479   3.595  16.073 -0.2977 -1.6633  1.1119
14647TIP3    H265357   4.562   3.496  16.152  2.0147 -2.0826 -1.6741
14648TIP3   OH265358   3.317   3.828   4.343  0.4924  0.1209  0.0097
14648TIP3    H165359   3.282   3.901   4.293 -0.4665  0.5323  1.2243
14648TIP3    H265360   3.354   3.868   4.422  1.6541 -0.5432 -0.1700
14649TIP3   OH265361   5.061   5.849   1.739  0.2918 -0.4107  0.1077
14649TIP3    H165362   4.975   5.874   1.773  0.9915  0.3478  1.3832
14649TIP3    H265363   5.091   5.780   1.797  1.4523  0.8234  1.0518
14650TIP3   OH265364   4.752   5.730  14.711 -0.2065  0.4773  0.3742
14650TIP3    H165365   4.791   5.711  14.626 -1.7100 -0.8638 -0.0742
14650TIP3    H265366   4.660   5.703  14.702 -0.3993  0.2451  2.4276
14651TIP3   OH265367   5.564   4.706  12.458 -0.7251 -0.0281  0.4247
14651TIP3    H165368   5.557   4.751  12.542 -0.0495 -1.3679  1.2366
14651TIP3    H265369   5.569   4.613  12.481 -0.8709 -0.4420 -1.1194
14652TIP3   OH265370   3.098   1.439  12.489 -0.5095  0.9058 -0.6610
14652TIP3    H165371   3.158   1.470  12.557 -1.3664  0.2250  0.4487
14652TIP3    H265372   3.154   1.419  12.414  0.9179 -1.2424  0.8577
14653TIP3   OH265373   2.391   5.279  10.579 -0.7345  0.4865 -0.3269
14653TIP3    H165374   2.303   5.281  10.542 -0.7462  2.0338 -0.2558
14653TIP3    H265375   2.408   5.369  10.608 -0.2141 -0.3256  2.2121
14654TIP3   OH265376   0.165   5.528   0.209  0.0224 -0.0579  0.9528
14654TIP3    H165377   0.177   5.442   0.170 -0.0703  0.3993 -0.1185
14654TIP3    H265378   0.254   5.564   0.217 -0.0666  0.5562 -0.5284
14655TIP3   OH265379   1.122   5.838  15.658 -0.0941  0.4125  0.0063
14655TIP3    H165380   1.099   5.788  15.735  1.3716 -0.7862 -0.2788
14655TIP3    H265381   1.163   5.918  15.692 -1.4169  0.9213  0.4535
14656TIP3   OH265382   4.331   5.376   2.860  0.0572  0.7182 -0.1351
14656TIP3    H165383   4.273   5.331   2.921  1.0815  2.0469  1.9708
14656TIP3    H265384   4.417   5.337   2.875  0.2847  0.8868 -0.9353
14657TIP3   OH265385   0.759   2.275  14.592  0.1129  0.4602  0.5025
14657TIP3    H165386   0.837   2.219  14.598 -0.4228 -0.5903 -1.5312
14657TIP3    H265387   0.786   2.358  14.633  1.4599 -0.7004  2.0952
14658TIP3   OH265388   0.634   6.696   2.287 -0.3410  0.0764 -0.1655
14658TIP3    H165389   0.585   6.734   2.360  0.3807  0.4542  0.1328
14658TIP3    H265390   0.724   6.727   2.300 -0.5462  1.7396 -2.2487
14659TIP3   OH265391   5.300   2.645   2.426 -0.0627 -0.0369 -0.1705
14659TIP3    H165392   5.334   2.734   2.436 -1.4555  0.5340 -0.2412
14659TIP3    H265393   5.281   2.638   2.332  0.4970 -0.5867 -0.2440
14660TIP3   OH265394   2.868   2.805  14.561  0.4177 -0.5556 -0.5026
14660TIP3    H165395   2.905   2.885  14.522  0.0869 -0.5548 -0.8282
14660TIP3    H265396   2.924   2.786  14.635 -0.1421  0.6122  0.2561
14661TIP3   OH265397   0.195   1.392   0.614  0.1606  0.5288 -0.2934
14661TIP3    H165398   0.269   1.356   0.664  0.6451  0.2567 -1.1955
14661TIP3    H265399   0.186   1.482   0.647  0.9221  0.5795 -0.1966
14662TIP3   OH265400   4.011   4.349  15.442 -0.1520 -0.0015 -0.1366
14662TIP3    H165401   4.016   4.286  15.370  0.0240  0.3757 -0.4584
14662TIP3    H265402   3.938   4.318  15.496 -0.5642 -0.0554 -0.7055
14663TIP3   OH265403   2.048   2.097   6.339  0.2671  0.3962  0.4119
14663TIP3    H165404   2.067   2.037   6.411 -0.4897  0.3327  0.5617
14663TIP3    H265405   2.008   2.173   6.380  1.3511  1.0937  0.2422
14664TIP3   OH265406   3.229   2.891   5.467 -0.2907  0.0422  0.3795
14664TIP3    H165407   3.199   2.981   5.471 -1.0781 -0.1937 -0.0399
14664TIP3    H265408   3.213   2.864   5.376  2.9280  0.4755 -0.4195
14665TIP3   OH265409   0.669   0.246  16.298  0.3728 -0.3180  0.7905
14665TIP3    H165410   0.578   0.270  16.279  0.3176 -1.0654  0.0622
14665TIP3    H265411   0.707   0.228  16.213  0.3928 -2.8491  1.2626
14666TIP3   OH265412   4.815   5.535  12.192  0.6147  0.0444 -0.3016
14666TIP3    H165413   4.794   5.487  12.272 -0.9887  1.1319 -0.0176
14666TIP3    H265414   4.900   5.576  12.210  0.3888  0.0734  0.7637
14667TIP3   OH265415   5.527   1.735   5.513 -0.0441 -0.3263  0.4219
14667TIP3    H165416   5.614   1.694   5.519 -0.4231 -1.0275  1.2562
14667TIP3    H265417   5.508   1.765   5.602  0.3880  2.0626 -0.2316
14668TIP3   OH265418   3.893   2.583   0.666  0.3090 -0.1960 -0.2349
14668TIP3    H165419   3.974   2.572   0.717  0.1614  0.2550  0.1126
14668TIP3    H265420   3.885   2.678   0.655 -0.8964 -0.1290  0.9507
14669TIP3   OH265421   1.819   5.134  15.799 -0.1411 -0.0553  0.3967
14669TIP3    H165422   1.724   5.133  15.786 -0.1847 -1.0033  0.6868
14669TIP3    H265423   1.854   5.147  15.711 -0.5441  2.5849  0.5610
14670TIP3   OH265424   0.523   0.157   5.024  0.3653  0.1313  0.2316
14670TIP3    H165425   0.541   0.234   4.970  1.0023  0.9222  1.5257
14670TIP3    H265426   0.583   0.164   5.098 -0.6143 -0.8045  1.1674
14671TIP3   OH265427   1.129   2.110   1.869 -0.2256  0.0242 -0.0517
14671TIP3    H165428   1.059   2.132   1.930  0.4211  1.4643  0.2128
14671TIP3    H265429   1.156   2.021   1.893 -0.9847  0.0063  0.7688
14672TIP3   OH265430   3.288   3.816  11.446  0.1158 -0.0525 -0.0810
14672TIP3    H165431   3.284   3.911  11.431 -1.6311  0.1079  1.0762
14672TIP3    H265432   3.280   3.806  11.541 -0.7191 -1.3810 -0.2646
14673TIP3   OH265433   6.401   6.087  11.608 -0.2586 -0.4033  0.5025
14673TIP3    H165434   6.325   6.142  11.589 -0.5170  0.1836  2.9311
14673TIP3    H265435   6.425   6.050  11.523  0.0761  3.5601 -1.3570
14674TIP3   OH265436   3.725   5.205   4.835  0.5358  0.5325  0.4665
14674TIP3    H165437   3.709   5.220   4.742  1.1613 -0.0265  0.2563
14674TIP3    H265438   3.776   5.280   4.863  1.0726  0.2971  0.1470
14675TIP3   OH265439   0.721   0.160   3.423 -0.3034  0.4289 -0.1446
14675TIP3    H165440   0.801   0.134   3.377  1.4802  0.8720  2.4579
14675TIP3    H265441   0.680   0.223   3.365 -0.3949 -1.9227 -2.8829
14676TIP3   OH265442   1.787   3.448   0.543 -0.3870  0.6442  0.1517
14676TIP3    H165443   1.875   3.410   0.545 -0.4022  0.6265  0.5311
14676TIP3    H265444   1.782   3.494   0.459  0.3670  1.5682  0.6030
14677TIP3   OH265445   4.613   5.595  15.965  0.3680 -0.8413 -0.5175
14677TIP3    H165446   4.627   5.511  16.009 -1.6453 -1.2977 -0.6347
14677TIP3    H265447   4.517   5.603  15.959  0.5083  1.4725 -0.4994
14678TIP3   OH265448   1.863   6.273  15.844  0.1233 -0.4062 -0.4748
14678TIP3    H165449   1.831   6.328  15.773 -0.9009 -0.2706  0.0727
14678TIP3    H265450   1.958   6.270  15.832  0.1398  1.0561 -0.8101
14679TIP3   OH265451   6.464   5.574  15.221  0.6142  0.1507 -0.8556
14679TIP3    H165452   6.487   5.605  15.309 -0.6727 -0.8481 -0.1216
14679TIP3    H265453   6.403   5.640  15.188  0.6643  0.2409 -0.7712
14680TIP3   OH265454   5.730   6.043   3.769  0.3786  0.1637  0.5240
14680TIP3    H165455   5.785   6.024   3.693  0.1113 -0.6836  0.5412
14680TIP3    H265456   5.657   6.095   3.733 -1.0805 -2.2639 -0.2962
14681TIP3   OH265457   0.606   0.388   2.605 -0.2899  0.2287 -0.3697
14681TIP3    H165458   0.676   0.448   2.629 -0.3508  0.8209 -1.5880
14681TIP3    H265459   0.526   0.440   2.610 -0.3972  0.1311 -0.9921
14682TIP3   OH265460   6.215   3.585   0.436  0.6039 -0.3965 -0.8556
14682TIP3    H165461   6.270   3.622   0.367  1.4351 -1.8479 -1.0221
14682TIP3    H265462   6.149   3.534   0.388  0.5342 -0.5431 -0.6033
14683TIP3   OH265463   0.003   0.798   2.287  0.5221 -0.1095  0.0333
14683TIP3    H165464  -0.027   0.889   2.292  1.8963  0.4203 -0.7189
14683TIP3    H265465   0.076   0.793   2.348 -0.7383 -1.2785  1.5537
14684TIP3   OH265466   5.837   6.648  15.029  0.2744  0.5025 -0.3197
14684TIP3    H165467   5.835   6.552  15.031  0.7010  0.4950 -0.1303
14684TIP3    H265468   5.923   6.671  15.064  1.3180  0.8582 -2.8904
14685TIP3   OH265469   6.301   4.852  14.291  0.0812 -0.0735 -0.1738
14685TIP3    H165470   6.324   4.759  14.298  2.8878  0.5445  0.0766
14685TIP3    H265471   6.269   4.876  14.378 -1.6294 -0.9815 -0.5113
14686TIP3   OH265472   4.926   3.976   3.001 -0.2995  0.1684  0.0113
14686TIP3    H165473   4.984   3.923   2.946  0.7409  0.7330  0.5351
14686TIP3    H265474   4.838   3.954   2.971  0.1432 -1.1938 -0.3785
14687TIP3   OH265475   6.049   3.712   0.938  0.2411 -0.0617 -0.0569
14687TIP3    H165476   5.984   3.744   0.876  0.5262 -0.8969 -0.8073
14687TIP3    H265477   6.127   3.764   0.920  0.7543 -1.2371 -1.3867
14688TIP3   OH265478   1.993   3.759  12.855  0.4983  0.0510  0.6157
14688TIP3    H165479   2.071   3.812  12.841  1.8676 -2.1154 -0.5907
14688TIP3    H265480   1.924   3.804  12.805  1.1238  1.6102  1.0987
14689TIP3   OH265481   5.233   4.688   2.566  0.3086 -0.3764  0.3524
14689TIP3    H165482   5.290   4.613   2.580 -1.0235 -1.5002 -0.0166
14689TIP3    H265483   5.165   4.656   2.506  0.5802  1.5855 -1.0838
14690TIP3   OH265484   0.241   4.214  11.269 -0.4877  0.0789 -0.1972
14690TIP3    H165485   0.244   4.204  11.365 -0.1203  0.1356 -0.2008
14690TIP3    H265486   0.219   4.127  11.237 -4.7819  0.8095  0.1120
14691TIP3   OH265487   0.666   1.525   4.895 -0.0168 -0.5416 -0.3864
14691TIP3    H165488   0.761   1.523   4.886  0.0216 -1.1168  0.1138
14691TIP3    H265489   0.635   1.564   4.813  0.7151  0.8819 -0.0122
14692TIP3   OH265490   6.616   6.490   5.800  0.0413 -0.5928  0.5594
14692TIP3    H165491   6.556   6.556   5.834  0.0459 -0.7049  0.7860
14692TIP3    H265492   6.568   6.407   5.805  0.5344 -0.8276  1.6089
14693TIP3   OH265493   0.770   4.816   2.192  0.6543  0.6347 -0.6559
14693TIP3    H165494   0.844   4.850   2.242  0.9651 -1.5963  0.5397
14693TIP3    H265495   0.803   4.806   2.103  2.3173 -1.5570  0.1150
14694TIP3   OH265496   2.710   1.418   4.406  0.1940  0.5519  0.4336
14694TIP3    H165497   2.709   1.445   4.314  0.1545 -1.3084 -0.1559
14694TIP3    H265498   2.648   1.476   4.449  0.3334  1.5568 -0.6819
14695TIP3   OH265499   5.076   6.042  14.973 -0.3282  0.7070  0.4570
14695TIP3    H165500   5.088   5.979  15.044  0.6765  1.1512  0.6944
14695TIP3    H265501   5.165   6.060  14.941 -0.6930  1.1808 -0.3245
14696TIP3   OH265502   2.122   0.624   2.699 -0.5455  0.2652 -0.1040
14696TIP3    H165503   2.121   0.549   2.640 -1.8679 -1.0196  1.4437
14696TIP3    H265504   2.198   0.610   2.755 -0.6287  0.2228 -0.0007
14697TIP3   OH265505   3.610   1.389   3.850  0.0650 -0.4923 -0.5783
14697TIP3    H165506   3.595   1.314   3.792 -2.5809 -0.3098 -0.2692
14697TIP3    H265507   3.593   1.466   3.795 -0.1683 -0.2374 -0.1579
14698TIP3   OH265508   1.882   2.577   0.499  0.4283 -0.0097 -0.2123
14698TIP3    H165509   1.927   2.495   0.517 -1.8978 -1.5633 -1.0985
14698TIP3    H265510   1.894   2.591   0.405  1.2022  0.9736  0.0045
14699TIP3   OH265511   4.002   3.361  15.706  0.0442  0.1528 -0.0583
14699TIP3    H165512   4.016   3.338  15.798  0.8805  1.0006  0.0448
14699TIP3    H265513   4.014   3.456  15.702  0.7291  0.0466 -1.1558
14700TIP3   OH265514   1.974   2.243  15.588  0.0338  0.5428  0.3860
14700TIP3    H165515   1.973   2.198  15.673 -0.0719 -3.6254 -1.5704
14700TIP3    H265516   1.884   2.239  15.557  0.5696 -1.0253 -1.1956
14701TIP3   OH265517   4.573   6.178   3.004  0.0272  0.0639 -0.5034
14701TIP3    H165518   4.508   6.132   3.056  0.7294 -0.3909 -0.0198
14701TIP3    H265519   4.524   6.249   2.962 -0.9148 -0.6681 -0.6798
14702TIP3   OH265520   4.405   5.575   0.787 -0.7423  0.1326  0.4969
14702TIP3    H165521   4.427   5.668   0.781 -1.4362  0.2797  0.2153
14702TIP3    H265522   4.454   5.545   0.864  0.0469  0.5623  0.1749
14703TIP3   OH265523   1.347   0.421   0.970 -0.1777 -0.2211 -0.3496
14703TIP3    H165524   1.331   0.496   0.913 -0.9858  0.0148  0.1601
14703TIP3    H265525   1.290   0.352   0.936  1.1805 -0.8978 -1.3291
14704TIP3   OH265526   6.577   3.733   5.317 -0.4906 -0.0181 -0.2413
14704TIP3    H165527   6.523   3.805   5.350  1.6011  1.8770 -0.6836
14704TIP3    H265528   6.587   3.675   5.392 -0.7669  1.1047  0.7007
14705TIP3   OH265529   5.407   1.423  11.516  0.8886  0.0237 -0.1634
14705TIP3    H165530   5.384   1.440  11.424 -1.2560 -2.0058 -0.0819
14705TIP3    H265531   5.359   1.490  11.565  1.3928  0.6045 -0.4491
14706TIP3   OH265532   4.638   4.170  16.409  0.0409  0.9351 -0.3115
14706TIP3    H165533   4.543   4.165  16.401 -0.0387  1.8182 -0.0232
14706TIP3    H265534   4.659   4.262  16.396  0.6897  1.0330  1.1356
14707TIP3   OH265535   3.493   0.075   2.892 -0.0181  0.1033 -0.1727
14707TIP3    H165536   3.520   0.162   2.861  0.8555  0.0696  0.4357
14707TIP3    H265537   3.530   0.015   2.828 -0.7542  0.1860 -0.6780
14708TIP3   OH265538   6.700   2.116  15.408  0.0976 -0.3964  0.0564
14708TIP3    H165539   6.756   2.039  15.395  1.3890  0.7399 -1.5445
14708TIP3    H265540   6.740   2.163  15.481 -1.4299 -1.8215  1.8881
14709TIP3   OH265541   4.485   0.923  16.416 -0.3965 -0.3248 -0.5357
14709TIP3    H165542   4.515   1.002  16.459 -0.1888 -0.8218  0.2459
14709TIP3    H265543   4.526   0.925  16.329  0.1304  0.0897 -0.2747
14710TIP3   OH265544   5.679   0.766  16.277  0.4811  0.0041  0.4484
14710TIP3    H165545   5.672   0.715  16.357 -1.4553 -2.0220 -0.8801
14710TIP3    H265546   5.603   0.824  16.278  0.6562  0.2422  0.2520
14711TIP3   OH265547   3.027   5.487   5.460  0.6170  0.3899 -0.6786
14711TIP3    H165548   3.054   5.579   5.463 -0.1249  0.5882  0.7880
14711TIP3    H265549   3.089   5.443   5.518  0.4601  0.1102 -0.7227
14712TIP3   OH265550   1.758   2.000   3.797 -0.1466  0.1153  0.3046
14712TIP3    H165551   1.754   1.911   3.831  1.5397  0.4399  1.4812
14712TIP3    H265552   1.820   1.995   3.723 -2.8517 -0.3439 -2.1230
14713TIP3   OH265553   2.815   4.527  15.080  0.3722  0.1948  0.1784
14713TIP3    H165554   2.753   4.505  15.011 -0.1125  0.4140  0.5415
14713TIP3    H265555   2.899   4.535  15.035  0.3363 -1.1446 -0.1573
14714TIP3   OH265556   6.301   3.823   6.075  0.7752 -0.1339  0.0718
14714TIP3    H165557   6.326   3.745   6.125  0.7547 -0.3429 -0.2367
14714TIP3    H265558   6.273   3.886   6.141  1.0186 -0.3048  0.3427
14715TIP3   OH265559   1.554   1.968  17.392  0.2139 -0.3223 -0.3435
14715TIP3    H165560   1.512   2.050  17.365  0.9954 -0.3999 -1.9144
14715TIP3    H265561   1.570   1.922  17.310  1.5291 -1.1909  0.3770
14716TIP3   OH265562   3.141   2.647  17.294 -0.7863  0.2323 -0.3737
14716TIP3    H165563   3.234   2.667  17.285 -0.6851 -0.8095 -1.8377
14716TIP3    H265564   3.119   2.680  17.381  0.7643  1.1730 -0.2925
14717TIP3   OH265565   6.684   3.452  14.975  0.1961 -1.1909  0.2801
14717TIP3    H165566   6.726   3.367  14.988  1.0253 -0.5171  2.5166
14717TIP3    H265567   6.753   3.515  14.994 -0.4212  0.0103 -1.2789
14718TIP3   OH265568   0.109   1.589  13.079 -0.1194 -1.0869 -0.2286
14718TIP3    H165569   0.180   1.651  13.063 -1.1496  0.0839 -0.4646
14718TIP3    H265570   0.034   1.627  13.032 -0.7191 -2.6560 -0.6015
14719TIP3   OH265571   4.626   0.787  11.288  0.6170 -0.4543 -0.7127
14719TIP3    H165572   4.532   0.771  11.292  0.5648 -0.2204 -1.0359
14719TIP3    H265573   4.654   0.749  11.205  0.4611  1.2750 -1.5988
14720TIP3   OH265574   4.665   4.148   1.076 -0.1151 -0.1797 -0.4888
14720TIP3    H165575   4.672   4.122   0.984 -1.1852 -1.3082 -0.2835
14720TIP3    H265576   4.618   4.231   1.074  0.0669 -0.0812 -0.9618
14721TIP3   OH265577   4.051   2.677  14.686 -1.1301 -0.5542 -0.0826
14721TIP3    H165578   4.022   2.743  14.623  0.2867  0.2971  0.1150
14721TIP3    H265579   4.109   2.724  14.745 -2.5847 -1.2842  2.0367
14722TIP3   OH265580   3.924   1.407  15.266  0.1644 -0.0365  0.2189
14722TIP3    H165581   3.968   1.336  15.313 -2.3036 -1.4880  0.5034
14722TIP3    H265582   3.982   1.426  15.192  1.0043 -2.1790  0.2609
14723TIP3   OH265583   4.192   4.647  12.238  0.2777  0.4230 -0.1599
14723TIP3    H165584   4.224   4.686  12.319 -0.1373 -0.7048  0.5830
14723TIP3    H265585   4.251   4.573  12.222 -0.9912 -0.7723  0.4181
14724TIP3   OH265586   3.396   5.941   4.502  0.1305  0.2383 -0.0804
14724TIP3    H165587   3.368   6.018   4.552  0.2906  0.9272 -1.0337
14724TIP3    H265588   3.316   5.889   4.492  0.0999  0.0704  0.8963
14725TIP3   OH265589   6.624   1.900  16.322  0.2661 -0.4544 -0.1833
14725TIP3    H165590   6.689   1.929  16.258  1.7052 -2.0987  0.4475
14725TIP3    H265591   6.676   1.867  16.396 -1.3285 -0.0770  1.1777
14726TIP3   OH265592   6.067   2.660   2.076  0.4582  0.2610 -0.2037
14726TIP3    H165593   6.012   2.731   2.110  0.6804  0.5327 -0.4028
14726TIP3    H265594   6.064   2.672   1.981 -0.2896 -0.5887 -0.2920
14727TIP3   OH265595   5.728   1.428  11.974  0.5132  0.1497 -0.5880
14727TIP3    H165596   5.716   1.456  12.065  0.3756  1.5383 -1.0128
14727TIP3    H265597   5.768   1.341  11.981  0.4975  0.2246  0.7933
14728TIP3   OH265598   4.353   1.244  13.835 -0.5209 -0.6380  0.2696
14728TIP3    H165599   4.282   1.271  13.892 -0.2226 -0.5871  0.6193
14728TIP3    H265600   4.318   1.168  13.787 -1.1181 -0.0648 -0.2153
14729TIP3   OH265601   4.645   2.205   2.085 -0.0687  0.2992  0.8755
14729TIP3    H165602   4.623   2.297   2.099 -0.4349  0.3150  0.2122
14729TIP3    H265603   4.728   2.207   2.036  2.3153  0.2441  4.5261
14730TIP3   OH265604   6.273   2.818   5.751  0.1505 -0.2544  0.1593
14730TIP3    H165605   6.362   2.807   5.784 -0.0886 -0.3263  0.8011
14730TIP3    H265606   6.233   2.881   5.811 -0.4812 -0.8452  0.3727
14731TIP3   OH265607   1.519   3.802  16.640  0.6025 -0.1440  0.2218
14731TIP3    H165608   1.578   3.805  16.715 -1.5583 -0.8988  2.0701
14731TIP3    H265609   1.468   3.722  16.652 -0.8231  0.4654 -1.2473
14732TIP3   OH265610   5.901   4.629  13.954  0.4710 -0.4984 -0.6426
14732TIP3    H165611   5.880   4.558  14.014 -1.5383  0.7157  0.2192
14732TIP3    H265612   5.988   4.608  13.921  1.3695 -1.6263  2.1361
14733TIP3   OH265613   4.173   2.993   5.316  0.0994  0.7355  0.1275
14733TIP3    H165614   4.116   2.919   5.333  2.5672 -0.9812  1.6907
14733TIP3    H265615   4.184   2.994   5.221  0.0002 -0.9439  0.0724
14734TIP3   OH265616   2.967   1.449   1.957  0.0205  0.6174 -0.4567
14734TIP3    H165617   3.020   1.493   1.891  1.0789  0.4014  0.2262
14734TIP3    H265618   3.023   1.377   1.987 -1.7324 -1.3922 -1.7211
14735TIP3   OH265619   3.048   0.028  15.877 -0.5402  0.0696 -0.1550
14735TIP3    H165620   3.093  -0.035  15.821  0.2453  0.4621  0.0291
14735TIP3    H265621   3.014  -0.024  15.949 -0.1363 -0.1889 -0.1492
14736TIP3   OH265622   4.881   4.568   5.183  0.1176  0.6928 -0.2282
14736TIP3    H165623   4.941   4.521   5.125  1.0028  0.6916  0.6585
14736TIP3    H265624   4.847   4.639   5.129  0.5451  0.4092 -0.8955
14737TIP3   OH265625   6.214   0.570   3.583  0.4315  0.2940  0.1825
14737TIP3    H165626   6.227   0.521   3.664 -1.6423  0.4000  0.6414
14737TIP3    H265627   6.289   0.630   3.579  0.4669  0.4596  2.1639
14738TIP3   OH265628   1.163   0.691   3.021  0.0824 -0.0978 -0.0847
14738TIP3    H165629   1.105   0.696   2.945 -1.4183  0.8681  1.0579
14738TIP3    H265630   1.150   0.603   3.056 -0.2661 -0.0827 -0.1735
14739TIP3   OH265631   0.230   3.527   4.913 -0.0958  0.4515 -0.0375
14739TIP3    H165632   0.189   3.495   4.833  1.3051 -3.7781  0.6923
14739TIP3    H265633   0.300   3.585   4.883 -0.3468 -0.1169 -1.8286
14740TIP3   OH265634   6.213   3.363   1.383  0.0325  0.0130  0.2223
14740TIP3    H165635   6.183   3.363   1.474 -2.8190 -0.2150 -0.5995
14740TIP3    H265636   6.232   3.455   1.364  0.8928  0.0311  1.0863
14741TIP3   OH265637   4.877   1.726  12.488 -0.2787  0.4682  0.6886
14741TIP3    H165638   4.802   1.735  12.430  1.2737  0.5109 -1.4403
14741TIP3    H265639   4.903   1.817  12.508  1.4521  0.6158 -1.7797
14742TIP3   OH265640   4.625   4.442   2.653 -0.0368  0.2247 -0.4775
14742TIP3    H165641   4.666   4.388   2.586  0.7345 -0.5366  0.5762
14742TIP3    H265642   4.540   4.467   2.615 -1.0135 -2.7710 -0.5321
14743TIP3   OH265643   2.567   5.043   5.915  0.0863 -0.2115 -0.0482
14743TIP3    H165644   2.623   5.062   5.990 -1.2293  0.7590  0.7363
14743TIP3    H265645   2.523   4.961   5.937 -0.5104  0.2187  0.3824
14744TIP3   OH265646   0.402   6.383   3.286  0.0468  0.1877  0.2702
14744TIP3    H165647   0.469   6.330   3.243  2.0426  2.2229  0.6530
14744TIP3    H265648   0.388   6.456   3.225 -0.0338  1.0212  1.2628
14745TIP3   OH265649   2.197   4.009   2.345  0.0527  0.3091  1.0189
14745TIP3    H165650   2.258   3.952   2.298 -0.9863 -0.3997  0.4933
14745TIP3    H265651   2.163   4.068   2.279 -0.6854 -0.0544  1.0649
14746TIP3   OH265652   4.962   2.657   1.318  0.7266  0.2070  0.0840
14746TIP3    H165653   4.926   2.607   1.245  1.3243 -0.5242  0.2836
14746TIP3    H265654   4.979   2.592   1.386 -0.0031  0.8963  0.9662
14747TIP3   OH265655   2.778   4.923  12.843 -0.0062  0.3047  0.5884
14747TIP3    H165656   2.854   4.872  12.817  0.6187  0.3807  2.1822
14747TIP3    H265657   2.710   4.897  12.781  0.3421 -2.3135  1.1732
14748TIP3   OH265658   4.446   3.610  15.109 -0.0919 -0.5475 -0.6367
14748TIP3    H165659   4.409   3.538  15.158  0.9714 -0.8857 -0.2955
14748TIP3    H265660   4.508   3.569  15.049  0.7816  0.0870 -0.1997
14749TIP3   OH265661   3.448   5.315   0.980 -0.1306  0.1824  0.4861
14749TIP3    H165662   3.522   5.264   0.946  0.1794  0.6961  0.3637
14749TIP3    H265663   3.487   5.368   1.050 -0.2786  0.7854  0.1233
14750TIP3   OH265664   4.803   5.685   3.795 -0.5931  0.0623  0.0292
14750TIP3    H165665   4.840   5.769   3.822 -0.0668 -0.0018 -0.4754
14750TIP3    H265666   4.730   5.671   3.855 -1.0382  1.1481 -0.2264
14751TIP3   OH265667   1.954   4.594  17.340 -0.0614  0.4300 -0.3632
14751TIP3    H165668   2.017   4.542  17.391  2.8724  0.5474 -3.5057
14751TIP3    H265669   1.929   4.665  17.399  1.8417 -0.3095  1.4663
14752TIP3   OH265670   6.264   3.725   5.424 -0.1875 -0.2742  0.5163
14752TIP3    H165671   6.272   3.817   5.399 -0.6281 -0.4894 -0.4465
14752TIP3    H265672   6.277   3.725   5.519  0.0986  0.7399  0.4894
14753TIP3   OH265673   2.768   6.707   3.031 -0.4048 -0.2039  0.5829
14753TIP3    H165674   2.813   6.667   3.106  3.0365  0.9972 -0.6496
14753TIP3    H265675   2.837   6.718   2.965 -1.8605  4.3422 -0.5333
14754TIP3   OH265676   4.136   1.786  15.602  0.1445  0.1399  1.1189
14754TIP3    H165677   4.079   1.719  15.638 -0.8056 -0.5599 -1.4496
14754TIP3    H265678   4.085   1.867  15.607 -0.9053 -0.3598 -0.5433
14755TIP3   OH265679   1.973   6.624  13.734 -0.2273 -0.3693  0.1029
14755TIP3    H165680   1.998   6.708  13.696 -1.7769  0.4084  0.7130
14755TIP3    H265681   2.055   6.585  13.762  0.8445 -0.3961 -2.7895
14756TIP3   OH265682   1.536   3.493  15.560  0.7043 -0.0183  0.1432
14756TIP3    H165683   1.459   3.522  15.608  2.0359  1.6868  1.3919
14756TIP3    H265684   1.513   3.505  15.468 -1.0870 -1.1653  0.4032
14757TIP3   OH265685   2.901   3.234   1.945  0.1822  0.3927  0.1597
14757TIP3    H165686   2.819   3.189   1.924  0.4045 -0.1634  0.4499
14757TIP3    H265687   2.955   3.222   1.867 -0.3598  1.6017 -0.4115
14758TIP3   OH265688   4.615   3.968  12.934 -0.3352  0.0803 -0.0604
14758TIP3    H165689   4.616   4.020  13.015 -0.0616  2.5253 -1.5410
14758TIP3    H265690   4.537   3.997  12.887 -0.5944 -1.4404 -0.6411
14759TIP3   OH265691   1.534   2.357   2.617  0.0949  0.2810 -0.0107
14759TIP3    H165692   1.599   2.423   2.594  0.6107 -0.2805 -0.2104
14759TIP3    H265693   1.451   2.394   2.587  0.6803 -0.2683 -2.6337
14760TIP3   OH265694   6.385   2.443   0.858 -0.0861 -0.3099  0.4994
14760TIP3    H165695   6.467   2.492   0.865 -0.8599  0.9741  0.9091
14760TIP3    H265696   6.410   2.361   0.817  1.3610  0.1764  0.3450
14761TIP3   OH265697   1.645   0.371   1.852  0.2810 -0.2861  0.2103
14761TIP3    H165698   1.665   0.462   1.832 -0.7665 -0.1096 -0.0445
14761TIP3    H265699   1.550   0.364   1.844  0.4795 -1.7968 -1.5101
14762TIP3   OH265700   6.574   4.902   5.349 -0.0249  0.1508  0.0598
14762TIP3    H165701   6.509   4.947   5.403  1.9464  0.5650  2.2549
14762TIP3    H265702   6.622   4.972   5.305  0.4153 -0.0156  0.2685
14763TIP3   OH265703   3.250   2.102  11.434  0.7180  0.8959  0.9246
14763TIP3    H165704   3.291   2.122  11.350  0.5401  0.3477  0.6980
14763TIP3    H265705   3.279   2.013  11.454 -2.4243 -0.6865 -0.6031
14764TIP3   OH265706   5.937   0.435  13.781 -0.6040 -0.4279  0.4417
14764TIP3    H165707   5.919   0.343  13.803 -3.2521 -0.0305  0.2154
14764TIP3    H265708   5.858   0.482  13.808  0.6431  1.8029  0.4359
14765TIP3   OH265709   4.106   0.582   0.817  0.3220 -0.0670  0.2015
14765TIP3    H165710   4.018   0.576   0.779  0.6094  0.7146 -0.6421
14765TIP3    H265711   4.101   0.530   0.897 -0.7244 -0.5704 -0.1657
14766TIP3   OH265712   6.412   0.607  14.727  0.0233 -0.5214  0.4036
14766TIP3    H165713   6.332   0.572  14.766  0.6084 -1.2285  0.9681
14766TIP3    H265714   6.482   0.581  14.786  0.6269  0.5162  0.1680
14767TIP3   OH265715   5.556   5.928  14.139 -0.0233 -0.0713  0.3066
14767TIP3    H165716   5.622   5.863  14.165 -1.5899 -2.1600 -0.6021
14767TIP3    H265717   5.498   5.935  14.214 -1.0237 -1.3696 -0.3034
14768TIP3   OH265718   3.090   5.078  11.910  0.3508 -0.3831  0.1844
14768TIP3    H165719   3.129   4.994  11.886  0.1639 -0.4478  0.1108
14768TIP3    H265720   3.050   5.062  11.995 -1.1903 -0.8521 -0.5811
14769TIP3   OH265721   4.277   4.714   6.229  0.1498 -0.7708  0.3519
14769TIP3    H165722   4.353   4.768   6.206 -1.0876 -0.0549 -2.4544
14769TIP3    H265723   4.244   4.754   6.309  1.2468  0.5328  0.2041
14770TIP3   OH265724   2.754   0.647  11.708 -0.1941 -0.0568  0.5641
14770TIP3    H165725   2.734   0.699  11.630  0.6598  0.5964  0.7676
14770TIP3    H265726   2.798   0.569  11.674  2.2677  1.2676  0.4839
14771TIP3   OH265727   5.374   1.341  11.810  0.1209 -0.5650 -0.0314
14771TIP3    H165728   5.281   1.359  11.820  0.1528 -0.1881 -0.3901
14771TIP3    H265729   5.403   1.401  11.741  1.1434  1.0459  1.7201
14772TIP3   OH265730   1.682   4.669  11.979 -0.1720 -0.1454 -0.0962
14772TIP3    H165731   1.746   4.617  12.027 -0.0129 -1.1152 -1.2962
14772TIP3    H265732   1.599   4.626  11.996 -0.1077 -0.5270 -0.6959
14773TIP3   OH265733   3.791   4.593  15.643 -0.0596 -0.0291  0.5277
14773TIP3    H165734   3.854   4.650  15.599 -1.2903  0.1088 -1.1449
14773TIP3    H265735   3.759   4.646  15.717 -0.9454  1.3852 -0.7999
14774TIP3   OH265736   0.495   1.441  10.849  0.1562  0.4391  0.4573
14774TIP3    H165737   0.445   1.360  10.844 -1.2899  1.3737 -1.1623
14774TIP3    H265738   0.432   1.507  10.875  0.7530  1.4615 -0.5853
14775TIP3   OH265739   4.083   0.912  14.496 -0.1300 -0.2544 -0.6410
14775TIP3    H165740   4.173   0.886  14.475 -0.6496 -3.7085  0.7989
14775TIP3    H265741   4.038   0.913  14.412  0.8958  0.1395 -1.2148
14776TIP3   OH265742   3.144   1.550   1.114  0.2460 -0.1909 -0.3258
14776TIP3    H165743   3.172   1.633   1.076 -0.9026  1.4397  2.1319
14776TIP3    H265744   3.212   1.528   1.178 -0.3889 -0.0988  0.3978
14777TIP3   OH265745   4.379   5.969  11.836 -0.1382  0.5253  0.1928
14777TIP3    H165746   4.304   6.029  11.835 -0.5108  0.0663  0.0579
14777TIP3    H265747   4.343   5.886  11.805  0.3453  0.1980  0.5075
14778TIP3   OH265748   6.608   1.444   0.815  0.0074 -0.0778  0.0546
14778TIP3    H165749   6.583   1.416   0.726  0.7775 -1.2158  0.1739
14778TIP3    H265750   6.528   1.432   0.866  0.1575 -1.6857 -0.0150
14779TIP3   OH265751   2.981   1.189   3.821  0.0839  1.0389  0.4712
14779TIP3    H165752   3.022   1.111   3.858 -0.9741 -0.3137 -1.0894
14779TIP3    H265753   2.887   1.170   3.823 -0.2665  2.6636  0.8706
14780TIP3   OH265754   5.121   6.294   3.094 -0.4005 -0.0448 -0.2220
14780TIP3    H165755   5.158   6.351   3.027  0.0214 -2.3588 -2.0808
14780TIP3    H265756   5.180   6.219   3.097 -1.7837 -1.1367  0.9805
14781TIP3   OH265757   5.398   1.972  16.168 -0.5034 -0.2562  0.1772
14781TIP3    H165758   5.323   2.029  16.184 -0.2248  0.2560 -0.3161
14781TIP3    H265759   5.363   1.903  16.110 -0.7268 -0.3324  0.4032
14782TIP3   OH265760   3.849   4.717   1.204  0.0914 -0.1527 -0.3180
14782TIP3    H165761   3.907   4.657   1.250 -1.0406 -0.8486  0.2371
14782TIP3    H265762   3.828   4.785   1.268 -0.9026 -0.7278 -0.0185
14783TIP3   OH265763   1.116   5.373  15.615 -0.3384  0.3830 -0.9618
14783TIP3    H165764   1.187   5.414  15.664 -0.1246 -1.1021  0.0470
14783TIP3    H265765   1.070   5.321  15.681 -0.3046 -1.3365 -2.2436
14784TIP3   OH265766   6.174   0.897  10.701  0.0682  0.6816 -0.3233
14784TIP3    H165767   6.143   0.979  10.741 -0.2247  0.0894  0.6709
14784TIP3    H265768   6.256   0.877  10.747  0.2984  0.5670 -0.7776
14785TIP3   OH265769   6.700   5.116   6.403  0.1370  0.1613  0.3835
14785TIP3    H165770   6.736   5.199   6.434  2.7325  0.8963 -3.7251
14785TIP3    H265771   6.758   5.049   6.440  1.5023  0.7651 -0.5562
14786TIP3   OH265772   1.346   5.987   1.094 -0.5997  0.1884  0.2921
14786TIP3    H165773   1.346   6.069   1.046 -0.4386  0.2909  0.4672
14786TIP3    H265774   1.289   5.929   1.043  1.3431 -0.4424 -1.2878
14787TIP3   OH265775   5.013   6.239   5.394 -0.5225 -0.4318 -0.2776
14787TIP3    H165776   5.013   6.251   5.299  1.6450 -0.9289 -0.4123
14787TIP3    H265777   5.063   6.313   5.427 -1.0072 -0.4245  0.4549
14788TIP3   OH265778   2.640   1.762   2.480 -0.6333  0.3395 -0.0515
14788TIP3    H165779   2.657   1.702   2.552  1.0007  1.7285  0.7939
14788TIP3    H265780   2.601   1.839   2.522  1.0617  1.4888 -0.4666
14789TIP3   OH265781   2.381   2.733   2.730 -0.0746  0.2410 -0.7958
14789TIP3    H165782   2.434   2.685   2.666  0.6396 -1.0117  0.6717
14789TIP3    H265783   2.377   2.822   2.695 -0.4612 -0.5685 -3.0242
14790TIP3   OH265784   2.679   2.106  12.995 -0.3724 -0.0485  0.7728
14790TIP3    H165785   2.767   2.074  13.014 -0.5195 -0.7743  0.2609
14790TIP3    H265786   2.644   2.133  13.080  0.0716 -0.4418  1.0847
14791TIP3   OH265787   2.656   5.088  11.437  0.4942 -0.1210 -0.7515
14791TIP3    H165788   2.635   5.168  11.487  0.3930 -0.3765 -0.3834
14791TIP3    H265789   2.575   5.068  11.390  0.2912 -0.4173 -0.2778
14792TIP3   OH265790   4.138   1.975  13.902  0.6521  0.0349 -0.5410
14792TIP3    H165791   4.202   1.994  13.970 -0.3105 -1.9722  1.0310
14792TIP3    H265792   4.112   1.884  13.918 -2.3565  0.6531 -1.2648
14793TIP3   OH265793   6.532   2.757  11.146 -0.3558 -0.2958 -0.1925
14793TIP3    H165794   6.468   2.720  11.085 -0.4049 -0.6363  0.0639
14793TIP3    H265795   6.574   2.682  11.186  0.9940 -0.0906 -1.1442
14794TIP3   OH265796   2.228   1.525   2.091  0.4289  0.4001 -0.1412
14794TIP3    H165797   2.285   1.452   2.067 -0.6175  0.2825 -2.5760
14794TIP3    H265798   2.215   1.573   2.009 -1.1896  1.6880  0.8073
14795TIP3   OH265799   4.135   3.782   1.105 -0.0660 -0.1015 -0.1130
14795TIP3    H165800   4.071   3.822   1.164 -0.3431 -0.9058  0.1587
14795TIP3    H265801   4.203   3.848   1.094 -0.3186  0.2911  0.6169
14796TIP3   OH265802   1.586   5.847  15.793  0.1658 -0.3902 -0.4106
14796TIP3    H165803   1.624   5.934  15.782  0.8464 -0.7179 -0.7264
14796TIP3    H265804   1.520   5.840  15.724 -0.6706  0.2890  0.3135
14797TIP3   OH265805   4.861   3.624  16.150 -0.0336  0.5497 -0.1547
14797TIP3    H165806   4.788   3.667  16.107 -0.7751  2.8105  3.0483
14797TIP3    H265807   4.924   3.694  16.168  1.2497 -0.6907  0.4205
14798TIP3   OH265808   1.132   2.285  11.611  0.2140  0.3515 -0.2447
14798TIP3    H165809   1.185   2.357  11.578 -0.3259  1.1201  0.5282
14798TIP3    H265810   1.055   2.283  11.555  1.1309 -0.9312 -1.5323
14799TIP3   OH265811   1.209   0.317   0.404 -0.2866 -1.1581 -0.3132
14799TIP3    H165812   1.303   0.308   0.387 -0.2503 -0.4446 -0.5252
14799TIP3    H265813   1.173   0.230   0.384  0.1075 -1.0143 -1.7537
14800TIP3   OH265814   1.457   5.788  14.708 -0.0228  0.1078 -0.4988
14800TIP3    H165815   1.477   5.794  14.801 -2.4693  0.0057  0.0866
14800TIP3    H265816   1.527   5.838  14.666  0.9227  0.4860  1.4070
14801TIP3   OH265817   5.403   3.901   0.757  0.2170 -0.0695 -0.8108
14801TIP3    H165818   5.407   3.987   0.716 -0.5575  0.2689 -0.2079
14801TIP3    H265819   5.469   3.904   0.826 -0.7754  0.5666  0.1405
14802TIP3   OH265820   5.327   6.677  16.258  0.3036  0.1900  0.9026
14802TIP3    H165821   5.313   6.582  16.255  0.2996  0.1969  0.7121
14802TIP3    H265822   5.410   6.690  16.212  1.2342  0.0927  2.4959
14803TIP3   OH265823   1.030   6.686  15.276  0.2505  0.1562 -0.9007
14803TIP3    H165824   1.097   6.752  15.293  0.2863 -0.0837 -0.0581
14803TIP3    H265825   0.974   6.725  15.209 -0.3827  1.5072  0.3603
14804TIP3   OH265826   2.830   4.726   3.504  0.4657 -0.1201  0.0085
14804TIP3    H165827   2.878   4.755   3.582  1.6285  0.2462 -0.8154
14804TIP3    H265828   2.813   4.806   3.455 -0.5310 -0.3125  0.0130
14805TIP3   OH265829   2.761   1.103  13.724  0.0393 -0.6328 -0.8238
14805TIP3    H165830   2.805   1.085  13.641  1.8785  1.7407 -0.4874
14805TIP3    H265831   2.763   1.199  13.731  1.4602 -0.8140  2.7116
14806TIP3   OH265832   5.073   3.146  16.706 -0.1714  0.1810 -0.3058
14806TIP3    H165833   5.123   3.226  16.721 -2.6322  2.1176 -1.7853
14806TIP3    H265834   5.140   3.079  16.689  1.9738  1.7546  1.4047
14807TIP3   OH265835   3.741   5.020  11.248  0.2766 -0.6194 -0.0829
14807TIP3    H165836   3.797   5.064  11.312  3.0423 -2.1044 -1.2866
14807TIP3    H265837   3.735   4.930  11.280 -0.6479 -0.7239 -0.5172
14808TIP3   OH265838   4.166   4.957   4.940  0.1944 -0.2160 -0.1222
14808TIP3    H165839   4.193   4.935   4.851 -3.6201  1.0120 -1.7904
14808TIP3    H265840   4.232   5.019   4.971  1.3791 -0.3267 -2.2735
14809TIP3   OH265841   3.953   5.729   4.295 -0.1157 -0.1967 -0.1451
14809TIP3    H165842   3.966   5.747   4.202  0.3244 -2.7485 -0.6479
14809TIP3    H265843   4.039   5.700   4.327 -0.6370 -0.9983  0.6077
14810TIP3   OH265844   0.346   4.730   0.828  0.0006 -0.2098  0.1345
14810TIP3    H165845   0.291   4.674   0.774 -0.3969  0.8702 -0.6243
14810TIP3    H265846   0.429   4.736   0.780 -0.8026  1.8340 -1.1244
14811TIP3   OH265847   2.429   5.847   1.230  0.0223  0.3868  0.0983
14811TIP3    H165848   2.415   5.760   1.194  2.4854  0.1502 -0.4859
14811TIP3    H265849   2.515   5.873   1.197 -0.7238  3.1426  0.0922
14812TIP3   OH265850   6.185   3.598  14.511 -0.2400  0.0939  0.5260
14812TIP3    H165851   6.250   3.540  14.472  1.3848  1.7148  0.6639
14812TIP3    H265852   6.100   3.561  14.484  0.7486 -1.1964 -1.0050
14813TIP3   OH265853   4.011   5.824   5.444  0.9427 -0.0763  0.7510
14813TIP3    H165854   4.047   5.912   5.456  1.7486 -0.4812  1.4041
14813TIP3    H265855   3.917   5.838   5.437  0.9717  0.7585  1.8017
14814TIP3   OH265856   1.865   4.591  15.065 -0.3921 -0.4288  0.1305
14814TIP3    H165857   1.819   4.617  14.986 -1.1546  1.1179  1.0234
14814TIP3    H265858   1.796   4.566  15.126  0.0747 -0.2060  0.7641
14815TIP3   OH265859   3.851   0.397  13.092 -0.3190 -0.6410  0.0933
14815TIP3    H165860   3.778   0.347  13.055 -0.7060  0.1105 -0.1810
14815TIP3    H265861   3.883   0.343  13.164 -1.2148 -0.9351  0.2839
14816TIP3   OH265862   0.446   3.042  12.680  0.5573  0.2749 -0.7756
14816TIP3    H165863   0.361   3.005  12.702  0.5417  1.6107  1.9389
14816TIP3    H265864   0.491   2.973  12.631 -0.6106 -2.0915  1.2402
14817TIP3   OH265865   0.298   0.579   2.103  0.0044 -0.1638  0.1906
14817TIP3    H165866   0.369   0.641   2.084 -1.2668  1.2545 -0.1237
14817TIP3    H265867   0.265   0.606   2.189  2.0616 -3.0427  2.0794
14818TIP3   OH265868   2.328   1.782  16.777 -0.5005  0.3327  0.1668
14818TIP3    H165869   2.346   1.698  16.735  1.8024  0.3849  0.8916
14818TIP3    H265870   2.373   1.847  16.721  1.2331  0.5724  1.7449
14819TIP3   OH265871   4.817   3.434   4.188  0.2344 -0.0397 -0.2629
14819TIP3    H165872   4.868   3.391   4.256 -0.0451 -0.9656 -0.6153
14819TIP3    H265873   4.726   3.417   4.212  0.0942  0.8946 -0.0813
14820TIP3   OH265874   5.029   1.037  16.682 -0.1811 -0.0219  0.0098
14820TIP3    H165875   5.085   0.960  16.671 -0.8555 -0.2793 -2.1331
14820TIP3    H265876   5.090   1.110  16.691  0.5636 -0.3420 -1.9021
14821TIP3   OH265877   3.106   4.685   0.876 -0.3363 -0.2616 -0.1916
14821TIP3    H165878   3.063   4.633   0.945  1.1725 -0.0072  0.9959
14821TIP3    H265879   3.049   4.674   0.800 -1.7329 -1.0873  0.8972
14822TIP3   OH265880   3.165   3.646  14.313 -0.7098  0.4415  0.3465
14822TIP3    H165881   3.144   3.737  14.294 -0.1113  0.4509 -0.3313
14822TIP3    H265882   3.082   3.607  14.340 -1.3027  0.8117 -0.8817
14823TIP3   OH265883   1.714   2.187   2.717  0.2672 -0.1612 -0.4398
14823TIP3    H165884   1.682   2.097   2.724 -0.7204  0.0991 -1.2809
14823TIP3    H265885   1.640   2.236   2.682  1.0894  0.8035 -0.8857
14824TIP3   OH265886   4.683   2.331   1.123  0.2118  0.1113  0.0141
14824TIP3    H165887   4.720   2.243   1.127 -0.0018 -0.0037 -0.4504
14824TIP3    H265888   4.759   2.389   1.115  0.3035 -0.1111 -0.7670
14825TIP3   OH265889   0.455   6.285   5.101  0.5103  0.1429 -0.1687
14825TIP3    H165890   0.491   6.205   5.064  0.6168 -0.4559  1.1812
14825TIP3    H265891   0.523   6.351   5.088  0.1643  0.2075 -1.8744
14826TIP3   OH265892   3.623   5.379  12.346 -0.4165 -0.4867  0.1558
14826TIP3    H165893   3.616   5.452  12.407 -1.7916 -0.8620  0.4783
14826TIP3    H265894   3.604   5.302  12.399 -0.0402 -0.9785 -0.4148
14827TIP3   OH265895   2.606   1.088   5.821  0.1601 -0.5270 -0.2823
14827TIP3    H165896   2.598   1.048   5.734  0.9038  1.3152 -1.2469
14827TIP3    H265897   2.613   1.182   5.804  1.2555 -0.1939  1.7060
14828TIP3   OH265898   0.573   4.053  16.626  0.0094 -0.2235  0.1554
14828TIP3    H165899   0.589   3.969  16.583  1.6360  0.3339 -0.4097
14828TIP3    H265900   0.549   4.029  16.716 -1.1474 -1.3194 -0.4026
14829TIP3   OH265901   6.291   4.562   5.803  0.0258  0.1112  0.2949
14829TIP3    H165902   6.268   4.477   5.766  1.3011 -0.5037  0.8384
14829TIP3    H265903   6.375   4.584   5.763  0.2959  0.5314  1.0596
14830TIP3   OH265904   5.600   5.628   3.248 -0.1577 -0.2212 -0.1508
14830TIP3    H165905   5.536   5.684   3.292  0.8671  2.9636 -2.3602
14830TIP3    H265906   5.565   5.616   3.160  1.5402  0.4227 -0.9641
14831TIP3   OH265907   4.809   2.682  17.229 -0.0918 -0.2629  0.3310
14831TIP3    H165908   4.777   2.601  17.267  1.7940  0.0993  2.9658
14831TIP3    H265909   4.757   2.751  17.271  0.1195  0.0363  0.1123
14832TIP3   OH265910   0.960   5.812  15.173 -0.5983 -0.4596 -0.0095
14832TIP3    H165911   0.963   5.877  15.102 -0.5737 -0.3008  0.1374
14832TIP3    H265912   0.927   5.861  15.248  2.3321  0.1833  0.9804
14833TIP3   OH265913   5.590   1.660  11.743 -0.2443 -0.1824 -0.0886
14833TIP3    H165914   5.598   1.655  11.647 -0.7301  3.1728 -0.4441
14833TIP3    H265915   5.496   1.667  11.759 -0.2700 -2.1562  0.8061
14834TIP3   OH265916   2.077   5.139   2.264 -0.6362 -0.1700 -0.3167
14834TIP3    H165917   2.146   5.097   2.213 -0.8707 -0.8744 -0.0607
14834TIP3    H265918   2.020   5.067   2.292 -1.6194  0.4126 -0.7351
14835TIP3   OH265919   4.443   4.328  11.731  0.4014 -0.2965 -0.2395
14835TIP3    H165920   4.394   4.371  11.661 -0.1688  1.2424  1.0462
14835TIP3    H265921   4.377   4.275  11.777  0.6163 -0.7021 -0.3924
14836TIP3   OH265922   4.199   6.407   2.104  0.2330 -0.3169  0.2696
14836TIP3    H165923   4.249   6.372   2.031  0.3242  0.9990 -0.3383
14836TIP3    H265924   4.177   6.331   2.158  0.2559 -1.2997 -1.0680
14837TIP3   OH265925   0.415   3.149  14.298 -0.3065  0.2983  0.1088
14837TIP3    H165926   0.413   3.153  14.394 -2.5367  0.1295  0.1054
14837TIP3    H265927   0.324   3.135  14.272  0.2260  0.5015 -2.0583
14838TIP3   OH265928   0.314   1.843  17.378  1.0380  0.5132 -0.3494
14838TIP3    H165929   0.269   1.779  17.322  0.3046  1.1087 -0.4763
14838TIP3    H265930   0.371   1.791  17.434 -0.9220 -0.4392  0.8575
14839TIP3   OH265931   3.735   3.092  16.843 -0.1344 -0.5920 -0.3882
14839TIP3    H165932   3.799   3.105  16.774  1.3158  1.4120  1.2284
14839TIP3    H265933   3.651   3.087  16.798  0.9948 -2.3561 -2.4850
14840TIP3   OH265934   4.436   2.736   2.814 -0.6072  0.5268  0.2094
14840TIP3    H165935   4.439   2.823   2.775 -1.1778  0.8999  0.9815
14840TIP3    H265936   4.346   2.706   2.798  0.0806 -0.7083 -1.7010
14841TIP3   OH265937   5.282   5.597   3.272  0.2980  0.2112  0.4793
14841TIP3    H165938   5.284   5.641   3.357  0.7121  0.0904  0.5345
14841TIP3    H265939   5.200   5.625   3.233 -0.0125  0.0852  1.0195
14842TIP3   OH265940   1.797   0.002  12.081  0.0479  0.1590 -0.0674
14842TIP3    H165941   1.817   0.057  12.156  1.0031 -1.2491  0.7608
14842TIP3    H265942   1.793  -0.087  12.116 -1.4403 -0.3466 -1.3527
14843TIP3   OH265943   2.611   1.929   5.708  0.0552 -0.2755 -0.3398
14843TIP3    H165944   2.606   1.960   5.618 -1.6468  0.3879 -0.0414
14843TIP3    H265945   2.655   1.844   5.701  0.6615  0.1196 -1.6818
14844TIP3   OH265946   4.418   6.364  16.066  0.1728 -0.1237 -0.1692
14844TIP3    H165947   4.348   6.426  16.044  0.8798  0.5057 -0.7102
14844TIP3    H265948   4.398   6.335  16.154 -0.2275  0.8228  0.0638
14845TIP3   OH265949   6.230   3.646   1.316  0.1899  0.7543  0.3671
14845TIP3    H165950   6.305   3.681   1.268 -0.5522 -0.6218 -1.9448
14845TIP3    H265951   6.154   3.685   1.274 -0.4988 -0.8173  0.0956
14846TIP3   OH265952   2.877   0.847   1.123 -0.6116  0.2711  0.4298
14846TIP3    H165953   2.908   0.797   1.048  0.0037  2.8823 -1.2013
14846TIP3    H265954   2.782   0.834   1.123 -0.4704 -0.8040  0.0156
14847TIP3   OH265955   1.323   3.330  12.312 -0.1712 -0.0334 -0.1347
14847TIP3    H165956   1.327   3.370  12.399 -1.1969  0.6187 -0.3720
14847TIP3    H265957   1.279   3.395  12.258 -2.1093 -1.5197 -0.4784
14848TIP3   OH265958   2.081   4.718  15.420  0.5654  0.0429 -0.6715
14848TIP3    H165959   2.010   4.656  15.437  0.8903 -0.2920 -0.5255
14848TIP3    H265960   2.127   4.680  15.345 -0.1048  0.8603 -1.5186
14849TIP3   OH265961   3.260   1.332  15.119  0.6746  0.1780 -0.6365
14849TIP3    H165962   3.267   1.409  15.063  1.6159 -0.4948 -1.4832
14849TIP3    H265963   3.223   1.265  15.062 -4.3716  1.0272  1.1688
14850TIP3   OH265964   0.951   1.472   2.577  0.3263  0.0937  0.1382
14850TIP3    H165965   0.935   1.528   2.501  2.1485  1.4853  0.6996
14850TIP3    H265966   0.979   1.532   2.646 -1.0790 -1.1550  1.8923
14851TIP3   OH265967   3.269   4.534  11.359  0.1112  0.0382  0.2602
14851TIP3    H165968   3.358   4.556  11.330  0.4087 -0.3793  0.8332
14851TIP3    H265969   3.223   4.618  11.362  0.7397  0.3748  0.7816
14852TIP3   OH265970   6.133   5.339   2.890 -0.2119  0.2845  0.2633
14852TIP3    H165971   6.219   5.311   2.920  0.3191  1.4439 -0.1125
14852TIP3    H265972   6.089   5.259   2.863  1.4782 -0.1494 -1.3984
14853TIP3   OH265973   5.312   1.827  16.560 -0.0216  0.2651 -0.7559
14853TIP3    H165974   5.314   1.788  16.647 -0.1092 -1.3994 -1.4617
14853TIP3    H265975   5.249   1.899  16.568 -0.1484  0.0416  0.5059
14854TIP3   OH265976   4.203   0.455  12.978  0.2469  0.1318  0.4649
14854TIP3    H165977   4.221   0.373  13.024  1.0797  0.2635  0.3782
14854TIP3    H265978   4.139   0.431  12.910  1.3828 -0.6962 -0.3374
14855TIP3   OH265979   5.557   5.288  11.461 -0.0799 -0.5456 -0.5772
14855TIP3    H165980   5.524   5.336  11.537 -0.0521  0.5437 -1.2334
14855TIP3    H265981   5.637   5.334  11.436  0.2983 -1.3240 -0.8428
14856TIP3   OH265982   0.532   3.572   6.950 -0.3489  0.7232 -0.7685
14856TIP3    H165983   0.618   3.533   6.964 -1.1203 -1.8176 -2.3704
14856TIP3    H265984   0.542   3.623   6.870 -0.3018  0.4429 -0.9445
14857TIP3   OH265985   2.099   1.921   6.544  0.0860  0.6519 -0.4579
14857TIP3    H165986   2.102   1.830   6.514 -0.5185  0.8941 -1.3208
14857TIP3    H265987   2.056   1.917   6.629 -0.9179  0.2224 -0.9662
14858TIP3   OH265988   1.597   3.386  11.384 -0.0243 -0.1726 -0.0104
14858TIP3    H165989   1.602   3.432  11.469  0.8410 -1.4389  0.6499
14858TIP3    H265990   1.505   3.361  11.376 -0.9216  2.9190 -1.1249
14859TIP3   OH265991   3.172   6.259   2.070  0.0095  0.2626  0.4415
14859TIP3    H165992   3.204   6.345   2.098  0.8623 -0.9334  3.6276
14859TIP3    H265993   3.126   6.224   2.147 -1.4449 -1.6451 -1.1738
14860TIP3   OH265994   0.005   3.442   2.886 -0.1112  0.1293 -0.1070
14860TIP3    H165995  -0.004   3.349   2.908  1.1639  0.5392  2.5014
14860TIP3    H265996  -0.086   3.474   2.882 -0.5277 -0.7002  1.6764
14861TIP3   OH265997   2.119   6.530   1.258  0.0929  0.7676 -0.4517
14861TIP3    H165998   2.201   6.579   1.253  0.4126  0.6012  1.9117
14861TIP3    H265999   2.051   6.597   1.249  0.4930  1.1379 -0.7699
14862TIP3   OH266000   3.059   6.472  13.559 -0.4816  0.1242  0.7278
14862TIP3    H166001   3.067   6.452  13.466  0.9843  1.2239  0.5706
14862TIP3    H266002   2.967   6.494  13.571 -0.5504  0.6758 -0.6193
14863TIP3   OH266003   1.547   0.787  12.547  0.2788 -0.2216 -0.2018
14863TIP3    H166004   1.464   0.812  12.588 -0.4296  2.0425 -2.7196
14863TIP3    H266005   1.525   0.773  12.455  2.5661 -0.3723 -0.7853
14864TIP3   OH266006   0.272   3.930   1.239  0.1955  0.2312 -0.4527
14864TIP3    H166007   0.229   3.913   1.156  0.6398 -3.2797 -0.1372
14864TIP3    H266008   0.306   4.019   1.231 -1.9164  0.9236 -3.0001
14865TIP3   OH266009   3.726   1.441  16.189 -0.0346  0.5928 -0.1218
14865TIP3    H166010   3.814   1.430  16.225  0.0619 -0.1225 -0.5462
14865TIP3    H266011   3.733   1.516  16.130  0.4046  0.2748 -0.4818
14866TIP3   OH266012   3.377   4.118   6.158  0.1095  0.6001 -0.0456
14866TIP3    H166013   3.295   4.138   6.113  0.3929  1.1038 -0.3576
14866TIP3    H266014   3.368   4.159   6.244 -0.2423  0.0540  0.1765
14867TIP3   OH266015   2.805   4.449  10.741 -0.6176  0.0639  0.2483
14867TIP3    H166016   2.865   4.486  10.806 -0.4961  0.7142 -0.2311
14867TIP3    H266017   2.723   4.495  10.756  0.4954  3.4711 -2.8523
14868TIP3   OH266018   5.199   0.776  16.715 -0.4002  0.3928 -0.5031
14868TIP3    H166019   5.207   0.805  16.806 -0.3977 -2.1973  0.3899
14868TIP3    H266020   5.127   0.712  16.716 -1.6460  1.6219 -2.7143
14869TIP3   OH266021   1.039   6.337  17.245 -0.6971  0.4710  0.1021
14869TIP3    H166022   0.951   6.334  17.283 -1.9294  1.6546 -2.4406
14869TIP3    H266023   1.095   6.368  17.317 -2.0884 -1.3905  2.1085
14870TIP3   OH266024   1.339   5.157   5.989  0.2649 -0.8983 -0.2450
14870TIP3    H166025   1.389   5.077   6.009  1.7120  0.3437  1.4597
14870TIP3    H266026   1.406   5.221   5.965 -0.5094  0.6376  1.4362
14871TIP3   OH266027   2.179   0.404  11.539  0.5384  0.2985 -0.0857
14871TIP3    H166028   2.209   0.316  11.517  1.7366  0.6438  0.0887
14871TIP3    H266029   2.084   0.395  11.550  0.7928 -1.2626  1.2672
14872TIP3   OH266030   4.969   6.618  14.941  0.5562 -0.3347  0.2896
14872TIP3    H166031   4.930   6.659  14.864 -1.4862 -0.0339  1.4091
14872TIP3    H266032   4.958   6.524  14.925  1.6495 -0.3474 -0.4962
14873TIP3   OH266033   0.530   6.479  16.857 -0.0355 -0.2135  0.0387
14873TIP3    H166034   0.446   6.444  16.828 -0.4734  1.0719 -0.3134
14873TIP3    H266035   0.508   6.543  16.925  0.7639 -0.8665  0.9398
14874TIP3   OH266036   3.641   0.354   4.188 -0.2329  0.2815  0.4859
14874TIP3    H166037   3.726   0.332   4.150 -0.3810 -0.1263  0.3838
14874TIP3    H266038   3.644   0.449   4.200  0.1705  0.2922  0.3234
14875TIP3   OH266039   1.477   3.873   1.287  0.6088 -0.2583  0.7082
14875TIP3    H166040   1.471   3.962   1.253 -0.1164 -0.1881  0.9882
14875TIP3    H266041   1.426   3.875   1.368  0.2143 -1.0282  0.4946
14876TIP3   OH266042   5.878   0.371   2.506  0.3845  0.0840  0.2360
14876TIP3    H166043   5.855   0.392   2.597 -0.9711 -3.2329  0.7894
14876TIP3    H266044   5.795   0.357   2.462  1.0197  1.7345 -1.6461
14877TIP3   OH266045   5.277   0.790  13.353 -0.3764 -0.2450 -0.1203
14877TIP3    H166046   5.220   0.850  13.305 -0.2996  0.6734  0.8997
14877TIP3    H266047   5.300   0.722  13.289 -0.3768  0.8763 -1.3433
14878TIP3   OH266048   2.583   1.765   1.298 -0.2126 -0.0901 -0.2449
14878TIP3    H166049   2.518   1.829   1.272  1.3843  0.7880 -2.3538
14878TIP3    H266050   2.648   1.816   1.347  0.3984 -0.3235 -0.7917
14879TIP3   OH266051   1.745   4.812  11.095  0.4069  0.0438  0.9665
14879TIP3    H166052   1.727   4.774  11.181 -0.8219  0.9175  1.1232
14879TIP3    H266053   1.768   4.903  11.114 -1.4396  0.6952  0.3033
14880TIP3   OH266054   5.055   0.229  16.381  0.5301 -0.0243 -0.1082
14880TIP3    H166055   5.144   0.204  16.405  0.5827  0.0295 -0.2428
14880TIP3    H266056   5.037   0.179  16.301 -0.2119 -1.3776  0.8727
14881TIP3   OH266057   5.152   5.666  15.718  0.1912  0.2053  0.2015
14881TIP3    H166058   5.110   5.611  15.784  0.8603 -0.5144  0.0457
14881TIP3    H266059   5.138   5.620  15.636  2.7473 -1.0232  0.3457
14882TIP3   OH266060   3.406   4.517  14.416  0.6252  0.0027 -0.7371
14882TIP3    H166061   3.408   4.461  14.493 -1.5274  1.0422  0.1414
14882TIP3    H266062   3.492   4.558  14.414  0.5634  0.3452  1.4226
14883TIP3   OH266063   3.632   1.734  13.722 -0.2735 -0.2399 -0.1702
14883TIP3    H166064   3.544   1.764  13.744  0.3286  0.0244  2.0306
14883TIP3    H266065   3.667   1.696  13.803  1.3918 -0.9954 -1.1695
14884TIP3   OH266066   2.657   4.566   3.899 -0.2459 -0.6300 -0.5118
14884TIP3    H166067   2.651   4.514   3.819 -1.6049  0.4391 -1.1634
14884TIP3    H266068   2.708   4.643   3.873 -1.2178  0.0208 -0.5534
14885TIP3   OH266069   3.984   3.084  15.902 -0.2416 -0.4648 -0.0802
14885TIP3    H166070   3.947   3.162  15.944  1.6929  1.5677 -1.9460
14885TIP3    H266071   4.045   3.049  15.967 -1.9619 -1.1880  1.2248
14886TIP3   OH266072   0.592   0.377   3.293  0.1085 -0.2088 -0.0755
14886TIP3    H166073   0.585   0.334   3.208 -0.6270 -0.3329  0.0409
14886TIP3    H266074   0.658   0.445   3.281  0.7963 -0.9276 -0.4449
14887TIP3   OH266075   3.872   1.684  15.089  0.7260  0.0024  0.3507
14887TIP3    H166076   3.913   1.771  15.093  0.3443  0.1801  0.4458
14887TIP3    H266077   3.946   1.623  15.086  1.0960  0.4057 -2.7870
14888TIP3   OH266078   5.120   4.579  17.130  0.2599 -0.0940  0.2189
14888TIP3    H166079   5.066   4.536  17.065  0.9606 -0.5806 -0.0485
14888TIP3    H266080   5.138   4.666  17.093  1.4481 -0.7017 -0.6986
14889TIP3   OH266081   3.014   0.071   0.523 -0.2644  0.3276 -0.0660
14889TIP3    H166082   2.978   0.022   0.449 -2.6115  2.2547 -0.3215
14889TIP3    H266083   3.106   0.082   0.502 -0.6701 -0.0095 -2.2557
14890TIP3   OH266084   3.341   5.484   4.442 -0.1583 -0.5440  0.4615
14890TIP3    H166085   3.400   5.558   4.454  0.2121 -0.5748 -0.9286
14890TIP3    H266086   3.396   5.407   4.453  0.0263 -0.5735 -0.5221
14891TIP3   OH266087   3.918   5.127   6.708  0.3455 -0.5819  0.2113
14891TIP3    H166088   3.958   5.214   6.710 -0.0929 -0.3768  0.1624
14891TIP3    H266089   3.855   5.132   6.636 -0.9655 -0.3719  1.3232
14892TIP3   OH266090   5.825   3.556   0.222 -0.2146  0.1773  0.4748
14892TIP3    H166091   5.806   3.639   0.178 -0.6802  1.1369  2.3699
14892TIP3    H266092   5.746   3.503   0.208 -0.3392  0.4465  0.1337
14893TIP3   OH266093   1.817   4.065  13.804  0.2296 -0.3769 -0.9750
14893TIP3    H166094   1.798   4.157  13.783  1.3557  0.1310  0.1438
14893TIP3    H266095   1.897   4.068  13.855 -0.1037 -1.9412 -0.3170
14894TIP3   OH266096   1.579   1.753  15.049 -0.6201 -0.2755  0.1412
14894TIP3    H166097   1.670   1.728  15.035 -0.8108 -0.6648 -0.4455
14894TIP3    H266098   1.528   1.681  15.011 -1.1838  0.5302 -0.6745
14895TIP3   OH266099   4.133   5.078  17.109  0.1849 -0.2129  0.8241
14895TIP3    H166100   4.175   5.157  17.144 -0.3301 -0.0659  1.1195
14895TIP3    H266101   4.205   5.026  17.074  0.4846  0.6173  0.1807
14896TIP3   OH266102   5.898   3.579  13.314 -0.2439 -0.3232  0.3907
14896TIP3    H166103   5.962   3.601  13.246 -0.1379  0.7058  0.8029
14896TIP3    H266104   5.815   3.616  13.282 -0.1464  0.3739  0.9111
14897TIP3   OH266105   2.366   6.630  12.040  0.3032  0.2059 -0.0503
14897TIP3    H166106   2.281   6.669  12.024  0.6797  1.6170  1.1877
14897TIP3    H266107   2.352   6.573  12.116  0.3535  0.0371 -0.1677
14898TIP3   OH266108   1.662   4.181  17.151 -0.0118 -0.0596  0.0517
14898TIP3    H166109   1.653   4.136  17.235  1.5756 -0.3836  0.0854
14898TIP3    H266110   1.702   4.266  17.173  2.5093 -0.9999 -0.4973
14899TIP3   OH266111   1.306   1.594  13.531 -0.6607 -0.1970  0.1334
14899TIP3    H166112   1.216   1.581  13.499 -1.0609 -1.4094  1.6418
14899TIP3    H266113   1.299   1.589  13.626  1.1675 -1.6404  0.2646
14900TIP3   OH266114   5.161   0.711   4.411  0.0704  0.2350 -0.1453
14900TIP3    H166115   5.093   0.743   4.352 -0.1937  0.0906  0.0812
14900TIP3    H266116   5.230   0.777   4.405  0.6259 -0.4398 -1.6510
14901TIP3   OH266117   1.171   3.095  12.100  0.0635  0.5793 -0.0334
14901TIP3    H166118   1.165   3.185  12.132  1.9164  0.5784  0.4208
14901TIP3    H266119   1.226   3.050  12.165  2.3365  0.0794 -2.1769
14902TIP3   OH266120   0.387   5.265   4.787 -1.0636 -0.1875 -0.4949
14902TIP3    H166121   0.429   5.283   4.703 -2.0608  0.1121 -0.9413
14902TIP3    H266122   0.295   5.287   4.774 -0.8695  2.1498  1.3520
14903TIP3   OH266123   6.265   4.128  11.986  0.4457  0.0339 -0.0446
14903TIP3    H166124   6.200   4.078  12.035  0.3776 -0.0142 -0.1835
14903TIP3    H266125   6.224   4.145  11.901  0.5232  0.2040 -0.0501
14904TIP3   OH266126   4.714   3.193  13.002  0.0616  0.2780 -0.1981
14904TIP3    H166127   4.663   3.173  13.080 -1.1182  0.8215 -0.7937
14904TIP3    H266128   4.648   3.215  12.936  1.0665  0.6939 -1.0925
14905TIP3   OH266129   5.758   6.029   5.216 -0.5243 -0.2790  0.0846
14905TIP3    H166130   5.744   5.934   5.208 -3.8614  0.2943 -3.6741
14905TIP3    H266131   5.840   6.045   5.169 -1.8729 -1.0395 -2.7361
14906TIP3   OH266132   6.073   2.586   3.920  0.3281  0.0657 -0.4419
14906TIP3    H166133   6.166   2.601   3.900  0.2066  1.1075 -0.2716
14906TIP3    H266134   6.065   2.606   4.013 -0.2643  0.9998 -0.6793
14907TIP3   OH266135   2.689   1.350   5.029 -0.1677 -0.0458  0.5092
14907TIP3    H166136   2.694   1.444   5.014  1.9902 -0.1499  0.2805
14907TIP3    H266137   2.660   1.314   4.944 -2.6321  0.4778  1.0619
14908TIP3   OH266138   5.162   3.949   2.873 -0.1035  0.4299  0.3631
14908TIP3    H166139   5.192   3.869   2.917 -0.3204  0.2540  0.2004
14908TIP3    H266140   5.233   4.011   2.883  0.4834 -0.1032 -0.3547
14909TIP3   OH266141   3.613   0.500  12.009  0.5647  0.2250  0.1490
14909TIP3    H166142   3.539   0.459  12.054 -0.2556  0.6520 -0.7571
14909TIP3    H266143   3.663   0.427  11.974  1.1060 -0.1062  1.5405
14910TIP3   OH266144   5.776   1.971  16.202  0.2420  0.0095  0.2758
14910TIP3    H166145   5.725   1.907  16.153 -0.6789  1.1036 -0.2596
14910TIP3    H266146   5.856   1.925  16.228  0.1905 -0.9651 -1.1920
14911TIP3   OH266147   0.466   4.550   0.037  0.0071 -0.0716 -0.6838
14911TIP3    H166148   0.517   4.509  -0.033  0.5386  0.3317 -0.5397
14911TIP3    H266149   0.383   4.573  -0.004  0.0687 -0.4297 -1.0132
14912TIP3   OH266150   3.217   2.485   5.369 -0.1568 -0.2239 -0.0726
14912TIP3    H166151   3.300   2.451   5.334 -0.1705 -0.2766 -0.0549
14912TIP3    H266152   3.162   2.500   5.292  0.2111  0.7399 -0.1660
14913TIP3   OH266153   6.010   3.992   4.403 -0.5897  0.4174  1.5831
14913TIP3    H166154   5.914   3.994   4.402 -0.5776  1.9360  1.0591
14913TIP3    H266155   6.032   3.919   4.344 -1.4576  2.9300 -2.2011
14914TIP3   OH266156   5.499   2.857   3.380  0.1166  0.8189  0.3251
14914TIP3    H166157   5.442   2.819   3.447  1.3965  1.6208  1.9516
14914TIP3    H266158   5.511   2.948   3.408 -0.0685  1.4713 -1.5461
14915TIP3   OH266159   3.695   6.655  14.222 -0.0478  0.2810  0.0727
14915TIP3    H166160   3.745   6.616  14.294 -0.0628  0.6190  0.2705
14915TIP3    H266161   3.688   6.747  14.245  1.1143  0.6741 -1.0222
14916TIP3   OH266162   4.687   5.559   4.024  0.0415  0.6074 -0.1530
14916TIP3    H166163   4.677   5.631   4.086  0.0452  1.8324 -1.5362
14916TIP3    H266164   4.616   5.498   4.047 -0.4924  1.4541  0.5026
14917TIP3   OH266165   3.151   6.117  12.333 -0.2604  0.2318 -0.0358
14917TIP3    H166166   3.130   6.145  12.422 -0.7796  0.1637 -0.1349
14917TIP3    H266167   3.246   6.107  12.333 -0.3504 -0.7616  0.8037
14918TIP3   OH266168   5.347   0.856   2.548  0.0733 -0.0840  0.0237
14918TIP3    H166169   5.440   0.864   2.528  0.1040 -1.1192 -0.2913
14918TIP3    H266170   5.305   0.924   2.495  0.4548 -0.9161 -1.4091
14919TIP3   OH266171   2.833   1.763   4.372  0.1283  0.7197 -0.2782
14919TIP3    H166172   2.862   1.707   4.300  0.7253  0.7051 -0.0314
14919TIP3    H266173   2.738   1.768   4.361 -0.3318 -2.4173  1.1527
14920TIP3   OH266174   2.024   5.279  12.020  0.3693  0.4038  1.0295
14920TIP3    H166175   2.095   5.326  11.977 -0.3860  1.6314  1.0609
14920TIP3    H266176   2.064   5.199  12.054  1.1309 -0.3147 -1.3640
14921TIP3   OH266177   5.415   1.644  17.293 -0.6148  0.4587  0.6079
14921TIP3    H166178   5.374   1.562  17.265 -0.3954  0.5159  0.0999
14921TIP3    H266179   5.423   1.636  17.388 -1.2019  0.1754  0.6322
14922TIP3   OH266180   1.334   2.086   0.480  0.2934 -0.5041 -0.0707
14922TIP3    H166181   1.243   2.116   0.488  0.6722  0.1765  3.7197
14922TIP3    H266182   1.377   2.153   0.427 -0.7133  1.1433  1.0779
14923TIP3   OH266183   0.852   1.862   5.631  0.4950 -0.2800  0.6270
14923TIP3    H166184   0.781   1.802   5.609  0.9980 -0.8393  0.4954
14923TIP3    H266185   0.823   1.905   5.711 -0.2148 -0.1289  0.2974
14924TIP3   OH266186   5.954   6.491  11.333  0.5642  0.7397  0.2157
14924TIP3    H166187   5.983   6.422  11.274 -1.8402  0.8851 -1.2912
14924TIP3    H266188   5.917   6.445  11.408  1.2987  0.4833  0.4256
14925TIP3   OH266189   6.245   3.474  11.986  0.0042 -0.1358  0.0427
14925TIP3    H166190   6.292   3.550  12.019  1.4033 -1.5815  1.6021
14925TIP3    H266191   6.266   3.470  11.893  1.8659  0.0814  0.4172
14926TIP3   OH266192   0.886   0.882   4.616 -0.1655 -0.2249 -0.1488
14926TIP3    H166193   0.862   0.798   4.655 -2.2322  0.6971  0.7003
14926TIP3    H266194   0.812   0.905   4.560  0.0366  1.3752  0.1900
14927TIP3   OH266195   6.159   0.663   0.930  0.8413 -0.8327 -0.2625
14927TIP3    H166196   6.202   0.722   0.868 -0.5354  1.3232  0.7080
14927TIP3    H266197   6.192   0.691   1.015 -0.2095 -1.1388  0.2566
14928TIP3   OH266198   4.949   3.523   3.950 -0.0609 -0.2007 -0.2561
14928TIP3    H166199   5.040   3.495   3.951 -0.1767 -0.5744 -0.1343
14928TIP3    H266200   4.918   3.508   4.039  0.5121  2.4513  0.4902
14929TIP3   OH266201   3.704   1.010   1.584  0.6604 -0.1138  0.2467
14929TIP3    H166202   3.646   0.981   1.514  1.3261  0.0916 -0.4070
14929TIP3    H266203   3.741   0.929   1.619  2.1939 -0.1391 -1.2926
14930TIP3   OH266204   6.340   2.820  16.726  0.4706  0.4627 -0.1337
14930TIP3    H166205   6.407   2.886  16.746 -0.0165  0.9150  0.0421
14930TIP3    H266206   6.384   2.736  16.735  1.0013  0.7572  0.0217
14931TIP3   OH266207   2.011   1.668  13.979 -0.1636  0.0975 -0.1553
14931TIP3    H166208   1.960   1.588  13.988 -0.4290  0.1411 -1.1242
14931TIP3    H266209   1.946   1.735  13.957  0.1320  0.4476  0.0335
14932TIP3   OH266210   2.442   6.494  11.141  0.3558 -0.0711 -0.1781
14932TIP3    H166211   2.458   6.575  11.092 -1.4969 -0.0006 -0.7422
14932TIP3    H266212   2.454   6.519  11.233  1.1511  0.4778 -0.4194
14933TIP3   OH266213   5.684   0.525  12.016 -0.5323  0.1374  0.9106
14933TIP3    H166214   5.609   0.514  12.074 -1.0876 -0.5552  0.0937
14933TIP3    H266215   5.650   0.575  11.942 -0.8524 -2.0926 -0.5741
14934TIP3   OH266216   3.986   2.925   2.788 -0.0511 -0.5654 -0.5918
14934TIP3    H166217   3.986   2.835   2.821 -0.5324 -0.3042  0.1410
14934TIP3    H266218   4.019   2.918   2.698 -1.0932 -1.6119 -0.9224
14935TIP3   OH266219   5.749   4.540  13.328  0.4019  0.6973  0.7149
14935TIP3    H166220   5.800   4.463  13.352 -0.8729 -0.3966 -0.0065
14935TIP3    H266221   5.795   4.613  13.370  0.4792 -0.6543  3.1170
14936TIP3   OH266222   4.409   5.405  13.946  0.1541  0.1528 -0.2334
14936TIP3    H166223   4.411   5.459  13.867  0.5710  0.1927 -0.1967
14936TIP3    H266224   4.384   5.466  14.016 -0.0161  0.1584 -0.2966
14937TIP3   OH266225   1.042   5.834   5.815  0.4181  0.5818 -0.0797
14937TIP3    H166226   0.984   5.771   5.772 -0.2674  0.7396  0.5900
14937TIP3    H266227   1.056   5.903   5.750 -0.7023  0.8802 -0.0157
14938TIP3   OH266228   3.604   4.459  11.733  0.1115  0.0405 -0.7819
14938TIP3    H166229   3.641   4.477  11.647 -0.8962  0.9308 -1.0410
14938TIP3    H266230   3.510   4.475  11.724 -0.5054 -2.7948 -0.2977
14939TIP3   OH266231   6.006   2.559   6.085  0.0965 -0.2061  0.2672
14939TIP3    H166232   5.974   2.473   6.058 -2.7009  0.4120  1.2650
14939TIP3    H266233   5.999   2.558   6.180 -0.5916  1.3156  0.2613
14940TIP3   OH266234   0.884   4.868  15.610 -0.1097  0.0197  0.2186
14940TIP3    H166235   0.807   4.818  15.585 -0.3455  0.8177 -0.7084
14940TIP3    H266236   0.854   4.926  15.680  0.3941 -1.7495  2.0122
14941TIP3   OH266237   3.073   6.347  14.733  0.4865  0.5687 -0.0877
14941TIP3    H166238   3.115   6.266  14.704 -0.5159 -0.3390  0.9241
14941TIP3    H266239   3.006   6.364  14.667  0.0793  0.0494  0.1839
14942TIP3   OH266240   5.555   5.711   1.362  0.0221  0.3627 -0.2695
14942TIP3    H166241   5.559   5.668   1.277 -1.1430  0.0407 -0.1705
14942TIP3    H266242   5.498   5.786   1.348 -2.8061 -1.3885  0.8817
14943TIP3   OH266243   2.622   4.387   0.607  0.7594  0.0645  0.1194
14943TIP3    H166244   2.588   4.476   0.609  0.6213  0.0214 -0.2149
14943TIP3    H266245   2.570   4.339   0.672 -0.9979 -0.4076 -1.5297
14944TIP3   OH266246   6.468   2.105   0.138  0.6184  0.4391  0.1053
14944TIP3    H166247   6.458   2.186   0.188  0.8065  0.5515 -0.0364
14944TIP3    H266248   6.382   2.089   0.100  1.1387  1.8839 -1.8654
14945TIP3   OH266249   4.083   4.474  12.461 -0.6715 -0.3613 -0.1710
14945TIP3    H166250   4.081   4.570  12.460 -2.0315 -0.2127  3.4343
14945TIP3    H266251   3.998   4.447  12.428 -0.3381 -0.3327 -1.0612
14946TIP3   OH266252   6.532   2.028   6.036  0.4633 -0.2944  0.0874
14946TIP3    H166253   6.606   2.037   5.976 -0.1801  0.2310 -0.6499
14946TIP3    H266254   6.524   1.934   6.051 -0.8355 -0.7152 -2.5670
14947TIP3   OH266255   3.402   3.748  15.240 -0.3173 -0.0177 -0.0431
14947TIP3    H166256   3.457   3.705  15.175  0.1498  0.0073  0.3320
14947TIP3    H266257   3.463   3.781  15.305 -0.6341  1.4545 -0.4508
14948TIP3   OH266258   1.052   5.008  11.009 -0.6407  0.1563 -0.3855
14948TIP3    H166259   1.003   4.945  11.061 -1.2415  0.9698  0.0614
14948TIP3    H266260   1.122   5.038  11.067 -0.4019 -0.0441 -0.5697
14949TIP3   OH266261   3.839   4.702  16.922 -0.5416  0.3556 -0.7061
14949TIP3    H166262   3.932   4.691  16.941 -0.6955  1.3565  0.7192
14949TIP3    H266263   3.794   4.643  16.983 -0.9017  1.1411 -0.1970
14950TIP3   OH266264   2.114   5.913  14.827  0.1742 -0.0241  0.1322
14950TIP3    H166265   2.051   5.950  14.766 -0.4973 -0.0560  0.7929
14950TIP3    H266266   2.107   5.818  14.813 -1.9690 -0.2611  2.0795
14951TIP3   OH266267   0.358   3.463   0.019  0.1679 -0.2268  0.0249
14951TIP3    H166268   0.306   3.479  -0.060 -0.0096  0.0393  0.1960
14951TIP3    H266269   0.296   3.425   0.081  0.0228  0.7083  0.4571
14952TIP3   OH266270   2.574   0.372   4.214  0.2075 -0.0237  0.1767
14952TIP3    H166271   2.516   0.296   4.215  0.5588 -0.3223 -0.9375
14952TIP3    H266272   2.582   0.397   4.306 -2.7136  0.8552  0.2783
14953TIP3   OH266273   2.946   2.156  11.357  0.0519  0.2111  0.0184
14953TIP3    H166274   3.035   2.159  11.392 -0.0746  1.2208  0.3023
14953TIP3    H266275   2.941   2.073  11.310  0.4674 -0.8392  1.7621
14954TIP3   OH266276   4.422   3.641   5.978 -0.0613 -0.5875 -0.3204
14954TIP3    H166277   4.453   3.552   5.962  1.5502 -0.0504 -0.3896
14954TIP3    H266278   4.375   3.636   6.060  1.9761 -1.1252  0.8924
14955TIP3   OH266279   5.534   4.310   4.954 -0.5821  0.4259 -0.0213
14955TIP3    H166280   5.624   4.339   4.947 -0.0218 -1.1204  0.3746
14955TIP3    H266281   5.540   4.217   4.979 -2.2677  0.2307 -0.2034
14956TIP3   OH266282   5.075   5.930  13.710 -0.2521  0.1700 -0.3558
14956TIP3    H166283   5.055   5.864  13.644  0.8291  0.5346 -1.0743
14956TIP3    H266284   4.990   5.967  13.733 -0.6734 -0.1230 -1.3696
14957TIP3   OH266285   5.118   0.748  11.855 -0.0080 -0.1065  0.1869
14957TIP3    H166286   5.027   0.719  11.845 -0.0971 -0.3109  1.4571
14957TIP3    H266287   5.115   0.842  11.836  0.0109 -0.5642 -2.4315
14958TIP3   OH266288   1.522   5.890   3.120 -0.3349  0.0467  0.4814
14958TIP3    H166289   1.488   5.972   3.157  0.3788 -0.8720  3.4890
14958TIP3    H266290   1.459   5.824   3.149 -0.0558 -0.6959 -0.5656
14959TIP3   OH266291   1.930   3.314  15.700  0.9416  0.2030  0.0899
14959TIP3    H166292   1.851   3.300  15.649 -0.4462  0.3212  2.1214
14959TIP3    H266293   1.968   3.395  15.664  0.1706  0.1455 -0.8942
14960TIP3   OH266294   3.186   0.827   2.842 -1.3012 -0.4617 -0.1996
14960TIP3    H166295   3.126   0.897   2.869  2.1188  2.0681  1.7195
14960TIP3    H266296   3.228   0.862   2.763 -0.3179 -0.8019  0.1592
14961TIP3   OH266297   2.200   2.557  13.480 -0.5707 -0.0064 -0.3962
14961TIP3    H166298   2.263   2.628  13.472 -0.6817  0.2583  0.9259
14961TIP3    H266299   2.141   2.569  13.405 -0.6188  1.3341 -0.1588
14962TIP3   OH266300   6.116   0.380   3.383  0.8183  0.1146  0.2191
14962TIP3    H166301   6.161   0.434   3.448  1.7513  1.3413 -1.3498
14962TIP3    H266302   6.054   0.439   3.341  1.0041 -0.3395 -0.7280
14963TIP3   OH266303   1.292   0.447   3.564  0.3119 -0.1802  0.2100
14963TIP3    H166304   1.202   0.451   3.596  0.2775  1.8407  0.0058
14963TIP3    H266305   1.344   0.426   3.641 -0.2491 -0.4881  0.5086
14964TIP3   OH266306   1.503   5.004   0.354  0.1061 -0.6253 -0.1906
14964TIP3    H166307   1.511   5.095   0.325  1.3140 -0.5973  0.1496
14964TIP3    H266308   1.547   5.002   0.439 -2.0116 -1.0375  0.9439
14965TIP3   OH266309   1.574   5.174   5.733  0.8236 -0.3243  0.6344
14965TIP3    H166310   1.546   5.085   5.753 -0.0748  0.2597  2.1368
14965TIP3    H266311   1.661   5.164   5.695  0.5178 -1.8655  0.2747
14966TIP3   OH266312   5.159   3.213   3.017 -0.3906  0.1573 -0.2100
14966TIP3    H166313   5.170   3.245   3.107 -0.2900 -1.2990  0.3305
14966TIP3    H266314   5.089   3.267   2.980 -1.1141  0.1355  1.0716
14967TIP3   OH266315   4.652   3.236  13.272 -0.1894 -0.3768 -0.2440
14967TIP3    H166316   4.718   3.294  13.310 -0.7520 -0.3029  0.6578
14967TIP3    H266317   4.570   3.284  13.280 -0.4961 -0.8397 -0.5140
14968TIP3   OH266318   6.656   0.545  14.870 -0.0114 -0.1673  0.1783
14968TIP3    H166319   6.709   0.544  14.791  0.8308 -1.6604  0.7085
14968TIP3    H266320   6.719   0.559  14.941 -0.5849 -0.0564  0.6728
14969TIP3   OH266321   4.468   2.410   0.369  0.5135  0.2157  0.1247
14969TIP3    H166322   4.498   2.327   0.406  1.1303  0.0950 -0.6177
14969TIP3    H266323   4.545   2.466   0.370  0.8644 -0.1324 -1.9117
14970TIP3   OH266324   3.220   0.200   2.891 -0.1023 -0.3513 -0.2747
14970TIP3    H166325   3.302   0.157   2.915 -0.8770 -1.4650  0.4540
14970TIP3    H266326   3.197   0.162   2.807  0.7549  0.9170 -1.1348
14971TIP3   OH266327   0.609   2.429  12.909 -0.0296  0.1387 -0.1659
14971TIP3    H166328   0.598   2.524  12.910  1.0164  0.2790 -0.4693
14971TIP3    H266329   0.704   2.416  12.903  0.1002 -0.9342  2.6617
14972TIP3   OH266330   1.151   0.419   4.387 -0.3316 -0.2094 -0.0401
14972TIP3    H166331   1.227   0.363   4.402 -0.0037 -0.3607 -1.9697
14972TIP3    H266332   1.170   0.500   4.433  1.0757 -0.1988 -0.6098
14973TIP3   OH266333   4.634   4.802  16.873  0.4239 -0.1822  0.5536
14973TIP3    H166334   4.640   4.747  16.951 -2.9500 -1.7928 -0.1149
14973TIP3    H266335   4.576   4.873  16.899  2.7338  1.7606  0.6568
14974TIP3   OH266336   1.151   6.479  14.830 -0.4885  0.5414  0.0546
14974TIP3    H166337   1.125   6.569  14.809  2.7770  1.2537 -1.5258
14974TIP3    H266338   1.159   6.479  14.926  0.1058  2.1917  0.0437
14975TIP3   OH266339   6.356   0.874  16.156  0.0125 -0.2972  0.3652
14975TIP3    H166340   6.331   0.892  16.247  0.4857  0.3008  0.3838
14975TIP3    H266341   6.342   0.780  16.146 -1.0381 -0.2036  0.7451
14976TIP3   OH266342   3.484   1.767  12.624 -0.3576 -0.2203  0.0362
14976TIP3    H166343   3.431   1.761  12.704 -1.4374  0.9968 -0.5591
14976TIP3    H266344   3.504   1.860  12.616  1.9432 -0.6499  0.2463
14977TIP3   OH266345   3.671   0.432  12.464  0.1946  0.4926 -0.1726
14977TIP3    H166346   3.744   0.388  12.420 -1.5676 -0.6362 -2.1337
14977TIP3    H266347   3.678   0.523  12.436  0.9009  0.4182 -0.2581
14978TIP3   OH266348   3.012   3.148   6.130 -0.0220  0.1133  0.2320
14978TIP3    H166349   3.101   3.173   6.153  1.1350 -2.0802 -1.4693
14978TIP3    H266350   2.986   3.085   6.198  0.5688 -0.7938 -0.3511
14979TIP3   OH266351   2.328   3.319   2.716  0.0236  0.5324  0.0560
14979TIP3    H166352   2.378   3.358   2.787  0.2059 -0.3579  0.4318
14979TIP3    H266353   2.347   3.225   2.722 -2.1607  0.0763  0.5883
14980TIP3   OH266354   5.766   4.200   2.864 -0.2334  0.0046  0.3221
14980TIP3    H166355   5.770   4.265   2.794  0.5059 -0.5757 -0.1891
14980TIP3    H266356   5.782   4.117   2.820  1.0985 -0.2840  1.2852
14981TIP3   OH266357   5.604   4.586  15.006 -0.4193 -0.3227  0.6058
14981TIP3    H166358   5.566   4.516  15.060 -0.1347 -0.1220  1.0676
14981TIP3    H266359   5.529   4.640  14.980 -0.3555  0.7399  2.4594
14982TIP3   OH266360   5.110   2.516   2.692 -0.1790  0.2889 -0.0708
14982TIP3    H166361   5.036   2.456   2.686  0.4448 -0.4253 -1.2254
14982TIP3    H266362   5.077   2.592   2.739 -1.5107 -0.1976 -0.1859
14983TIP3   OH266363   2.598   5.923   3.452  0.8090  0.1183  0.2431
14983TIP3    H166364   2.673   5.952   3.504 -0.1720  1.1232  1.1566
14983TIP3    H266365   2.564   5.847   3.500 -1.4922  2.4058  2.5233
14984TIP3   OH266366   4.335   0.704   5.731 -0.0693 -0.2449  0.2156
14984TIP3    H166367   4.418   0.657   5.728  0.3870  0.5891 -0.9899
14984TIP3    H266368   4.280   0.653   5.790  0.5496 -2.0420 -0.6998
14985TIP3   OH266369   6.061   2.209   2.919  0.9123  0.3640 -0.0253
14985TIP3    H166370   6.156   2.210   2.931  0.9207  1.1838 -0.1031
14985TIP3    H266371   6.034   2.121   2.945  1.5775  0.4223  0.8792
14986TIP3   OH266372   1.708   5.422  15.976 -0.3508  0.0651 -0.4562
14986TIP3    H166373   1.684   5.465  16.058  1.6942  0.2491  0.1033
14986TIP3    H266374   1.690   5.487  15.908 -1.3274  0.1974 -0.0878
14987TIP3   OH266375   1.607   2.329   0.028 -0.1457  0.0297  0.4321
14987TIP3    H166376   1.668   2.298   0.094 -1.9513  0.8025  2.5948
14987TIP3    H266377   1.545   2.257   0.016 -1.3978  0.8450  1.6827
14988TIP3   OH266378   5.385   2.822  15.718 -0.2375 -0.0325 -1.3706
14988TIP3    H166379   5.337   2.905  15.723  0.0762  0.1124  2.4143
14988TIP3    H266380   5.474   2.844  15.747  0.3137 -1.4189 -1.9196
14989TIP3   OH266381   1.357   5.201  17.363  0.1970  0.0163  0.4639
14989TIP3    H166382   1.406   5.212  17.282  3.3555  0.1462  2.2133
14989TIP3    H266383   1.269   5.233  17.343  0.0173 -2.3359 -3.5543
14990TIP3   OH266384   6.388   1.056  13.220  0.1095  0.6111  0.7644
14990TIP3    H166385   6.370   0.974  13.266  0.7159  0.2204  0.3191
14990TIP3    H266386   6.302   1.099  13.214 -0.3550 -0.3432  0.3292
14991TIP3   OH266387   1.511   5.030  16.450 -0.1358  0.4740 -0.0619
14991TIP3    H166388   1.595   5.049  16.408 -0.2691 -0.0768 -0.5869
14991TIP3    H266389   1.487   4.943  16.417 -2.3470  1.7792 -2.2140
14992TIP3   OH266390   0.874   4.363   4.452  0.3023  0.5148  0.4435
14992TIP3    H166391   0.804   4.427   4.441 -0.4871 -0.5088 -0.8138
14992TIP3    H266392   0.948   4.398   4.402 -0.1465  0.4288 -0.2931
14993TIP3   OH266393   5.516   3.983   3.446  0.1179  0.1657  0.1385
14993TIP3    H166394   5.590   3.925   3.426 -0.6874 -0.4577 -1.1349
14993TIP3    H266395   5.557   4.059   3.487  1.2686 -1.0036  1.2821
14994TIP3   OH266396   6.585   3.744   3.553  0.0325 -0.2181  0.0849
14994TIP3    H166397   6.654   3.718   3.492 -0.5593 -1.2231 -0.1775
14994TIP3    H266398   6.630   3.797   3.619  0.7845  0.3958 -0.8938
14995TIP3   OH266399   1.584   6.215  17.148 -0.1300 -0.4199  0.3235
14995TIP3    H166400   1.675   6.242  17.135 -0.3566  1.6838  2.4634
14995TIP3    H266401   1.588   6.151  17.219 -0.2147 -1.5998 -0.6940
14996TIP3   OH266402   1.493   3.382  15.294  0.4799 -0.2910  0.6052
14996TIP3    H166403   1.461   3.375  15.204  1.4844  0.9755  0.1315
14996TIP3    H266404   1.557   3.311  15.302 -2.1496 -2.7643  1.5194
14997TIP3   OH266405   4.412   1.632   6.511 -0.2554  0.0080 -0.4446
14997TIP3    H166406   4.338   1.675   6.468 -1.0354 -1.6486 -0.8538
14997TIP3    H266407   4.490   1.676   6.476 -1.0149  2.0327  0.2565
14998TIP3   OH266408   2.726   4.830   3.840  0.7067 -0.3290  0.3430
14998TIP3    H166409   2.732   4.924   3.851  2.0223 -0.3898  0.2154
14998TIP3    H266410   2.803   4.806   3.789  0.4133 -1.4795  0.4080
14999TIP3   OH266411   5.530   1.576   5.224 -0.0187  0.1492 -0.6131
14999TIP3    H166412   5.504   1.596   5.314  2.3204 -0.7828  0.3415
14999TIP3    H266413   5.469   1.628   5.170 -2.0155  0.1075  1.4259
15000TIP3   OH266414   5.546   0.620  12.465  0.7796 -0.0139 -0.3479
15000TIP3    H166415   5.619   0.630  12.405 -0.2125  0.7327 -1.4769
15000TIP3    H266416   5.528   0.525  12.465  2.4152 -0.3699  0.8315
15001TIP3   OH266417   6.309   2.929  12.147  0.5504 -0.0475 -0.0428
15001TIP3    H166418   6.319   3.012  12.100  2.2791  0.3522  0.9232
15001TIP3    H266419   6.331   2.950  12.238 -0.0225 -1.3604  0.4288
15002TIP3   OH266420   4.036   0.036   4.699  0.3219  0.2720 -0.6575
15002TIP3    H166421   3.952   0.050   4.741  1.5296  0.3847  1.9199
15002TIP3    H266422   4.016   0.029   4.606 -2.8879 -2.5249  0.0560
15003TIP3   OH266423   5.841   5.342   2.432  0.2462  0.0299 -0.3861
15003TIP3    H166424   5.853   5.251   2.461 -1.0902 -0.4139 -1.1720
15003TIP3    H266425   5.930   5.372   2.411  0.9930 -0.3642  1.9247
15004TIP3   OH266426   5.639   1.432  17.414  0.7188 -0.2589  0.5298
15004TIP3    H166427   5.598   1.475  17.489  0.3315  1.0276 -0.3939
15004TIP3    H266428   5.566   1.391  17.367  0.9813 -1.2122  0.9275
15005TIP3   OH266429   0.060   1.612  14.023  0.4090 -0.2674  0.0861
15005TIP3    H166430   0.069   1.692  13.971  0.9785 -1.3346 -1.5469
15005TIP3    H266431  -0.020   1.624  14.074 -0.5090  0.5913 -1.5065
15006TIP3   OH266432   6.452   4.912  15.330  0.1966  0.0075  0.0427
15006TIP3    H166433   6.423   5.003  15.336 -1.1717 -0.4716  1.8379
15006TIP3    H266434   6.372   4.861  15.344  0.9639 -1.4808 -0.8211
15007TIP3   OH266435   1.083   0.791  15.867 -0.5986  0.2961 -0.7525
15007TIP3    H166436   1.078   0.808  15.961 -0.9931  0.2128 -0.7565
15007TIP3    H266437   1.140   0.860  15.833 -0.7589  0.5534 -0.5069
15008TIP3   OH266438   6.466   1.766  13.149 -0.6612 -0.5056  0.3130
15008TIP3    H166439   6.417   1.686  13.168 -1.5255  0.0823  0.6546
15008TIP3    H266440   6.488   1.801  13.236 -1.8260  0.5246  0.2250
15009TIP3   OH266441   3.893   3.528   5.382  0.2340  0.1759  0.1470
15009TIP3    H166442   3.844   3.453   5.349  1.0809 -1.6698  2.7844
15009TIP3    H266443   3.843   3.558   5.458  1.9954 -0.3637  1.5723
15010TIP3   OH266444   0.222   4.266   0.834 -0.0858  0.4267  1.0040
15010TIP3    H166445   0.162   4.234   0.767  0.9627 -0.4620  0.4490
15010TIP3    H266446   0.245   4.187   0.885  1.6121  0.4687  0.3675
15011TIP3   OH266447   3.934   4.224   4.064 -0.1982 -0.2648  0.3885
15011TIP3    H166448   3.946   4.156   4.130  1.3913  0.6319  1.0815
15011TIP3    H266449   4.017   4.226   4.016 -0.6416  0.4011 -0.3749
15012TIP3   OH266450   6.567   0.286  17.076  0.2032  0.1557 -0.1406
15012TIP3    H166451   6.480   0.323  17.090  0.2834  0.2729  0.0485
15012TIP3    H266452   6.573   0.213  17.138  0.0110 -0.2386 -0.5738
15013TIP3   OH266453   1.959   5.521  12.671  0.4992 -0.5680 -1.0010
15013TIP3    H166454   1.983   5.434  12.638  0.9523  0.1262 -2.6340
15013TIP3    H266455   2.024   5.540  12.738 -0.3411 -1.9768  0.2742
15014TIP3   OH266456   5.772   3.107  12.722  1.0078  0.0975 -0.0843
15014TIP3    H166457   5.796   3.021  12.755 -2.1881 -1.3805 -1.1716
15014TIP3    H266458   5.783   3.101  12.627 -0.2586  0.4596 -0.2845
15015TIP3   OH266459   2.965   5.357  11.190 -0.2739  0.1223  0.1234
15015TIP3    H166460   2.941   5.369  11.098 -1.8062 -1.0062  0.3239
15015TIP3    H266461   2.915   5.280  11.218 -0.7953  1.1407  2.2235
15016TIP3   OH266462   6.336   3.304  14.476 -0.3215  0.0529 -0.1499
15016TIP3    H166463   6.404   3.313  14.543 -0.9264 -1.4118  0.7139
15016TIP3    H266464   6.383   3.276  14.398  0.3688  1.6006 -0.3219
15017TIP3   OH266465   6.573   4.257  12.956  0.1612 -0.9812  0.1039
15017TIP3    H166466   6.645   4.305  12.997  0.5610 -0.9116 -0.6502
15017TIP3    H266467   6.535   4.204  13.026 -0.1282  0.2399  0.8897
15018TIP3   OH266468   2.434   2.432   2.923 -0.6065  0.5358 -0.3540
15018TIP3    H166469   2.352   2.393   2.890  0.2588 -1.9069  0.1997
15018TIP3    H266470   2.408   2.476   3.004 -0.9256 -3.5803  2.0823
15019TIP3   OH266471   1.191   2.706   5.470  0.0973  0.4657 -0.1944
15019TIP3    H166472   1.187   2.800   5.454  1.4520  0.6962  0.7099
15019TIP3    H266473   1.239   2.671   5.395  5.0848  1.3583  2.2038
15020TIP3   OH266474   4.252   3.789   5.418 -0.1490 -0.1708 -0.1483
15020TIP3    H166475   4.164   3.788   5.381 -0.4915  0.6326  0.6119
15020TIP3    H266476   4.276   3.697   5.425 -0.0282 -0.3517 -2.4363
15021TIP3   OH266477   2.798   2.876  16.833  0.0585  0.1142 -0.5541
15021TIP3    H166478   2.725   2.931  16.862  1.2228  1.0090  0.8738
15021TIP3    H266479   2.787   2.794  16.882 -0.2012  0.1070 -0.6249
15022TIP3   OH266480   1.701   0.784  14.308 -0.3111  0.5748  0.2191
15022TIP3    H166481   1.643   0.724  14.355  0.6768 -1.2614 -0.7742
15022TIP3    H266482   1.654   0.806  14.228 -1.7315  3.2145  1.6480
15023TIP3   OH266483   3.424   0.635   5.899 -0.4735  0.5910  0.3896
15023TIP3    H166484   3.437   0.682   5.817 -2.2834  2.0442  0.8487
15023TIP3    H266485   3.495   0.665   5.955 -1.0129  2.0709  0.3349
15024TIP3   OH266486   3.398   3.038  15.130  0.3505  0.4442 -0.3027
15024TIP3    H166487   3.411   3.129  15.159 -2.0324  0.8895 -0.3878
15024TIP3    H266488   3.355   2.995  15.204  2.1391 -0.8893  0.0293
15025TIP3   OH266489   5.662   3.934   5.396 -1.0726  0.1879 -0.5808
15025TIP3    H166490   5.716   3.893   5.329 -1.0923  0.8338 -1.0092
15025TIP3    H266491   5.722   3.992   5.443 -0.9214 -0.7055  0.3707
15026TIP3   OH266492   4.768   3.503   1.545  0.1804  0.0732 -0.4512
15026TIP3    H166493   4.777   3.409   1.526  0.6174  0.1483 -0.6455
15026TIP3    H266494   4.698   3.508   1.609  0.8590 -0.4890  0.3597
15027TIP3   OH266495   6.077   4.895   1.684 -0.1885  0.1392  0.1386
15027TIP3    H166496   6.171   4.880   1.669 -0.4065 -0.4462 -0.7096
15027TIP3    H266497   6.072   4.923   1.775  0.5437 -2.5993  1.1415
15028TIP3   OH266498   4.659   5.765  12.669  0.2614 -0.2872  0.1319
15028TIP3    H166499   4.586   5.756  12.608  1.5824  0.3609 -1.5921
15028TIP3    H266500   4.733   5.793  12.616  1.5993 -0.1405  1.9579
15029TIP3   OH266501   5.285   4.699   0.547  0.4808  0.4740  0.5598
15029TIP3    H166502   5.302   4.637   0.618  3.0741  0.9209  0.4162
15029TIP3    H266503   5.309   4.651   0.467 -0.3417  0.6981  0.1652
15030TIP3   OH266504   2.301   2.089  10.760 -0.2415 -0.1165 -0.3150
15030TIP3    H166505   2.217   2.047  10.777 -0.0992 -0.4317 -0.3775
15030TIP3    H266506   2.365   2.018  10.771 -0.0922 -0.1911 -1.5486
15031TIP3   OH266507   5.184   4.508  14.346 -0.1988  0.3104  0.1022
15031TIP3    H166508   5.239   4.560  14.287  0.5501  1.1828  1.5094
15031TIP3    H266509   5.098   4.548  14.339  0.2723  1.5078  0.8319
15032TIP3   OH266510   3.955   5.655   1.404  0.1357 -0.0336 -0.2244
15032TIP3    H166511   3.980   5.737   1.446 -0.4014 -0.5351  1.1272
15032TIP3    H266512   3.859   5.660   1.396  0.0182 -0.7915  0.5032
15033TIP3   OH266513   0.020   2.570  11.233  0.5599 -0.2430  0.2929
15033TIP3    H166514   0.114   2.566  11.213  0.7212  0.2489  0.9008
15033TIP3    H266515   0.016   2.619  11.315 -0.2884  0.3618 -0.1007
15034TIP3   OH266516   0.500   2.217   0.697 -0.7766 -0.3067 -0.7285
15034TIP3    H166517   0.553   2.291   0.727 -0.6399 -0.6846 -0.0196
15034TIP3    H266518   0.448   2.193   0.774 -0.2853 -1.4147 -0.7259
15035TIP3   OH266519   6.069   4.307  12.172  0.2391  0.0038  0.4686
15035TIP3    H166520   6.150   4.309  12.121 -0.9526  0.9859 -1.4960
15035TIP3    H266521   6.040   4.216  12.166  2.1943 -0.9069  3.0029
15036TIP3   OH266522   1.816   0.312  12.236 -0.2383 -0.2142 -0.0131
15036TIP3    H166523   1.760   0.298  12.160 -0.0027 -0.0971 -0.2089
15036TIP3    H266524   1.879   0.378  12.208  0.2279 -0.6126  0.0863
15037TIP3   OH266525   1.222   1.842  12.018 -0.3827 -0.3930 -0.0779
15037TIP3    H166526   1.145   1.868  11.968 -0.7643 -0.2557  0.5635
15037TIP3    H266527   1.187   1.800  12.096  0.1059  1.5890  1.3045
15038TIP3   OH266528   1.351   1.844  17.057  0.3711  0.1185 -0.5641
15038TIP3    H166529   1.336   1.757  17.095  2.7435 -0.7066 -1.3482
15038TIP3    H266530   1.288   1.850  16.986 -2.5601  0.7454  1.8524
15039TIP3   OH266531   1.797   2.293   3.608 -0.6000  0.0407 -0.4733
15039TIP3    H166532   1.857   2.328   3.543  3.1669 -2.3975  1.3643
15039TIP3    H266533   1.790   2.362   3.674  0.8968  0.0681 -0.3204
15040TIP3   OH266534   1.851   0.693  11.141  0.1876  0.3540  0.1746
15040TIP3    H166535   1.819   0.774  11.103 -0.8668  0.2579  0.8111
15040TIP3    H266536   1.862   0.713  11.234  2.0310  0.3806 -0.0134
15041TIP3   OH266537   0.709   1.696   0.428  0.5316  0.2703  0.3501
15041TIP3    H166538   0.669   1.697   0.514  1.2042  0.9868  0.6679
15041TIP3    H266539   0.717   1.788   0.404  0.4824  0.0829 -0.4146
15042TIP3   OH266540   5.607   4.453   3.039  0.0368 -0.7508  0.1535
15042TIP3    H166541   5.696   4.487   3.042 -0.3397  0.4884 -1.4513
15042TIP3    H266542   5.613   4.374   2.986  0.0312 -0.0844 -0.8604
15043TIP3   OH266543   0.306   4.722   6.188 -0.2337  0.8856 -0.5411
15043TIP3    H166544   0.292   4.664   6.114 -0.0736  1.5845 -1.1296
15043TIP3    H266545   0.219   4.737   6.225 -0.0978 -1.1856  0.7673
15044TIP3   OH266546   1.314   4.822   3.558 -0.3817 -0.2298  0.0736
15044TIP3    H166547   1.259   4.747   3.580 -1.6319  0.7305  0.3070
15044TIP3    H266548   1.359   4.796   3.478 -0.4717 -1.3849  0.3849
15045TIP3   OH266549   1.952   5.806   5.923  0.2208 -0.0912  0.0895
15045TIP3    H166550   1.969   5.837   6.012  1.6478 -0.9176  0.1389
15045TIP3    H266551   1.957   5.711   5.929 -2.6878 -0.3603 -0.3401
15046TIP3   OH266552   4.986   0.939   0.376 -0.3525  0.0962  0.1548
15046TIP3    H166553   5.012   0.890   0.298 -0.1534 -1.5326  1.1715
15046TIP3    H266554   4.895   0.962   0.361 -0.1852  0.1976 -0.7489
15047TIP3   OH266555   3.905   5.947   4.690  0.1163  0.3468  0.3545
15047TIP3    H166556   3.899   6.034   4.729  0.9501  1.7169 -2.3107
15047TIP3    H266557   3.827   5.939   4.635 -1.5231 -1.9099  2.7426
15048TIP3   OH266558   5.288   4.780  12.409 -0.3495 -0.3638 -0.2372
15048TIP3    H166559   5.221   4.714  12.388  0.6109 -1.0261 -1.3290
15048TIP3    H266560   5.371   4.732  12.403  0.1942 -0.0431  2.9115
15049TIP3   OH266561   1.066   5.433  14.273  0.2950  0.4388 -0.5574
15049TIP3    H166562   1.079   5.473  14.187 -0.7093 -0.8662 -1.3515
15049TIP3    H266563   1.146   5.383  14.289  1.4516  2.4176  0.3260
15050TIP3   OH266564   3.108   6.094  16.165 -0.0308  0.1623 -0.3153
15050TIP3    H166565   3.026   6.052  16.140  0.9758 -1.6415 -0.7334
15050TIP3    H266566   3.160   6.096  16.084  1.0202 -0.3756  0.3248
15051TIP3   OH266567   5.606   4.522   4.565  0.4249  0.2463 -0.3194
15051TIP3    H166568   5.543   4.518   4.493  1.2803  0.9035 -1.1342
15051TIP3    H266569   5.651   4.437   4.561  0.5375  0.3201 -0.6216
15052TIP3   OH266570   5.972   2.630  11.763 -0.4397 -0.1305  0.4154
15052TIP3    H166571   5.962   2.725  11.760 -0.1446 -0.0466  1.5408
15052TIP3    H266572   5.994   2.605  11.674 -0.1468  0.9012  0.1875
15053TIP3   OH266573   1.890   0.537  14.640  0.2495  0.4118  0.1273
15053TIP3    H166574   1.907   0.581  14.557  0.0225 -0.5442 -0.4501
15053TIP3    H266575   1.828   0.593  14.685 -0.9177  0.1529 -1.0814
15054TIP3   OH266576   3.283   4.092  11.438  0.2907 -0.2744  0.2124
15054TIP3    H166577   3.247   4.100  11.350 -0.0634  0.7283  0.4382
15054TIP3    H266578   3.366   4.140  11.435  0.3061 -0.2865  0.4130
15055TIP3   OH266579   2.125   2.076   3.819  0.6228 -0.6310  0.5569
15055TIP3    H166580   2.151   1.984   3.813  0.5550 -0.5352 -2.5091
15055TIP3    H266581   2.066   2.090   3.745  0.6258  1.8884  0.9246
15056TIP3   OH266582   3.954   0.883   5.413 -0.1378 -0.3466 -0.1526
15056TIP3    H166583   4.038   0.909   5.450  0.0173 -2.4565  1.1681
15056TIP3    H266584   3.964   0.789   5.395 -1.6992 -0.3123 -1.4374
15057TIP3   OH266585   0.046   1.121   3.204  0.4057 -0.0523  0.0040
15057TIP3    H166586   0.103   1.194   3.181  1.5463 -0.9343 -0.0654
15057TIP3    H266587   0.072   1.050   3.145 -1.4075 -0.2334 -0.6712
15058TIP3   OH266588   4.182   4.967  14.483  0.7999  0.3143  0.4009
15058TIP3    H166589   4.159   4.985  14.574 -0.6801  2.5583 -0.3315
15058TIP3    H266590   4.222   4.880  14.485 -0.7233 -0.4212  2.9366
15059TIP3   OH266591   0.945   6.334   6.268 -0.3393  0.3726 -0.3936
15059TIP3    H166592   0.891   6.275   6.320 -0.8234  0.3039 -0.9711
15059TIP3    H266593   1.031   6.291   6.266 -0.7031 -0.3690 -0.8746
15060TIP3   OH266594   0.647   4.327   6.066 -0.2235  0.5852  0.6213
15060TIP3    H166595   0.715   4.275   6.024 -0.5994  0.7492 -0.2239
15060TIP3    H266596   0.687   4.360   6.146  0.3238 -0.2235  0.6878
15061TIP3   OH266597   4.358   3.610  14.692 -0.1682 -0.6201  0.4802
15061TIP3    H166598   4.433   3.660  14.725  0.2202 -0.7673 -0.1624
15061TIP3    H266599   4.360   3.528  14.741  1.1222 -1.3451 -0.7078
15062TIP3   OH266600   5.204   5.556   5.824 -0.0627  0.3119  0.0076
15062TIP3    H166601   5.143   5.551   5.899  0.1625  0.8246  0.2295
15062TIP3    H266602   5.184   5.478   5.772 -1.3813  0.8072 -0.2801
15063TIP3   OH266603   3.464   6.708   4.859  0.3315  0.3681 -0.8400
15063TIP3    H166604   3.543   6.736   4.812  0.9154  0.9728  0.4571
15063TIP3    H266605   3.496   6.653   4.930 -0.5733 -0.8177 -1.3163
15064TIP3   OH266606   5.873   0.610  15.450  0.1206 -0.0718 -0.0439
15064TIP3    H166607   5.846   0.626  15.359 -0.8738 -0.9173  0.0921
15064TIP3    H266608   5.840   0.686  15.498 -0.3229 -0.1603 -0.2061
15065TIP3   OH266609   5.018   0.478  12.541 -0.3689 -0.0128  0.2763
15065TIP3    H166610   5.104   0.516  12.557 -0.0248 -0.8364  0.4516
15065TIP3    H266611   5.007   0.483  12.446  0.3639 -0.8969  0.1298
15066TIP3   OH266612   2.839   5.662  11.030 -0.4023  0.3650 -0.8075
15066TIP3    H166613   2.808   5.576  11.004  0.6509 -0.1390 -0.4661
15066TIP3    H266614   2.934   5.652  11.038 -0.2302  1.6212 -1.0206
15067TIP3   OH266615   2.823   3.915  17.273  0.3852 -0.4753  0.0890
15067TIP3    H166616   2.869   3.834  17.249  1.0772 -0.2982  0.8056
15067TIP3    H266617   2.879   3.957  17.338 -0.8042 -0.2774  1.0327
15068TIP3   OH266618   5.711   4.304  15.242  0.2520 -0.0872  0.0830
15068TIP3    H166619   5.673   4.391  15.250  1.1751  0.4020 -0.6745
15068TIP3    H266620   5.696   4.279  15.151  0.9076 -0.2775  0.0232
15069TIP3   OH266621   0.261   0.556   3.829  0.1011  0.3130  0.3076
15069TIP3    H166622   0.291   0.644   3.849  0.6956 -0.4094  2.9592
15069TIP3    H266623   0.237   0.519   3.914 -0.6301 -1.9048 -0.7977
15070TIP3   OH266624   3.551   6.613   3.459  0.8776  1.1186  0.2738
15070TIP3    H166625   3.455   6.603   3.464  0.6495  1.2097 -2.5761
15070TIP3    H266626   3.581   6.586   3.546 -1.4380 -2.7990  0.1191
15071TIP3   OH266627   2.806   0.121  12.804  0.7589 -0.6059  0.4134
15071TIP3    H166628   2.780   0.156  12.720  0.9504 -0.4066  0.4357
15071TIP3    H266629   2.769   0.033  12.807 -0.7743  0.0271  0.8697
15072TIP3   OH266630   1.710   4.684  12.489 -0.1604 -0.0738  0.8216
15072TIP3    H166631   1.752   4.757  12.444  0.3568  0.7834  2.5942
15072TIP3    H266632   1.726   4.701  12.582 -1.0009 -1.8625  1.3372
15073TIP3   OH266633   0.466   5.426   6.498 -0.4126 -0.8456  0.1490
15073TIP3    H166634   0.436   5.376   6.574 -0.3779 -2.1067 -0.6349
15073TIP3    H266635   0.413   5.393   6.425 -0.2681  0.1536 -0.4308
15074TIP3   OH266636   4.366   4.425  12.472 -0.0970 -0.2551  0.2827
15074TIP3    H166637   4.281   4.463  12.491  0.2640 -0.7596  3.5145
15074TIP3    H266638   4.393   4.465  12.390 -2.5197  1.4796  0.2420
15075TIP3   OH266639   2.398   2.014   0.827  0.0867 -0.1701  0.1271
15075TIP3    H166640   2.329   2.022   0.761  2.5100  2.5602 -2.3395
15075TIP3    H266641   2.435   1.926   0.813 -0.6888 -0.3674 -0.7903
15076TIP3   OH266642   1.334   6.181   0.840 -0.9236 -0.3171  0.0300
15076TIP3    H166643   1.345   6.226   0.923 -0.0880 -0.4472  0.0042
15076TIP3    H266644   1.334   6.250   0.774  0.9366 -0.3624 -0.0583
15077TIP3   OH266645   1.883   2.030   3.552 -0.2407  0.2222  0.2379
15077TIP3    H166646   1.845   2.114   3.577  0.7074  0.9220 -0.5691
15077TIP3    H266647   1.942   2.051   3.479  1.8261 -0.7620  1.5269
15078TIP3   OH266648   5.079   3.362  13.697  0.1490  0.2118 -0.4532
15078TIP3    H166649   5.070   3.270  13.722  0.0183  0.8139  2.0445
15078TIP3    H266650   5.117   3.404  13.774  2.5782  1.8717 -2.3981
15079TIP3   OH266651   5.001   6.036  16.788  0.1930 -0.0189 -0.3678
15079TIP3    H166652   5.093   6.055  16.808  0.5403  1.5236 -2.9922
15079TIP3    H266653   5.003   5.956  16.736 -0.1158 -0.7253  0.6788
15080TIP3   OH266654   3.121   4.269   0.813  0.6739  0.1556  0.0858
15080TIP3    H166655   3.142   4.240   0.724 -1.1522 -0.7073 -0.1304
15080TIP3    H266656   3.175   4.346   0.827  1.2176  0.1471 -1.6726
15081TIP3   OH266657   1.370   0.763   0.188 -0.0721 -0.4138 -0.3417
15081TIP3    H166658   1.396   0.809   0.108 -1.7290  1.9898  0.3842
15081TIP3    H266659   1.451   0.723   0.220  1.2589  1.0561 -1.6774
15082TIP3   OH266660   1.536   1.618  12.427 -0.0445 -0.3791 -0.1438
15082TIP3    H166661   1.477   1.566  12.483 -0.5595  0.5153  0.1629
15082TIP3    H266662   1.479   1.654  12.360 -0.4088  2.5524  1.5728
15083TIP3   OH266663   1.706   0.181   1.629  0.0847  0.3450  0.0088
15083TIP3    H166664   1.689   0.173   1.535  0.5681  1.3838 -0.1835
15083TIP3    H266665   1.688   0.273   1.649  1.2451  0.4483  0.6568
15084TIP3   OH266666   5.136   5.210  14.483  0.1276  0.1855 -0.4000
15084TIP3    H166667   5.076   5.185  14.554  1.3926  1.2421  1.1412
15084TIP3    H266668   5.106   5.298  14.458  0.0863  0.0800 -0.7159
15085TIP3   OH266669   3.579   5.262  10.703  0.1966 -0.3138  0.1591
15085TIP3    H166670   3.668   5.296  10.692  0.2815 -0.9263 -1.2916
15085TIP3    H266671   3.592   5.171  10.727 -0.0476  0.2968  2.9507
15086TIP3   OH266672   0.095   3.384   0.906 -0.4609  0.0382 -0.7885
15086TIP3    H166673   0.089   3.343   0.992  2.4200  1.1919  0.1069
15086TIP3    H266674   0.066   3.474   0.920 -1.2903 -0.1278 -1.3789
15087TIP3   OH266675   0.082   6.693  11.766  0.3502 -0.0427 -0.5068
15087TIP3    H166676   0.090   6.609  11.720  1.2617 -1.0621  1.4012
15087TIP3    H266677   0.173   6.719  11.783  0.0508 -0.0200  1.2187
15088TIP3   OH266678   1.365   2.506   6.447 -0.2044  0.0492  0.2231
15088TIP3    H166679   1.398   2.542   6.530 -2.1815 -1.7228  1.9107
15088TIP3    H266680   1.271   2.497   6.462 -0.5119 -0.9153 -2.0245
15089TIP3   OH266681   0.783   4.479   3.629  0.2186  0.0049  0.0580
15089TIP3    H166682   0.756   4.567   3.602 -1.1412 -0.7562 -1.2469
15089TIP3    H266683   0.808   4.435   3.548  0.0146 -1.0852  0.5604
15090TIP3   OH266684   5.159   2.385   0.013 -0.2907 -0.7158 -0.0056
15090TIP3    H166685   5.186   2.296  -0.010  0.0263 -0.8871  0.9958
15090TIP3    H266686   5.169   2.434  -0.069  1.3910 -1.1616 -0.1079
15091TIP3   OH266687   3.063   3.040  15.287  0.5326 -0.0299  0.1000
15091TIP3    H166688   3.003   2.973  15.256 -0.3751  1.0436 -0.5374
15091TIP3    H266689   3.142   2.992  15.311 -0.4854 -1.4614  0.7774
15092TIP3   OH266690   5.128   2.318  11.855  0.6056  0.2080  0.0270
15092TIP3    H166691   5.159   2.333  11.945  0.8822  0.4302 -0.1053
15092TIP3    H266692   5.043   2.276  11.867 -0.6473  2.6491  0.4444
15093TIP3   OH266693   2.520   3.312   6.860 -0.1528 -0.7892  0.2324
15093TIP3    H166694   2.440   3.320   6.809 -0.5400  0.2181  0.9774
15093TIP3    H266695   2.521   3.389   6.917  1.3994 -0.7129  0.1628
15094TIP3   OH266696   2.125   2.320  14.130 -0.4585 -0.4078 -0.1763
15094TIP3    H166697   2.168   2.351  14.050 -0.2881  1.4087  0.5655
15094TIP3    H266698   2.170   2.238  14.150 -1.6525 -1.8229 -2.8284
15095TIP3   OH266699   1.919   3.842  16.446  0.5183 -0.7736 -0.3530
15095TIP3    H166700   1.899   3.764  16.499  0.7979 -0.4302  0.2699
15095TIP3    H266701   1.914   3.915  16.508 -1.2110 -0.0974 -1.2284
15096TIP3   OH266702   6.614   2.236  10.777  0.6350  0.3181  0.1549
15096TIP3    H166703   6.693   2.285  10.755  1.4047 -0.3832  1.2853
15096TIP3    H266704   6.645   2.158  10.822 -0.5932 -1.0344 -1.2012
15097TIP3   OH266705   3.241   2.009   0.486 -0.1042  0.0923 -0.0622
15097TIP3    H166706   3.278   2.047   0.566  0.0768 -0.7361  0.2497
15097TIP3    H266707   3.307   2.028   0.419 -0.3689  1.0101 -0.0803
15098TIP3   OH266708   2.236   2.137   0.190 -0.4759  0.0108  0.2223
15098TIP3    H166709   2.270   2.156   0.103 -2.9580 -0.4013 -0.9199
15098TIP3    H266710   2.314   2.128   0.245  1.1450  0.6722 -1.8435
15099TIP3   OH266711   5.317   1.991  11.202 -0.0314 -0.1689  0.0460
15099TIP3    H166712   5.275   2.021  11.122 -0.0472  0.1050  0.1562
15099TIP3    H266713   5.326   2.070  11.256  1.5856  0.0036 -0.4053
15100TIP3   OH266714   3.640   4.540  16.759 -0.1696 -0.6895 -0.1636
15100TIP3    H166715   3.600   4.469  16.709  0.3325  0.1742 -1.8546
15100TIP3    H266716   3.725   4.505  16.787 -0.1952 -0.9638 -0.4246
15101TIP3   OH266717   3.006   5.649   6.434  0.1601  0.3416  0.3162
15101TIP3    H166718   3.056   5.665   6.354 -1.2931  0.3015 -0.6370
15101TIP3    H266719   3.023   5.558   6.455 -1.0352 -0.2481 -1.1323
15102TIP3   OH266720   1.659   1.099  16.384  0.4100  0.4611  0.1387
15102TIP3    H166721   1.739   1.141  16.353 -0.2141  1.7647  0.2155
15102TIP3    H266722   1.655   1.121  16.477 -0.6283  1.4375 -0.1168
15103TIP3   OH266723   0.139   3.448   5.164  0.0561  0.5681 -0.0550
15103TIP3    H166724   0.157   3.441   5.070  0.3238  2.5159 -0.1987
15103TIP3    H266725   0.043   3.443   5.170  0.1296 -2.0407 -0.1229
15104TIP3   OH266726   1.018   3.911   4.168 -0.3559  0.1566  0.4727
15104TIP3    H166727   1.052   3.856   4.238 -1.0454  1.8671  2.2330
15104TIP3    H266728   0.925   3.890   4.162 -0.6155  1.0505  1.1269
15105TIP3   OH266729   2.565   5.153   4.844  0.0873 -0.6384  0.5872
15105TIP3    H166730   2.659   5.157   4.860  0.1049 -1.8404  0.9184
15105TIP3    H266731   2.557   5.108   4.760 -0.1984 -1.5581  1.0876
15106TIP3   OH266732   5.963   3.524   4.903 -0.0851 -0.0010  0.0708
15106TIP3    H166733   5.873   3.524   4.870 -0.5886  1.1425  1.3575
15106TIP3    H266734   5.966   3.447   4.960 -0.0195 -0.4391 -0.5092
15107TIP3   OH266735   2.692   5.308  16.120  0.0619 -0.0230  0.2657
15107TIP3    H166736   2.629   5.380  16.112  0.5294  0.6111  1.8354
15107TIP3    H266737   2.641   5.236  16.156 -0.6345 -0.8615 -2.2249
15108TIP3   OH266738   3.366   0.393   1.346 -0.2047  0.1240  0.1333
15108TIP3    H166739   3.445   0.438   1.317 -0.9021  1.4135  0.1518
15108TIP3    H266740   3.355   0.321   1.285  0.0208  0.9801 -0.9470
15109TIP3   OH266741   4.921   5.016  17.484 -0.8241  0.2382 -0.7320
15109TIP3    H166742   5.001   4.967  17.504  0.2580  1.0443 -2.7739
15109TIP3    H266743   4.861   4.950  17.450  0.3158  0.1059 -2.6387
15110TIP3   OH266744   0.377   5.385  13.868  0.4610  0.5134 -0.3516
15110TIP3    H166745   0.428   5.438  13.929  0.0990  2.3307 -1.5621
15110TIP3    H266746   0.295   5.367  13.915  1.1541 -0.2509  0.6137
15111TIP3   OH266747   4.077   1.693  13.960  0.3720 -0.1768 -0.1632
15111TIP3    H166748   4.144   1.654  13.904 -0.4691 -1.1756 -0.4999
15111TIP3    H266749   4.062   1.628  14.029 -1.1247 -0.5295 -0.7935
15112TIP3   OH266750   0.722   3.656   6.111 -0.2850  0.2294  0.6996
15112TIP3    H166751   0.768   3.575   6.132  1.0436  0.8881  0.3820
15112TIP3    H266752   0.782   3.705   6.055 -1.7864  0.6714 -0.6063
15113TIP3   OH266753   0.232   6.296  12.186  0.6070 -0.2937 -0.4227
15113TIP3    H166754   0.325   6.287  12.204  0.6940  0.6226 -0.3768
15113TIP3    H266755   0.191   6.224  12.234  1.1810 -0.0368  0.4777
15114TIP3   OH266756   3.656   0.214   1.968 -0.2019 -0.2132  0.0399
15114TIP3    H166757   3.604   0.288   1.997  1.2221  0.9811 -0.3385
15114TIP3    H266758   3.723   0.203   2.036  0.3176 -0.3921 -0.4899
15115TIP3   OH266759   2.886   3.740   0.666 -0.4522 -0.6847  0.2485
15115TIP3    H166760   2.962   3.767   0.615 -0.8407 -1.0752 -0.5502
15115TIP3    H266761   2.905   3.771   0.755  0.4351 -0.3946 -0.0298
15116TIP3   OH266762   4.531   0.997  17.490 -0.7232  0.1133 -0.0731
15116TIP3    H166763   4.508   1.070  17.432 -0.8012 -0.5277 -0.8778
15116TIP3    H266764   4.586   0.940  17.436 -2.5738 -1.6205 -0.2943
15117TIP3   OH266765   2.433   4.082   1.016 -0.3250 -0.8780 -0.0042
15117TIP3    H166766   2.354   4.112   0.971  0.1371  0.6464  0.1524
15117TIP3    H266767   2.401   4.041   1.096 -1.0608 -2.1261 -0.9024
15118TIP3   OH266768   2.629   6.686   4.362  0.1347 -0.1607  0.1264
15118TIP3    H166769   2.717   6.649   4.368  1.8344  3.2273 -1.5729
15118TIP3    H266770   2.620   6.739   4.441 -0.4926 -0.5889  0.3561
15119TIP3   OH266771   4.445   4.911  15.459 -0.1217 -0.2659  0.1290
15119TIP3    H166772   4.514   4.874  15.514  0.2744  1.0259  0.5261
15119TIP3    H266773   4.458   4.871  15.373 -0.9073 -2.5389  0.9593
15120TIP3   OH266774   6.482   2.105  15.732  0.1847 -0.1466 -0.2131
15120TIP3    H166775   6.546   2.130  15.665  1.2895 -1.5147  0.2839
15120TIP3    H266776   6.494   2.169  15.802  2.0903 -1.2500  0.5156
15121TIP3   OH266777   1.228   2.297   0.107  0.6944 -0.1751 -0.3494
15121TIP3    H166778   1.304   2.304   0.165 -1.0876  0.8621  2.0338
15121TIP3    H266779   1.208   2.388   0.083  0.2140 -0.4425 -0.9814
15122TIP3   OH266780   0.094   3.514  14.691 -0.1797  0.1459 -0.1935
15122TIP3    H166781   0.019   3.505  14.750  0.4219 -0.7537  0.4619
15122TIP3    H266782   0.056   3.540  14.607 -1.1854  0.0180  0.2120
15123TIP3   OH266783   0.697   0.868   4.216  0.2970 -0.3293 -0.0390
15123TIP3    H166784   0.753   0.932   4.172 -0.5010  0.3875 -0.0423
15123TIP3    H266785   0.620   0.862   4.160 -0.7903  0.6880  1.2784
15124TIP3   OH266786   6.192   5.004   0.481  0.1204  0.6858  0.8693
15124TIP3    H166787   6.181   4.944   0.407 -2.0116  2.6245 -0.5457
15124TIP3    H266788   6.286   5.017   0.489  0.4116  0.3035 -1.4250
15125TIP3   OH266789   0.312   5.019   0.110 -0.6027  0.4778  0.2954
15125TIP3    H166790   0.309   5.070   0.030 -1.4123  1.2127  0.7820
15125TIP3    H266791   0.361   4.940   0.086 -1.3595  0.3940 -1.0813
15126TIP3   OH266792   0.186   2.159   6.873  0.0397 -0.6771  0.3180
15126TIP3    H166793   0.122   2.161   6.802  0.3367  1.6042  0.0439
15126TIP3    H266794   0.269   2.138   6.830  0.2223  0.7190 -0.0557
15127TIP3   OH266795   1.371   4.039  16.660 -0.2893  0.0663  0.0010
15127TIP3    H166796   1.422   3.963  16.633  1.2509  1.3182 -0.7795
15127TIP3    H266797   1.433   4.112  16.660 -2.0971  1.7369 -1.3037
15128TIP3   OH266798   2.243   5.047   2.073 -0.2030  0.4978 -0.5459
15128TIP3    H166799   2.178   5.047   2.002 -0.3156 -0.1370 -0.4466
15128TIP3    H266800   2.277   4.958   2.074  0.5512  0.7802 -0.4793
15129TIP3   OH266801   5.667   5.333   5.558 -0.0657  0.0136  0.7890
15129TIP3    H166802   5.671   5.341   5.653  1.5129  1.2755  0.6479
15129TIP3    H266803   5.603   5.399   5.531  0.0083  0.1404  0.9219
15130TIP3   OH266804   3.150   1.242   0.750 -0.0000 -0.0953 -0.1426
15130TIP3    H166805   3.140   1.293   0.830  2.0655  0.3185 -0.0846
15130TIP3    H266806   3.157   1.307   0.680 -1.9996 -0.4580 -0.7393
15131TIP3   OH266807   0.555   6.185  13.187 -0.1581 -0.6551  0.0203
15131TIP3    H166808   0.479   6.130  13.204 -0.8822  0.3682  0.2011
15131TIP3    H266809   0.518   6.269  13.160  0.8902  0.1835  1.0963
15132TIP3   OH266810   5.596   3.603   5.744 -0.1706  0.5893 -0.0501
15132TIP3    H166811   5.599   3.699   5.753  1.4650  0.5303  0.3568
15132TIP3    H266812   5.504   3.584   5.726 -0.3164  2.3529 -1.5383
15133TIP3   OH266813   3.871   5.253  16.613  0.1142 -0.3296  0.2069
15133TIP3    H166814   3.820   5.190  16.663 -0.4427 -0.9052 -1.0400
15133TIP3    H266815   3.872   5.218  16.524  0.6195  0.9298 -0.3095
15134TIP3   OH266816   4.760   0.942  11.489 -0.0414 -0.2195  0.0242
15134TIP3    H166817   4.854   0.929  11.484  0.0113 -0.1343  0.7267
15134TIP3    H266818   4.726   0.901  11.409  0.5455 -0.6250 -0.0233
15135TIP3   OH266819   5.638   6.229   4.234  0.0997 -0.1883 -0.3369
15135TIP3    H166820   5.686   6.204   4.155  0.6905 -0.4208  0.0852
15135TIP3    H266821   5.685   6.185   4.305 -1.3225 -1.2379  0.0035
15136TIP3   OH266822   3.460   1.014   2.098  0.5972  0.8598  0.0821
15136TIP3    H166823   3.473   0.985   2.008 -1.2228 -0.3183  0.1489
15136TIP3    H266824   3.451   0.933   2.149 -2.7570  1.3853  0.5727
15137TIP3   OH266825   4.451   2.628  11.909  0.0285 -0.1863  0.2413
15137TIP3    H166826   4.483   2.608  11.821 -1.0198 -0.0087 -0.1946
15137TIP3    H266827   4.451   2.543  11.954  1.8847 -0.0658  0.5449
15138TIP3   OH266828   6.211   0.462   0.641  0.0799  0.5516 -0.4809
15138TIP3    H166829   6.272   0.394   0.670 -1.1061 -0.4414 -0.2364
15138TIP3    H266830   6.241   0.484   0.552  0.4562 -0.3189 -0.5838
15139TIP3   OH266831   1.756   2.865   0.463  0.1219  0.2222  0.2536
15139TIP3    H166832   1.785   2.926   0.530  0.2447  0.1707  0.2480
15139TIP3    H266833   1.663   2.884   0.451 -0.0446 -0.1717  0.8699
15140TIP3   OH266834   1.279   4.731  16.285  0.0638 -0.0543 -0.7735
15140TIP3    H166835   1.187   4.706  16.293 -0.4351  1.5652 -1.0030
15140TIP3    H266836   1.307   4.695  16.201 -0.2878 -0.7221 -0.6111
15141TIP3   OH266837   4.665   3.647  14.856 -0.1263  0.4464  0.3527
15141TIP3    H166838   4.660   3.579  14.788 -0.8254  0.0737  0.7627
15141TIP3    H266839   4.664   3.730  14.807 -2.8321  0.2554 -0.0672
15142TIP3   OH266840   0.512   0.696   1.585  0.1283  0.1622 -0.4849
15142TIP3    H166841   0.531   0.741   1.666 -2.1843  0.2588  0.0655
15142TIP3    H266842   0.438   0.639   1.605  0.0852 -0.5062 -2.2893
15143TIP3   OH266843   5.648   2.900  13.961  0.4815  0.6410  0.1940
15143TIP3    H166844   5.602   2.911  13.877 -0.2583  0.9309  0.6327
15143TIP3    H266845   5.623   2.976  14.013 -0.4431 -0.3766  1.2995
15144TIP3   OH266846   5.324   3.860   6.468  0.1815  0.3055 -0.0108
15144TIP3    H166847   5.397   3.840   6.527  0.1355  3.3133  1.2814
15144TIP3    H266848   5.349   3.943   6.427 -1.7195  0.4753 -0.9417
15145TIP3   OH266849   0.725   1.221   4.782  0.1864 -0.0388 -0.9989
15145TIP3    H166850   0.694   1.233   4.692  2.3218  0.5509 -1.7086
15145TIP3    H266851   0.726   1.309   4.819 -1.5540 -0.3746 -0.0337
15146TIP3   OH266852   4.510   3.472  14.437  0.7245  0.0944  1.0989
15146TIP3    H166853   4.564   3.450  14.361 -0.5249 -1.4446  0.5811
15146TIP3    H266854   4.547   3.420  14.509 -0.1218 -1.1253  0.6955
15147TIP3   OH266855   1.908   0.297   0.444 -0.5329 -0.2219 -0.0492
15147TIP3    H166856   1.951   0.217   0.472  2.0411  0.3492 -2.0473
15147TIP3    H266857   1.883   0.281   0.353 -1.5065  0.6750  0.0352
15148TIP3   OH266858   3.140   5.527   3.056 -0.7689 -0.3900 -0.0290
15148TIP3    H166859   3.210   5.542   3.120  0.7704 -1.1185 -1.4400
15148TIP3    H266860   3.120   5.434   3.063 -0.5277 -0.4945 -0.6316
15149TIP3   OH266861   3.812   1.858   0.672  0.3077  0.3901  0.3444
15149TIP3    H166862   3.794   1.935   0.727 -0.6918  0.3238  0.1290
15149TIP3    H266863   3.799   1.783   0.730  2.4091  0.3686  0.8762
15150TIP3   OH266864   1.390   5.375   2.296  1.0382  0.0260  0.0085
15150TIP3    H166865   1.400   5.461   2.337  2.4161  0.3429 -0.9283
15150TIP3    H266866   1.428   5.314   2.360 -1.6000 -0.1858  1.5103
15151TIP3   OH266867   6.687   3.970  13.262  0.1435 -0.5640 -0.2926
15151TIP3    H166868   6.739   4.048  13.242 -0.5765  0.0885  0.2878
15151TIP3    H266869   6.707   3.909  13.192  1.2649 -0.1206 -0.3740
15152TIP3   OH266870   1.088   4.976   3.039 -0.7978  0.1339  0.0043
15152TIP3    H166871   1.023   4.996   3.106 -0.1518  1.0421  0.3766
15152TIP3    H266872   1.117   5.061   3.006  0.4646 -0.2337  0.1068
15153TIP3   OH266873   2.522   2.855   4.026  0.1433 -0.7537 -0.0529
15153TIP3    H166874   2.547   2.886   4.113 -1.4598  0.2683  0.1001
15153TIP3    H266875   2.552   2.765   4.022 -1.1424 -1.3480  2.2072
15154TIP3   OH266876   2.259   5.762  15.826 -0.4408  0.7944  0.0417
15154TIP3    H166877   2.305   5.687  15.865 -0.0361 -0.2409 -2.2412
15154TIP3    H266878   2.325   5.831  15.820  0.0861  0.2386 -0.7153
15155TIP3   OH266879   4.109   6.678   1.026 -0.3233  0.0356 -0.5628
15155TIP3    H166880   4.124   6.632   1.109 -1.2996 -0.2232 -0.5235
15155TIP3    H266881   4.040   6.627   0.983 -0.9382  1.0722 -0.8261
15156TIP3   OH266882   3.170   3.046   3.556 -0.3778 -0.4398  0.0052
15156TIP3    H166883   3.107   2.977   3.536 -0.1744 -0.6169 -0.0231
15156TIP3    H266884   3.125   3.101   3.621 -1.1611  0.3225 -1.1468
15157TIP3   OH266885   6.587   1.341   2.904 -0.1141  0.5122  0.3093
15157TIP3    H166886   6.667   1.359   2.854 -0.7940 -1.2785 -1.5672
15157TIP3    H266887   6.535   1.421   2.896  0.5520  0.8909 -0.3469
15158TIP3   OH266888   3.171   2.799   2.537 -0.1526  0.4711  0.3527
15158TIP3    H166889   3.174   2.732   2.469  0.8646 -1.2603  1.9833
15158TIP3    H266890   3.094   2.775   2.590  0.8226 -0.1112  1.5607
15159TIP3   OH266891   4.345   3.441   0.999 -0.0406  0.0659 -0.4148
15159TIP3    H166892   4.326   3.441   1.093  0.7094  2.1717 -0.2195
15159TIP3    H266893   4.390   3.523   0.984  0.8433 -0.7345 -2.4496
15160TIP3   OH266894   4.337   2.377   0.896  0.5779  0.2420  0.1968
15160TIP3    H166895   4.389   2.365   0.816  0.7348 -0.7619  0.4290
15160TIP3    H266896   4.247   2.356   0.869  0.4726  0.8576  0.0613
15161TIP3   OH266897   5.194   1.380  10.671 -0.2894 -0.0731 -0.6527
15161TIP3    H166898   5.229   1.465  10.648  1.8958  0.2098  2.9764
15161TIP3    H266899   5.270   1.322  10.672 -0.9090 -0.9477  1.2823
15162TIP3   OH266900   1.445   1.289   1.158  0.2643  0.2366 -0.1673
15162TIP3    H166901   1.536   1.283   1.128  0.4493 -0.2728  0.4774
15162TIP3    H266902   1.435   1.216   1.219 -1.0998 -0.7822 -1.5488
15163TIP3   OH266903   5.246   3.670   2.669 -0.1330 -0.5892  0.2273
15163TIP3    H166904   5.311   3.625   2.723 -0.1681 -0.7932  0.1007
15163TIP3    H266905   5.172   3.686   2.729 -0.5795 -1.6953  0.0041
15164TIP3   OH266906   4.867   2.789  13.747 -0.5526  0.3223 -0.3005
15164TIP3    H166907   4.860   2.877  13.784  2.7281  0.4532  0.3948
15164TIP3    H266908   4.888   2.803  13.654 -0.2408  0.3092 -0.2361
15165TIP3   OH266909   5.443   1.261  17.209  0.0991  0.1340  0.0294
15165TIP3    H166910   5.535   1.252  17.185 -0.0852  0.5655 -0.8628
15165TIP3    H266911   5.410   1.171  17.215  0.6228 -0.0330  0.5858
15166TIP3   OH266912   1.490   1.862  14.285  0.2807 -0.0547 -0.3572
15166TIP3    H166913   1.470   1.955  14.276 -0.0747 -0.0403  0.5053
15166TIP3    H266914   1.480   1.844  14.378  1.6791 -0.6552 -0.2980
15167TIP3   OH266915   0.599   5.024   1.415 -1.0508  0.4897 -0.1127
15167TIP3    H166916   0.562   4.944   1.376 -2.4887  1.3996 -0.6911
15167TIP3    H266917   0.528   5.088   1.410  0.9226  2.7195 -2.3387
15168TIP3   OH266918   1.573   2.289  17.310 -0.6374 -0.2055 -0.5145
15168TIP3    H166919   1.524   2.231  17.251 -0.5248 -0.3093 -0.5056
15168TIP3    H266920   1.505   2.333  17.361 -0.7987  0.7145 -1.4843
15169TIP3   OH266921   5.802   4.615   1.225 -0.5216 -0.2453  0.1241
15169TIP3    H166922   5.805   4.706   1.196 -0.0962 -0.1440  0.4733
15169TIP3    H266923   5.710   4.598   1.242 -0.6620 -0.0204 -0.3835
15170TIP3   OH266924   4.621   5.284   0.314  0.0637 -0.6049 -0.6869
15170TIP3    H166925   4.659   5.210   0.362  0.6808  0.2353  0.1416
15170TIP3    H266926   4.640   5.264   0.222  1.1465 -0.9837 -0.4017
15171TIP3   OH266927   6.631   1.833   2.022  0.1060 -0.0241  0.0910
15171TIP3    H166928   6.681   1.905   1.983 -0.0409 -0.5715 -1.1652
15171TIP3    H266929   6.553   1.875   2.058 -0.3866  0.3800 -1.3586
15172TIP3   OH266930   4.720   1.217   0.014 -0.4482  0.8189 -0.0623
15172TIP3    H166931   4.627   1.202  -0.004 -0.4157  1.1571 -0.5548
15172TIP3    H266932   4.758   1.234  -0.072  0.0275  0.8997  0.1614
15173TIP3   OH266933   1.684   4.023   2.294  0.7075  0.7602  0.2331
15173TIP3    H166934   1.757   3.982   2.246 -0.5447 -0.9652 -0.3030
15173TIP3    H266935   1.680   4.112   2.260  1.5054  0.3700 -0.9742
15174TIP3   OH266936   1.744   5.330   0.965  1.0820 -0.0585  0.3904
15174TIP3    H166937   1.762   5.372   0.881 -0.1788  0.9025  0.5630
15174TIP3    H266938   1.661   5.285   0.952  1.0636 -0.2068  1.0098
15175TIP3   OH266939   4.783   5.070   2.095  0.3672  0.1764 -0.5651
15175TIP3    H166940   4.860   5.051   2.040  0.1212  0.9511 -1.2020
15175TIP3    H266941   4.723   4.998   2.077 -0.0462  0.8343 -1.9756
15176TIP3   OH266942   3.623   3.847   1.292  0.0092 -0.2784  0.1770
15176TIP3    H166943   3.569   3.829   1.215 -0.8831 -1.6612  1.0582
15176TIP3    H266944   3.624   3.942   1.300  3.2164  0.2732 -3.6202
15177TIP3   OH266945   6.067   5.751   6.072 -0.2972  0.3770 -0.1394
15177TIP3    H166946   6.060   5.770   6.165  2.5205  0.2087  0.1734
15177TIP3    H266947   6.051   5.657   6.065 -0.3947  0.3693  0.1897
15178TIP3   OH266948   1.818   5.707  15.908  0.0491 -1.0186 -0.3572
15178TIP3    H166949   1.742   5.761  15.884  1.4052  1.0815 -0.1596
15178TIP3    H266950   1.869   5.701  15.828 -0.5796 -3.0293 -0.6815
15179TIP3   OH266951   3.192   2.670   2.912  0.6373 -0.4181 -0.1772
15179TIP3    H166952   3.126   2.737   2.892  1.8300  1.2831  1.1883
15179TIP3    H266953   3.269   2.698   2.862  1.0773 -0.9385  0.2089
15180TIP3   OH266954   0.837   0.438   4.543 -0.3690  0.4661  0.1983
15180TIP3    H166955   0.840   0.512   4.603  1.3264  1.7478 -1.3409
15180TIP3    H266956   0.778   0.467   4.473 -0.5483 -0.0939  0.1135
15181TIP3   OH266957   6.124   3.184   1.827 -0.1558 -0.2188  0.4541
15181TIP3    H166958   6.190   3.206   1.892  1.4060  0.8985 -1.3786
15181TIP3    H266959   6.154   3.227   1.747 -2.9958  0.0905 -0.5588
15182TIP3   OH266960   5.521   2.831   5.411 -0.1076 -0.2403 -0.5739
15182TIP3    H166961   5.471   2.838   5.493  0.1928 -0.0074 -0.4064
15182TIP3    H266962   5.468   2.775   5.355 -0.0994 -0.7758 -0.0530
15183TIP3   OH266963   5.564   2.445   4.530 -0.0146  1.0415 -0.4863
15183TIP3    H166964   5.491   2.382   4.527  0.5080  0.3575  0.5171
15183TIP3    H266965   5.620   2.413   4.601  0.6703  2.2170 -0.4765
15184TIP3   OH266966   2.743   3.490  15.334  0.3803 -0.3350  0.3794
15184TIP3    H166967   2.816   3.537  15.375 -0.0276  0.3460  0.3456
15184TIP3    H266968   2.719   3.545  15.259  0.9137 -1.4002 -0.6108
15185TIP3   OH266969   4.851   5.647  16.711  0.5207  0.1664  0.4318
15185TIP3    H166970   4.794   5.649  16.787  2.0902  1.0743  1.6482
15185TIP3    H266971   4.933   5.609  16.743  1.0338  0.0600 -0.9434
15186TIP3   OH266972   5.564   4.262  17.626  0.3151  0.3358 -0.6786
15186TIP3    H166973   5.653   4.270  17.659 -0.5872  1.9777  1.6448
15186TIP3    H266974   5.522   4.345  17.649 -1.4657  0.1896 -2.9598
15187TIP3   OH266975   4.426   1.834   3.436  0.3355 -0.2629 -0.0350
15187TIP3    H166976   4.415   1.920   3.477 -0.2604 -0.7829  0.9225
15187TIP3    H266977   4.339   1.811   3.404  0.2993 -0.8920  0.4966
15188TIP3   OH266978   4.785   4.020  11.968 -0.3448 -0.3097  0.0815
15188TIP3    H166979   4.707   3.971  11.942 -0.6533  1.2443 -2.1855
15188TIP3    H266980   4.790   4.093  11.906  1.7088  0.8871  1.5199
15189TIP3   OH266981   3.867   3.154  10.765 -0.3727  0.5079  0.2034
15189TIP3    H166982   3.921   3.100  10.707  0.2644  1.3476 -0.0047
15189TIP3    H266983   3.892   3.128  10.853  1.2460  1.6874  0.1324
15190TIP3   OH266984   1.218   4.242  11.542  0.4203  0.0321 -0.5098
15190TIP3    H166985   1.190   4.273  11.456  0.7333  3.3366  0.4554
15190TIP3    H266986   1.309   4.216  11.530 -0.1946 -1.8673 -1.6009
15191TIP3   OH266987   2.345   3.882  11.196 -0.1244 -0.1252 -0.3636
15191TIP3    H166988   2.412   3.911  11.258  0.0785  0.0608 -0.6692
15191TIP3    H266989   2.373   3.917  11.111 -1.4910  1.4261 -0.2409
15192TIP3   OH266990   2.097   4.563   6.894  0.5343 -0.2441  0.0374
15192TIP3    H166991   2.102   4.602   6.806  0.3540  1.1908  0.6292
15192TIP3    H266992   2.166   4.496   6.894  1.8259  1.0148 -0.6100
15193TIP3   OH266993   3.327   4.228  14.555  0.0641  1.0540 -0.5132
15193TIP3    H166994   3.404   4.192  14.512 -0.0608  1.1000 -0.7764
15193TIP3    H266995   3.360   4.305  14.603  0.7041 -0.4530  1.6267
15194TIP3   OH266996   0.009   0.882  11.814  0.1836 -0.0254  0.4216
15194TIP3    H166997  -0.081   0.851  11.827 -0.5137  1.1172 -1.3727
15194TIP3    H266998   0.026   0.940  11.889 -1.0158  0.6582  0.1855
15195TIP3   OH266999   2.319   5.160  12.358 -0.2831 -0.2395 -0.2722
15195TIP3    H167000   2.285   5.072  12.343 -1.7783  0.4471 -1.1794
15195TIP3    H267001   2.263   5.217  12.305  1.4479  1.1361 -0.7184
15196TIP3   OH267002   5.107   4.115  16.938  0.0827 -0.0527  0.0893
15196TIP3    H167003   5.058   4.143  16.861 -0.6302 -0.6432  0.3214
15196TIP3    H267004   5.056   4.044  16.975  0.9814 -0.4997  0.5018
15197TIP3   OH267005   1.618   4.620   1.231  0.0039  0.1830  0.7999
15197TIP3    H167006   1.623   4.715   1.237  1.4577  0.3006 -1.2543
15197TIP3    H267007   1.595   4.603   1.139 -1.6624 -1.4463  1.4529
15198TIP3   OH267008   4.608   0.234  11.347  0.1172  0.2559 -0.1778
15198TIP3    H167009   4.538   0.280  11.394  0.0865  0.4916 -0.4539
15198TIP3    H267010   4.627   0.290  11.272  1.2865  0.7030  0.4192
15199TIP3   OH267011   1.138   6.388  16.982  0.5537  0.1185  0.1572
15199TIP3    H167012   1.089   6.385  16.900 -0.1685 -1.0900  0.5953
15199TIP3    H267013   1.070   6.384  17.050  1.0785  2.1408  0.8510
15200TIP3   OH267014   0.962   1.462  15.297  0.2916 -0.4234 -0.5346
15200TIP3    H167015   0.985   1.384  15.349  1.6932  1.6054  2.1386
15200TIP3    H267016   1.037   1.474  15.239  0.5096 -0.5358 -0.2799
15201TIP3   OH267017   1.032   1.570  15.858 -0.0272 -0.1199  0.0579
15201TIP3    H167018   1.101   1.632  15.882 -0.3680 -0.2555  1.4826
15201TIP3    H267019   1.012   1.590  15.767  2.3528 -0.5332 -0.6231
15202TIP3   OH267020   2.398   2.821   0.485  0.4221  0.1143 -0.4701
15202TIP3    H167021   2.406   2.762   0.560  0.0138  0.6286 -0.0175
15202TIP3    H267022   2.359   2.900   0.521 -0.6601  0.0223 -1.3965
15203TIP3   OH267023   2.519   4.279  13.523  0.1073 -1.0912  0.4775
15203TIP3    H167024   2.476   4.232  13.451  1.0571  0.0108 -0.8633
15203TIP3    H267025   2.582   4.217  13.558 -0.9820 -1.9518  0.9873
15204TIP3   OH267026   1.613   3.368  13.524  0.1434  0.0252 -0.0180
15204TIP3    H167027   1.609   3.367  13.428 -0.7706 -0.7904  0.0168
15204TIP3    H267028   1.539   3.422  13.551 -0.7713 -1.3111  0.2526
15205TIP3   OH267029   2.784   6.477   0.285  0.2557 -0.5764 -0.2496
15205TIP3    H167030   2.860   6.447   0.335  1.2636 -1.5356 -2.2293
15205TIP3    H267031   2.750   6.551   0.335  0.1487 -2.4608  2.6945
15206TIP3   OH267032   5.520   4.172  15.027 -0.0046 -0.3242  0.0599
15206TIP3    H167033   5.493   4.088  14.991 -0.2176  0.1848 -1.0117
15206TIP3    H267034   5.614   4.177  15.008  0.0262 -0.3493  0.2021
15207TIP3   OH267035   3.683   0.696  12.334 -0.0211 -0.2394  0.7984
15207TIP3    H167036   3.725   0.779  12.354 -1.3308  0.1723  2.0368
15207TIP3    H267037   3.740   0.654  12.269  0.4592  1.7885 -0.1544
15208TIP3   OH267038   2.262   6.338   1.706  0.0245  0.4111 -0.0930
15208TIP3    H167039   2.273   6.352   1.800 -0.9979 -0.5405  0.1986
15208TIP3    H267040   2.289   6.247   1.693  1.9310  1.0732 -1.0687
15209TIP3   OH267041   6.661   1.659   2.280 -0.0091 -0.3203  0.0905
15209TIP3    H167042   6.707   1.706   2.350 -1.5184  1.2617  0.0815
15209TIP3    H267043   6.670   1.715   2.203 -3.7520  1.2699  0.6028
15210TIP3   OH267044   1.485   3.894  16.374  0.8641 -0.1734  0.1413
15210TIP3    H167045   1.521   3.875  16.461 -0.3512  1.5168  1.0917
15210TIP3    H267046   1.391   3.877  16.383  0.9365 -1.5671 -1.3641
15211TIP3   OH267047   3.998   1.622   5.451  1.0552  0.5778  0.9294
15211TIP3    H167048   3.963   1.678   5.382 -0.2088 -0.0146  1.0595
15211TIP3    H267049   3.984   1.672   5.532  0.3574  0.2960  0.9940
15212TIP3   OH267050   4.156   5.330  12.301  0.1596 -0.6548  1.0460
15212TIP3    H167051   4.230   5.382  12.270  1.0390 -1.8257  1.1239
15212TIP3    H267052   4.088   5.344  12.235  0.4622  0.3548  0.9239
15213TIP3   OH267053   4.172   2.994  14.241 -0.3266  0.2298  0.3213
15213TIP3    H167054   4.196   3.058  14.308 -0.4267  0.7167 -0.1073
15213TIP3    H267055   4.095   3.032  14.198  0.7214  0.7229 -1.1820
15214TIP3   OH267056   3.001   3.316   4.217  0.1091  0.1806 -0.2906
15214TIP3    H167057   3.023   3.408   4.228 -0.6205  0.3255  0.0554
15214TIP3    H267058   2.996   3.282   4.307 -1.8261  0.3623 -0.2876
15215TIP3   OH267059   0.919   3.973  16.902  0.0945 -0.1429 -0.0107
15215TIP3    H167060   0.899   3.896  16.849  1.6323 -0.0819 -0.7463
15215TIP3    H267061   1.005   4.001  16.871  0.1980  1.0177  1.2451
15216TIP3   OH267062   3.834   0.513  17.286 -0.5395  0.2136 -0.3185
15216TIP3    H167063   3.882   0.505  17.203  0.0766  0.7757 -0.0265
15216TIP3    H267064   3.891   0.471  17.350  0.4973  2.5129  0.3740
15217TIP3   OH267065   2.526   5.900   1.845  0.3643 -0.6239 -0.0591
15217TIP3    H167066   2.583   5.976   1.860  2.2139 -2.2766  2.0567
15217TIP3    H267067   2.566   5.855   1.770  1.2920 -1.1819  0.7308
15218TIP3   OH267068   5.690   2.603   6.065  0.3343 -0.1350 -0.3953
15218TIP3    H167069   5.599   2.629   6.047  0.2644  0.1522  0.3349
15218TIP3    H267070   5.731   2.682   6.100  0.2147 -0.8940  1.5551
15219TIP3   OH267071   4.457   1.722  14.214 -0.1012  0.3346 -0.1126
15219TIP3    H167072   4.514   1.737  14.289  1.1870  0.3849 -1.0714
15219TIP3    H267073   4.492   1.777  14.144 -0.6731 -0.4275 -1.0420
15220TIP3   OH267074   1.298   0.915  12.613  0.0365  0.4062 -0.3757
15220TIP3    H167075   1.294   0.909  12.709  0.8691  2.5972 -0.1589
15220TIP3    H267076   1.216   0.874  12.584 -0.3990  0.0163  1.2753
15221TIP3   OH267077   1.597   5.633   0.428  0.0673 -0.2608 -0.1630
15221TIP3    H167078   1.638   5.641   0.514  0.1231  0.2571 -0.2325
15221TIP3    H267079   1.654   5.573   0.379  0.3575 -0.0977 -0.0276
15222TIP3   OH267080   6.072   5.560  12.831 -0.3802 -0.2906 -0.2087
15222TIP3    H167081   6.157   5.530  12.862 -0.5200 -0.1219  0.3595
15222TIP3    H267082   6.083   5.573  12.737  0.4210  0.4064 -0.0221
15223TIP3   OH267083   1.733   0.662  10.534 -0.0779  0.0408  0.0526
15223TIP3    H167084   1.701   0.709  10.457 -0.9164  1.5943  1.2980
15223TIP3    H267085   1.659   0.608  10.562  0.2959 -0.6876 -0.3194
15224TIP3   OH267086   0.876   4.323   0.334 -0.2937  0.0997 -0.2710
15224TIP3    H167087   0.892   4.254   0.269  1.1327 -2.2896  2.3463
15224TIP3    H267088   0.809   4.379   0.295  0.0536 -1.4973 -3.4750
15225TIP3   OH267089   3.790   0.283   0.649 -0.2696 -0.3481 -0.1366
15225TIP3    H167090   3.797   0.377   0.665 -2.0941 -0.5342  2.1593
15225TIP3    H267091   3.777   0.276   0.554 -0.0773  1.6840 -0.3496
15226TIP3   OH267092   2.780   4.811  16.038  0.2056  0.7350 -0.3294
15226TIP3    H167093   2.733   4.863  15.973  1.0065  0.0933 -1.4410
15226TIP3    H267094   2.813   4.875  16.101  0.6790  1.5238 -1.3615
15227TIP3   OH267095   3.779   5.284   2.759  0.3489 -0.3830 -0.2927
15227TIP3    H167096   3.695   5.269   2.717  0.4222 -2.9871  0.3028
15227TIP3    H267097   3.834   5.320   2.691 -0.5800 -0.9859 -1.3985
15228TIP3   OH267098   3.041   0.577   2.872 -0.1024  0.2519  0.1031
15228TIP3    H167099   3.052   0.539   2.959  1.5386 -1.7208 -0.8609
15228TIP3    H267100   3.103   0.650   2.870  1.5449 -1.0643 -0.0574
15229TIP3   OH267101   0.206   5.787   2.695 -0.5773 -0.4549 -0.3290
15229TIP3    H167102   0.147   5.711   2.700 -0.6637 -0.4796 -1.4625
15229TIP3    H267103   0.263   5.767   2.620  1.1242 -0.6013  0.9421
15230TIP3   OH267104   3.308   4.081  11.776  0.1523  0.1067 -0.8445
15230TIP3    H167105   3.375   4.021  11.744 -0.1596 -0.4620 -0.4794
15230TIP3    H267106   3.229   4.055  11.729  0.2929  1.0974 -1.6334
15231TIP3   OH267107   6.411   2.988  14.481 -0.4303  0.4272  0.2453
15231TIP3    H167108   6.459   3.061  14.441 -0.1417  0.9960  1.5892
15231TIP3    H267109   6.354   2.956  14.411  0.7656  0.7409 -0.9274
15232TIP3   OH267110   0.393   4.600   4.737  0.4071  0.6350  0.2296
15232TIP3    H167111   0.342   4.626   4.660 -1.2617 -1.7194  0.4221
15232TIP3    H267112   0.426   4.513   4.716 -1.7057 -0.9642  2.7583
15233TIP3   OH267113   6.466   0.968   1.059 -0.1370  0.2064  0.0913
15233TIP3    H167114   6.518   1.007   1.129 -0.8914 -0.1223  0.8678
15233TIP3    H267115   6.412   1.040   1.026  1.0733  0.6372 -0.9865
15234TIP3   OH267116   3.939   6.599  12.476 -0.1279  0.7001  0.0754
15234TIP3    H167117   3.851   6.588  12.512  0.1447 -0.1921  0.5062
15234TIP3    H267118   3.989   6.527  12.514  1.0152  1.7050  0.5411
15235TIP3   OH267119   2.107   3.870  14.954 -0.5958 -0.4043 -0.2051
15235TIP3    H167120   2.074   3.786  14.924  0.7148 -1.3053  0.7452
15235TIP3    H267121   2.076   3.876  15.045  0.5349 -0.5652  0.2029
15236TIP3   OH267122   4.986   4.510  14.126 -0.1032  0.1356 -0.4979
15236TIP3    H167123   4.925   4.584  14.126  1.1819  1.2391 -1.3930
15236TIP3    H267124   4.980   4.473  14.038  1.5900  1.2128 -1.1068
15237TIP3   OH267125   1.679   6.207  12.313 -0.3369  0.4381  0.1312
15237TIP3    H167126   1.700   6.278  12.374 -0.5544  1.0848 -0.5331
15237TIP3    H267127   1.691   6.127  12.364  1.0173  0.9011  0.5730
15238TIP3   OH267128   2.183   2.683  11.505 -0.2496 -0.3606 -0.7495
15238TIP3    H167129   2.257   2.633  11.539  1.7993  3.3738  0.7570
15238TIP3    H267130   2.205   2.700  11.413 -0.8739 -1.8938 -1.2205
15239TIP3   OH267131   3.762   3.349  16.978 -0.0388 -0.1553  0.2541
15239TIP3    H167132   3.857   3.354  16.989 -0.0154 -0.2662  0.1008
15239TIP3    H267133   3.742   3.256  16.975 -0.2328 -0.1430  0.9581
15240TIP3   OH267134   6.076   3.099  13.331 -0.7424  0.7488 -0.2558
15240TIP3    H167135   6.036   3.106  13.245 -4.0731 -0.0789  1.0846
15240TIP3    H267136   6.077   3.189  13.365  1.8401  1.2965 -1.5613
15241TIP3   OH267137   4.712   3.428   4.980 -0.1082 -0.1407  0.2927
15241TIP3    H167138   4.802   3.462   4.972 -0.4480  0.5819 -0.6951
15241TIP3    H267139   4.715   3.343   4.936  0.2765 -0.5113  1.0079
15242TIP3   OH267140   1.062   0.097  12.784 -0.7960  0.3782  0.0384
15242TIP3    H167141   1.040   0.141  12.866  1.3138  2.2386 -0.3164
15242TIP3    H267142   1.034   0.157  12.716  0.2154  0.2436 -0.5170
15243TIP3   OH267143   1.104   5.845   4.129 -0.5176  0.6658  0.4159
15243TIP3    H167144   1.036   5.911   4.128 -1.0668  0.1061  0.2002
15243TIP3    H267145   1.155   5.862   4.049  0.7650  2.2430  1.4871
15244TIP3   OH267146   3.778   3.864  13.648 -0.1008  0.5906  0.3663
15244TIP3    H167147   3.826   3.841  13.568  2.0946  2.1328  1.1347
15244TIP3    H267148   3.765   3.959  13.642 -1.0207  0.5386  1.2636
15245TIP3   OH267149   4.272   4.255   0.659 -0.5886 -0.3199  0.4186
15245TIP3    H167150   4.301   4.164   0.652 -2.3638 -1.0115  1.4727
15245TIP3    H267151   4.234   4.275   0.574  0.6029 -0.2377 -0.1173
15246TIP3   OH267152   4.262   0.180   2.325 -0.0060  0.1549 -0.2240
15246TIP3    H167153   4.232   0.094   2.294  0.4285  0.4019 -1.3753
15246TIP3    H267154   4.246   0.238   2.251 -1.2711  1.3019  0.9024
15247TIP3   OH267155   4.794   0.850  15.389 -0.1961  0.4072  0.6134
15247TIP3    H167156   4.866   0.826  15.448  0.1961 -0.2774 -0.1170
15247TIP3    H267157   4.799   0.786  15.318  0.1822  1.9971 -0.8681
15248TIP3   OH267158   5.102   2.939  14.995 -0.7902 -0.4611  0.2384
15248TIP3    H167159   5.132   2.991  15.070  1.1902 -1.6395  0.3172
15248TIP3    H267160   5.019   2.980  14.970 -0.4834  1.2409  1.7697
15249TIP3   OH267161   5.188   1.794  15.615 -0.0155 -0.4412  0.0854
15249TIP3    H167162   5.152   1.752  15.538  0.3854 -0.0578 -0.3178
15249TIP3    H267163   5.206   1.884  15.588 -2.1993  0.4609  1.3270
15250TIP3   OH267164   3.258   5.468   5.618  0.1449 -0.4741  0.0031
15250TIP3    H167165   3.351   5.446   5.631  0.2807 -0.0080 -0.1599
15250TIP3    H267166   3.240   5.535   5.683 -0.7321 -2.2215  1.6728
15251TIP3   OH267167   4.287   5.763   0.097  0.1522 -0.1059  0.0553
15251TIP3    H167168   4.320   5.845   0.133  1.9843 -1.2328  1.1600
15251TIP3    H267169   4.197   5.757   0.129  0.2953  1.0344  0.7274
15252TIP3   OH267170   3.502   0.280  15.365  0.3234  0.5806 -0.1225
15252TIP3    H167171   3.483   0.321  15.281  1.5449  0.7717 -0.3329
15252TIP3    H267172   3.507   0.353  15.426 -0.9572  0.4093  0.2212
15253TIP3   OH267173   4.202   0.369   3.774 -0.4969 -0.2678 -0.3064
15253TIP3    H167174   4.189   0.364   3.869 -0.0477 -0.6555 -0.2601
15253TIP3    H267175   4.119   0.402   3.740 -0.6570 -0.1198  0.2234
15254TIP3   OH267176   5.677   3.511  14.083 -0.6568  0.1245 -0.1656
15254TIP3    H167177   5.585   3.485  14.080 -1.9753  4.0794 -0.1972
15254TIP3    H267178   5.674   3.604  14.104  3.3726  0.4869 -0.5388
15255TIP3   OH267179   5.337   0.392  14.249  0.9630  0.5143 -0.6988
15255TIP3    H167180   5.323   0.298  14.254 -0.0209  0.6350 -0.9314
15255TIP3    H267181   5.418   0.402  14.199  1.5745 -0.2251  0.1160
15256TIP3   OH267182   0.262   5.998  16.985 -0.2946  0.4167  0.7007
15256TIP3    H167183   0.221   6.083  16.971  1.5103  1.1546 -0.2782
15256TIP3    H267184   0.331   5.992  16.919 -1.4785 -2.5738 -0.4590
15257TIP3   OH267185   3.630   4.218  14.762 -0.3603 -0.0681 -0.2801
15257TIP3    H167186   3.685   4.293  14.786 -0.1592 -0.6151  1.0919
15257TIP3    H267187   3.679   4.142  14.794 -0.1996 -0.8680 -2.3042
15258TIP3   OH267188   2.139   2.425  12.619  0.0475  0.7721  0.2615
15258TIP3    H167189   2.058   2.433  12.669 -0.8609  0.3770 -1.0883
15258TIP3    H267190   2.208   2.439  12.683 -0.9878 -1.5505  2.0416
15259TIP3   OH267191   1.166   1.947  16.442  0.4881 -0.0789  0.7396
15259TIP3    H167192   1.227   1.924  16.373  1.5601 -2.9884  2.4740
15259TIP3    H267193   1.172   2.042  16.449  1.9956  0.0708 -1.5928
15260TIP3   OH267194   5.536   4.823   0.689 -0.2181  0.2675 -0.5550
15260TIP3    H167195   5.552   4.735   0.655 -2.1189 -0.3966  0.1440
15260TIP3    H267196   5.570   4.821   0.778  0.3656  0.4688 -0.7705
15261TIP3   OH267197   5.967   5.569  11.886  0.0853  0.2442 -0.0572
15261TIP3    H167198   6.060   5.553  11.869  0.0496  1.0193 -1.0978
15261TIP3    H267199   5.921   5.508  11.827 -0.1141 -1.7242  2.0245
15262TIP3   OH267200   5.207   1.561  13.175 -0.2261  0.4588 -0.2182
15262TIP3    H167201   5.224   1.594  13.087 -0.0859  0.8898 -0.0331
15262TIP3    H267202   5.127   1.606  13.203  0.8267  1.8749  0.6414
15263TIP3   OH267203   1.049   4.584   4.087  0.3146 -0.0401  0.6540
15263TIP3    H167204   0.996   4.663   4.072  0.2287 -0.0841  0.7265
15263TIP3    H267205   1.056   4.578   4.182 -2.2985 -1.8353  0.8562
15264TIP3   OH267206   4.327   3.174  15.086 -0.2256  0.7891  0.5886
15264TIP3    H167207   4.354   3.119  15.160  0.0543 -1.4868 -1.1098
15264TIP3    H267208   4.234   3.153  15.074 -0.7220  2.4161  1.2711
15265TIP3   OH267209   3.744   6.058  12.126 -0.1920  0.8652 -0.1994
15265TIP3    H167210   3.816   6.002  12.097 -1.2818 -0.3613 -0.6079
15265TIP3    H267211   3.772   6.147  12.101  0.2595  0.1989 -2.3148
15266TIP3   OH267212   0.673   5.030  13.307  0.0907  0.6908  0.7718
15266TIP3    H167213   0.637   4.965  13.247  0.2892 -0.0952  1.4647
15266TIP3    H267214   0.664   4.989  13.394  1.0334  1.2101  1.1337
15267TIP3   OH267215   2.400   0.892  16.597 -0.4291 -0.1416  0.7766
15267TIP3    H167216   2.361   0.815  16.557  3.0733 -0.1598 -3.3811
15267TIP3    H267217   2.483   0.862  16.633 -0.1466  1.2846  1.4242
15268TIP3   OH267218   5.794   6.438  14.230 -0.4788  0.2722 -0.8854
15268TIP3    H167219   5.820   6.347  14.244  0.6688  0.5823 -0.8879
15268TIP3    H267220   5.870   6.478  14.188  0.0617  1.8461  1.4083
15269TIP3   OH267221   2.615   4.955  11.728 -0.3062 -0.0537  0.1649
15269TIP3    H167222   2.704   4.991  11.732  0.3034 -1.5016  0.2661
15269TIP3    H267223   2.566   5.020  11.678  0.6807  1.0220  0.5393
15270TIP3   OH267224   1.021   0.372   5.552 -0.2729 -0.5561  0.0154
15270TIP3    H167225   1.069   0.394   5.632  0.2469 -0.8944 -0.1917
15270TIP3    H267226   0.929   0.390   5.573 -0.1492 -0.6802  0.6992
15271TIP3   OH267227   1.523   6.437   5.347  0.4048 -0.6206 -0.0829
15271TIP3    H167228   1.500   6.524   5.379 -1.8035 -1.2782  0.2813
15271TIP3    H267229   1.605   6.415   5.392  0.8956  1.1467 -0.0376
15272TIP3   OH267230   4.672   0.255  13.502 -0.4210 -0.0850 -0.4697
15272TIP3    H167231   4.639   0.338  13.466 -0.0257  0.1268 -0.3433
15272TIP3    H267232   4.597   0.196  13.497 -0.2527 -0.1945 -2.0633
15273TIP3   OH267233   4.724   6.008   4.030  0.4175  0.6865 -0.3583
15273TIP3    H167234   4.723   6.102   4.010 -0.8274  0.4996 -1.2840
15273TIP3    H267235   4.631   5.984   4.036  0.7129 -0.6327 -0.8441
15274TIP3   OH267236   2.153   6.419   5.070  0.1375 -0.0834 -0.4926
15274TIP3    H167237   2.174   6.509   5.097 -0.4544 -0.5721  1.7803
15274TIP3    H267238   2.057   6.416   5.069  0.1450 -0.7970 -0.0600
15275TIP3   OH267239   1.329   0.420  13.954  0.0358 -0.1076 -0.1925
15275TIP3    H167240   1.378   0.387  14.028 -0.8292 -0.2675  0.3265
15275TIP3    H267241   1.375   0.499  13.927  1.1492 -0.7945 -0.3738
15276TIP3   OH267242   0.046   3.901  15.750  0.3092 -0.1848  0.1673
15276TIP3    H167243   0.019   3.825  15.698  1.2024  0.4328 -1.2464
15276TIP3    H267244  -0.036   3.945  15.773 -0.0749  0.2534 -1.8806
15277TIP3   OH267245   0.544   5.405  12.123 -0.4067 -0.0926  0.1182
15277TIP3    H167246   0.600   5.425  12.048 -0.1239 -2.7616 -0.5038
15277TIP3    H267247   0.603   5.407  12.198 -0.1775  0.2697 -0.0680
15278TIP3   OH267248   3.899   4.224   5.596  0.0629 -0.1209  0.1876
15278TIP3    H167249   3.810   4.259   5.590  0.2084  0.1110 -0.7744
15278TIP3    H267250   3.887   4.133   5.621 -0.6528 -0.9483 -2.7311
15279TIP3   OH267251   6.487   0.884   4.939  0.4838  0.3904  0.5433
15279TIP3    H167252   6.486   0.925   4.853  1.0112 -0.1023  0.2935
15279TIP3    H267253   6.579   0.890   4.967  0.1170  1.5638  1.5741
15280TIP3   OH267254   6.446   5.071   6.239  0.0009 -0.2008  0.5570
15280TIP3    H167255   6.523   5.065   6.295  0.5225  0.5157 -0.0586
15280TIP3    H267256   6.397   5.146   6.272  1.3318  1.5026 -1.1159
15281TIP3   OH267257   2.418   0.096  16.315  0.5426 -0.5150 -0.2089
15281TIP3    H167258   2.401   0.014  16.270 -0.6267  0.3010 -1.3111
15281TIP3    H267259   2.335   0.118  16.358  0.1239  1.1631 -1.7459
15282TIP3   OH267260   2.831   1.104   5.068 -0.1082 -0.2823 -1.2026
15282TIP3    H167261   2.782   1.181   5.039 -1.9876 -0.9185  0.1372
15282TIP3    H267262   2.813   1.038   5.002  0.2647 -0.0515 -1.5437
15283TIP3   OH267263   5.323   1.989   5.369 -0.7761  0.6648  0.5333
15283TIP3    H167264   5.265   1.973   5.295  0.2898 -1.4896  0.0930
15283TIP3    H267265   5.392   1.924   5.360  0.0583  1.1638  2.7478
15284TIP3   OH267266   3.992   4.955   2.005  0.4612 -0.3231 -0.9052
15284TIP3    H167267   3.951   4.984   2.087  0.9594 -0.1773 -0.7019
15284TIP3    H267268   4.082   4.934   2.030  0.5703 -0.4278 -1.3885
15285TIP3   OH267269   0.836   3.005   2.038 -0.3780 -1.1888 -0.4358
15285TIP3    H167270   0.800   3.094   2.032 -1.8838 -1.7166  0.2019
15285TIP3    H267271   0.781   2.954   1.980 -0.3797 -1.9478  0.2205
15286TIP3   OH267272   2.887   0.072  13.661 -0.3181 -0.7639  0.3369
15286TIP3    H167273   2.935   0.086  13.579  0.2223 -0.2992  0.7250
15286TIP3    H267274   2.906  -0.019  13.685  0.8538 -0.4187  0.7809
15287TIP3   OH267275   2.854   1.844  12.669 -0.0996 -0.1808  0.0214
15287TIP3    H167276   2.828   1.798  12.590 -0.8528 -0.7146  0.5606
15287TIP3    H267277   2.825   1.935  12.655 -0.6139 -0.3655 -0.1489
15288TIP3   OH267278   1.655   0.461   5.993 -0.2395  0.2319 -0.1127
15288TIP3    H167279   1.719   0.502   6.051 -0.4585 -0.5949  0.7613
15288TIP3    H267280   1.643   0.373   6.030  0.4175 -0.7259 -2.0638
15289TIP3   OH267281   4.965   3.652  14.045 -0.5252 -0.3024  0.1956
15289TIP3    H167282   4.883   3.669  14.092 -0.4226 -1.9660  1.0855
15289TIP3    H267283   5.017   3.731  14.057 -0.9087 -0.2914  2.0828
15290TIP3   OH267284   0.308   0.396   0.844 -0.1850 -0.9028  0.5532
15290TIP3    H167285   0.328   0.360   0.931 -1.3792 -0.2340  1.1351
15290TIP3    H267286   0.219   0.367   0.826 -0.1415 -0.5816 -0.2175
15291TIP3   OH267287   6.014   1.551  15.138  0.3207  0.3212  0.1251
15291TIP3    H167288   6.019   1.603  15.057 -1.1149 -0.2580 -0.3612
15291TIP3    H267289   5.936   1.584  15.182  1.5823  1.2757  1.7875
15292TIP3   OH267290   3.005   4.145  15.084  0.4209 -0.1541  0.2560
15292TIP3    H167291   3.074   4.211  15.091 -1.6019  2.0340  1.1585
15292TIP3    H267292   2.962   4.165  15.001 -0.5521  0.0645  0.7973
15293TIP3   OH267293   4.667   3.363  12.350 -0.3677 -0.2453  0.0306
15293TIP3    H167294   4.658   3.268  12.354 -0.1955 -0.2976 -0.7200
15293TIP3    H267295   4.582   3.394  12.319  0.0703 -0.2893 -1.2845
15294TIP3   OH267296   6.402   5.849   5.945  0.3618  0.6119 -0.5647
15294TIP3    H167297   6.407   5.831   6.039  1.2597  3.1595 -0.0393
15294TIP3    H267298   6.309   5.851   5.925  0.1727 -1.0871 -0.0269
15295TIP3   OH267299   1.498   0.971  17.107  0.5053  0.3599  0.4018
15295TIP3    H167300   1.566   0.915  17.145  1.8472  1.1081 -0.8173
15295TIP3    H267301   1.522   1.060  17.132 -1.0288  0.5246  1.4296
15296TIP3   OH267302   2.308   0.962   0.080 -0.1070  0.4596 -0.0854
15296TIP3    H167303   2.215   0.960   0.060 -0.1847  0.0657  0.3136
15296TIP3    H267304   2.327   1.054   0.098 -0.5372  0.4560  0.3839
15297TIP3   OH267305   0.941   4.820   4.894 -0.3913 -0.2701 -0.3161
15297TIP3    H167306   0.950   4.837   4.987 -0.4349  0.8737 -0.5166
15297TIP3    H267307   1.028   4.791   4.866 -0.6828 -1.8919  0.3049
15298TIP3   OH267308   5.150   2.845   1.900 -0.2512  0.0061  0.3846
15298TIP3    H167309   5.104   2.918   1.941  0.5540  1.1525 -0.6541
15298TIP3    H267310   5.134   2.857   1.806 -0.1308 -1.1874  0.2007
15299TIP3   OH267311   4.011   1.564  14.209  0.5363  0.1514  0.1229
15299TIP3    H167312   3.996   1.592  14.299  3.5678  0.1669  0.7405
15299TIP3    H267313   3.963   1.482  14.201 -0.0439  0.3082  1.6401
15300TIP3   OH267314   4.394   4.398  13.310  0.2937  0.6517 -0.8036
15300TIP3    H167315   4.402   4.430  13.399  1.5974  0.1570 -0.7179
15300TIP3    H267316   4.395   4.477  13.255  0.7174  0.8953 -0.4474
15301TIP3   OH267317   5.225   4.618  16.098 -0.1626 -0.2415 -0.1480
15301TIP3    H167318   5.221   4.637  16.192  2.3883 -3.4802  0.8003
15301TIP3    H267319   5.319   4.618  16.078 -0.6585  1.5376 -3.1031
15302TIP3   OH267320   2.824   2.467   3.986  0.2512 -0.0924  0.0313
15302TIP3    H167321   2.832   2.387   4.038  3.3657 -0.8708 -1.3798
15302TIP3    H267322   2.806   2.436   3.897  0.4002  0.8355 -0.3301
15303TIP3   OH267323   2.249   2.730  15.351  0.0181  0.3535  0.1086
15303TIP3    H167324   2.205   2.685  15.278 -0.2042  1.0117 -0.1710
15303TIP3    H267325   2.337   2.748  15.319  0.0257  0.3441  0.1241
15304TIP3   OH267326   4.274   5.118  12.397 -0.5008 -0.2383  0.1483
15304TIP3    H167327   4.235   5.120  12.485  1.6607  0.8995  1.1432
15304TIP3    H267328   4.245   5.199  12.355 -0.8438 -0.3735  0.1219
15305TIP3   OH267329   3.848   3.291   1.046  0.1109 -0.1989 -0.1910
15305TIP3    H167330   3.878   3.355   0.981  1.1216  0.4898  0.9103
15305TIP3    H267331   3.929   3.257   1.084 -0.4527  0.2526  1.5025
15306TIP3   OH267332   2.647   4.889  10.790 -0.0304  0.0846 -0.0902
15306TIP3    H167333   2.571   4.900  10.732 -0.8919  2.6249  1.3629
15306TIP3    H267334   2.636   4.956  10.857  2.5703 -0.6884  1.2501
15307TIP3   OH267335   5.266   4.167   4.312 -0.6502  0.1928  0.3017
15307TIP3    H167336   5.216   4.108   4.369 -1.7136  0.0774 -0.7194
15307TIP3    H267337   5.311   4.108   4.251  3.1360  0.0557  2.9031
15308TIP3   OH267338   0.138   6.053  16.441  0.2663  0.3527  0.0706
15308TIP3    H167339   0.146   6.010  16.527  0.1343 -0.5935 -0.3743
15308TIP3    H267340   0.056   6.102  16.446  0.2125  0.2278  0.4523
15309TIP3   OH267341   1.812   5.123  12.629  0.5152 -0.0359  0.4259
15309TIP3    H167342   1.830   5.173  12.549  0.7098  1.1309  1.1794
15309TIP3    H267343   1.719   5.101  12.621  0.8177 -1.0338 -0.7036
15310TIP3   OH267344   2.116   3.266   3.396 -0.2010 -0.0859  0.5249
15310TIP3    H167345   2.129   3.360   3.382  0.1427  0.1670  2.3050
15310TIP3    H267346   2.025   3.251   3.372 -0.2151  0.6654  0.0464
15311TIP3   OH267347   0.625   2.938   5.133 -0.1452 -0.1410 -0.3149
15311TIP3    H167348   0.570   2.979   5.199  1.8682  1.3592  0.5084
15311TIP3    H267349   0.591   2.970   5.050 -1.1942 -0.1319  0.1085
15312TIP3   OH267350   6.417   5.577  16.725 -0.3522 -0.0725  0.2001
15312TIP3    H167351   6.439   5.651  16.668  0.0066 -1.0002 -0.8951
15312TIP3    H267352   6.400   5.617  16.810  1.7043  1.1217  0.1354
15313TIP3   OH267353   0.793   4.900  17.050 -0.0176 -0.6746  0.2289
15313TIP3    H167354   0.810   4.862  16.964  0.1191 -0.1668  0.0308
15313TIP3    H267355   0.729   4.969  17.034 -1.0407 -1.4809  0.7358
15314TIP3   OH267356   6.306   1.852   0.388 -0.6641 -0.0267 -0.2252
15314TIP3    H167357   6.381   1.810   0.346 -0.1464  1.6154 -1.0343
15314TIP3    H267358   6.253   1.885   0.315 -2.1591 -1.0847  0.3290
15315TIP3   OH267359   6.699   1.633   4.517 -0.2354 -0.2954  0.0865
15315TIP3    H167360   6.687   1.590   4.432 -2.4530 -0.1369  0.2492
15315TIP3    H267361   6.753   1.572   4.567  0.9552 -0.4805 -1.3582
15316TIP3   OH267362   5.261   4.534  11.534  0.0104  0.2922  0.5833
15316TIP3    H167363   5.196   4.510  11.601 -0.1262 -1.0452  0.0035
15316TIP3    H267364   5.233   4.620  11.503 -2.2951 -0.7748 -0.5672
15317TIP3   OH267365   2.942   2.166  15.038  0.3861  0.1471  0.1695
15317TIP3    H167366   2.878   2.109  15.080  0.2009 -2.0026 -2.7016
15317TIP3    H267367   2.891   2.233  14.994  0.2653 -0.0055  0.0750
15318TIP3   OH267368   6.355   0.924  16.634 -0.2832 -0.2488 -0.7278
15318TIP3    H167369   6.338   0.922  16.728  0.3874 -3.1372 -0.5809
15318TIP3    H267370   6.280   0.879  16.595 -0.7671  1.2962 -1.6574
15319TIP3   OH267371   1.629   1.814   2.189  0.1522 -0.3424 -0.6785
15319TIP3    H167372   1.554   1.847   2.239  0.7342 -0.4750  0.3051
15319TIP3    H267373   1.662   1.890   2.142  1.5973  0.5948  1.7046
15320TIP3   OH267374   2.190   4.014   5.396  0.2125 -0.0978  0.5161
15320TIP3    H167375   2.219   4.022   5.487  2.0849 -1.6550  0.1400
15320TIP3    H267376   2.113   3.957   5.400 -0.5650  0.9806  1.2293
15321TIP3   OH267377   4.573   1.227   2.745  0.1517 -0.0459  0.5498
15321TIP3    H167378   4.589   1.264   2.658 -0.2543  0.5112  0.7064
15321TIP3    H267379   4.484   1.192   2.740  0.1146  0.0188  0.7505
15322TIP3   OH267380   2.656   2.903   3.749 -0.1087  0.4790  0.2479
15322TIP3    H167381   2.619   2.989   3.768 -0.6189  0.6865 -1.5611
15322TIP3    H267382   2.582   2.842   3.759 -0.4898  0.6428 -1.3721
15323TIP3   OH267383   2.813   2.583  12.034  0.2564  0.1487  0.4824
15323TIP3    H167384   2.853   2.514  12.088  0.7585 -1.4412 -1.8042
15323TIP3    H267385   2.730   2.545  12.006  0.0220  0.9347  0.1113
15324TIP3   OH267386   2.386   5.114   3.700 -0.1402 -0.1949 -0.1802
15324TIP3    H167387   2.308   5.111   3.755  0.4591  0.0703  0.7083
15324TIP3    H267388   2.352   5.111   3.610 -1.1980  0.4895  0.1741
15325TIP3   OH267389   6.619   2.323  17.347 -0.0366 -0.2055 -0.3823
15325TIP3    H167390   6.563   2.246  17.331 -2.7421  1.2157  1.4674
15325TIP3    H267391   6.598   2.349  17.436  3.6667  0.5237  0.4386
15326TIP3   OH267392   5.130   0.174  14.851 -0.7514  0.3120  0.5610
15326TIP3    H167393   5.079   0.255  14.858  2.1655  2.2717  0.8105
15326TIP3    H267394   5.117   0.146  14.760 -0.6440  1.9309  0.0183
15327TIP3   OH267395   1.705   3.868  14.395 -0.4931 -0.1394 -0.4193
15327TIP3    H167396   1.786   3.915  14.375 -1.1117  0.5824 -1.2752
15327TIP3    H267397   1.688   3.814  14.319 -0.2415 -1.1464  0.2167
15328TIP3   OH267398   6.052   1.977  12.314  0.4857 -0.2766  0.2659
15328TIP3    H167399   5.978   2.037  12.318  1.6320  1.1463  1.0330
15328TIP3    H267400   6.018   1.895  12.349 -1.7145 -0.8135 -2.7058
15329TIP3   OH267401   3.832   2.744   0.968 -0.2426  0.5169 -0.5962
15329TIP3    H167402   3.757   2.782   1.015 -0.2629 -0.2140 -0.0099
15329TIP3    H267403   3.793   2.682   0.907 -0.0869 -0.5550  0.3636
15330TIP3   OH267404   4.042   6.600   4.274  0.1410 -0.6682 -0.2012
15330TIP3    H167405   4.119   6.552   4.305  0.8052  0.4254 -0.1051
15330TIP3    H267406   4.014   6.551   4.197  0.0124 -1.9474  0.6182
15331TIP3   OH267407   3.716   1.575  11.178 -0.8428  0.2653  0.5186
15331TIP3    H167408   3.666   1.600  11.101  0.2292 -1.0658 -0.6732
15331TIP3    H267409   3.790   1.637  11.179 -0.2355 -0.4238 -0.2244
15332TIP3   OH267410   2.236   6.517  15.232 -0.6172 -0.0323 -0.0228
15332TIP3    H167411   2.279   6.573  15.297 -1.0887  1.6173 -1.0758
15332TIP3    H267412   2.224   6.573  15.156 -2.3304 -1.1776 -0.6595
15333TIP3   OH267413   6.228   0.002  17.211 -0.3292 -0.6530 -0.1442
15333TIP3    H167414   6.234  -0.092  17.195 -0.9603 -0.3938 -2.2105
15333TIP3    H267415   6.244   0.042  17.126  0.0641  1.1345  0.7180
15334TIP3   OH267416   3.632   5.394   5.376 -0.7421 -0.2327 -0.0087
15334TIP3    H167417   3.618   5.325   5.311 -1.6853 -1.4875  1.4434
15334TIP3    H267418   3.713   5.437   5.348 -0.0571 -1.9918 -0.9414
15335TIP3   OH267419   0.677   5.527  13.921  0.5299 -0.6758 -0.1686
15335TIP3    H167420   0.610   5.594  13.907  0.4404 -0.5079  0.9221
15335TIP3    H267421   0.635   5.445  13.897  0.2482 -0.4628 -0.4028
15336TIP3   OH267422   4.075   2.634   3.744 -0.2472  0.1790  0.0187
15336TIP3    H167423   4.121   2.717   3.752  0.2934  0.0238 -1.1791
15336TIP3    H267424   4.134   2.570   3.785 -0.4130  0.3020  0.4520
15337TIP3   OH267425   5.094   0.250   3.114 -0.0712  0.3062  0.0829
15337TIP3    H167426   4.999   0.262   3.107 -0.2223 -0.6224  0.4711
15337TIP3    H267427   5.109   0.162   3.081  0.7048  0.5713 -0.2842
15338TIP3   OH267428   1.429   1.819   6.230 -0.4295 -0.6180  0.2204
15338TIP3    H167429   1.472   1.734   6.225 -0.2084 -0.5969  1.5587
15338TIP3    H267430   1.348   1.802   6.276 -0.2198 -0.0482  0.8084
15339TIP3   OH267431   3.189   1.637   2.897  0.3715  0.2864  0.1725
15339TIP3    H167432   3.255   1.584   2.851  0.5718  0.0476  0.7224
15339TIP3    H267433   3.216   1.728   2.881 -0.8979  0.3231 -2.1545
15340TIP3   OH267434   2.067   0.475   2.046 -0.0170 -0.0748 -0.3452
15340TIP3    H167435   2.084   0.413   1.975  1.0400 -1.3201  0.9438
15340TIP3    H267436   2.101   0.558   2.015 -0.3650 -0.3961 -1.6314
15341TIP3   OH267437   5.140   4.981   1.199 -0.0930 -0.2422 -0.5373
15341TIP3    H167438   5.171   4.984   1.108 -1.4005  0.0251 -1.0021
15341TIP3    H267439   5.045   4.983   1.191 -0.2148  0.7742  0.8862
15342TIP3   OH267440   2.654   0.716  12.128 -0.2888  0.0248 -0.1570
15342TIP3    H167441   2.714   0.756  12.065 -1.1548 -0.6806 -1.4860
15342TIP3    H267442   2.648   0.624  12.101 -0.6814 -0.2976  0.9724
15343TIP3   OH267443   6.256   4.407   0.993 -0.6972  0.1951 -0.0249
15343TIP3    H167444   6.169   4.443   1.008 -0.8218 -0.1082 -0.0128
15343TIP3    H267445   6.303   4.421   1.076 -0.5769  0.7963 -0.1902
15344TIP3   OH267446   2.887   4.819  12.476  0.6930  0.2863 -0.3407
15344TIP3    H167447   2.798   4.854  12.483  0.7319  0.2286  0.7004
15344TIP3    H267448   2.915   4.810  12.567  2.3580  1.7804 -0.6594
15345TIP3   OH267449   2.046   3.956  15.925 -0.5845  0.9856  0.7396
15345TIP3    H167450   2.114   4.019  15.950 -0.0483  0.8349 -0.3071
15345TIP3    H267451   1.991   3.949  16.003  2.0920 -0.9028  2.6188
15346TIP3   OH267452   0.930   1.690  12.041 -0.8742  0.1754 -0.6846
15346TIP3    H167453   0.989   1.677  12.115 -0.6335  1.1424 -0.6870
15346TIP3    H267454   0.926   1.605  11.998 -0.6967 -0.2984  0.2034
15347TIP3   OH267455   3.693   3.378  11.549 -0.3179 -0.2843 -0.8435
15347TIP3    H167456   3.621   3.418  11.598 -0.3126 -0.2268 -0.8828
15347TIP3    H267457   3.650   3.316  11.490 -0.5996  1.6188 -2.7426
15348TIP3   OH267458   0.213   6.027  15.559  0.1528 -0.1641 -0.2007
15348TIP3    H167459   0.254   6.092  15.616  0.4839 -0.8588  0.3720
15348TIP3    H267460   0.127   6.064  15.538 -0.0838 -0.0148  0.9686
15349TIP3   OH267461   4.644   4.084   5.809  0.1840  0.0042  0.1433
15349TIP3    H167462   4.627   4.014   5.872  0.2454 -0.4474 -0.3371
15349TIP3    H267463   4.685   4.040   5.734  1.4240  0.7319  0.3564
15350TIP3   OH267464   3.292   0.163   2.452 -0.3443  0.0753 -0.1446
15350TIP3    H167465   3.360   0.210   2.500  0.5546 -0.0913 -1.2089
15350TIP3    H267466   3.273   0.086   2.507 -0.1852  0.4873  0.4970
15351TIP3   OH267467   6.292   1.694   0.609  0.2939 -0.2641 -0.0132
15351TIP3    H167468   6.299   1.728   0.520  2.5254  0.0539  0.2272
15351TIP3    H267469   6.257   1.767   0.660  0.6794  0.1420 -0.3236
15352TIP3   OH267470   5.391   4.520   5.158  0.0726 -0.3090  0.5395
15352TIP3    H167471   5.465   4.580   5.151  0.0576 -0.2674  0.7586
15352TIP3    H267472   5.415   4.446   5.101 -0.3487  0.3581 -0.5422
15353TIP3   OH267473   0.717   4.121   0.566 -0.5541  0.2937 -0.2789
15353TIP3    H167474   0.629   4.139   0.599 -0.6687 -0.6364 -0.0314
15353TIP3    H267475   0.747   4.204   0.530 -1.7444  0.4950 -0.8464
15354TIP3   OH267476   4.487   5.324   1.667 -0.1670 -0.1192 -0.0179
15354TIP3    H167477   4.445   5.327   1.753 -0.8026 -0.7231 -0.2959
15354TIP3    H267478   4.542   5.245   1.670  1.1604  0.7785  0.4204
15355TIP3   OH267479   4.113   3.288   2.826  0.0280 -0.8657 -0.0251
15355TIP3    H167480   4.197   3.241   2.824 -0.1946 -1.2594 -0.4703
15355TIP3    H267481   4.057   3.234   2.881 -0.1598 -1.0094 -0.3518
15356TIP3   OH267482   0.223   0.741  15.347  0.1360  0.8173 -0.6518
15356TIP3    H167483   0.264   0.690  15.417  0.5847  0.2265 -1.3209
15356TIP3    H267484   0.129   0.725  15.357  0.2433  0.1958 -0.5893
15357TIP3   OH267485   5.919   0.514   1.860 -0.4402  0.3852  0.4367
15357TIP3    H167486   5.847   0.464   1.820  0.5147 -0.7947  0.1386
15357TIP3    H267487   5.951   0.571   1.791 -1.8783  1.8492  0.9244
15358TIP3   OH267488   0.428   2.908  14.166  0.5101 -0.4911 -0.2203
15358TIP3    H167489   0.367   2.953  14.225  0.5015 -0.6897 -0.0732
15358TIP3    H267490   0.513   2.949  14.183  0.9609 -1.9724  1.5437
15359TIP3   OH267491   2.452   4.972  14.790 -0.3365  0.0053 -0.4436
15359TIP3    H167492   2.491   4.896  14.833 -0.0093  0.5086  0.1659
15359TIP3    H267493   2.503   4.984  14.710  0.0366 -0.0165 -0.2081
15360TIP3   OH267494   2.933   6.041   0.630 -0.0940  0.2441 -0.0682
15360TIP3    H167495   2.941   5.965   0.688  0.3529 -0.6345 -1.2406
15360TIP3    H267496   2.993   6.105   0.667 -1.5153  0.6060  1.7655
15361TIP3   OH267497   0.414   1.982  12.676 -0.3043 -0.1964  0.6096
15361TIP3    H167498   0.483   1.918  12.659 -0.3519 -0.3932  1.1305
15361TIP3    H267499   0.442   2.027  12.756 -1.4916 -1.3063  1.7067
15362TIP3   OH267500   3.997   4.512   4.424 -0.0009  0.0768  0.1867
15362TIP3    H167501   3.966   4.518   4.334 -2.5265  1.0436  1.0418
15362TIP3    H267502   4.062   4.582   4.432  0.0621  0.1330 -0.7978
15363TIP3   OH267503   2.538   6.456   3.707 -0.2253 -0.2630 -0.7023
15363TIP3    H167504   2.592   6.534   3.721 -0.5739 -0.1693  0.1397
15363TIP3    H267505   2.601   6.385   3.696  0.0807 -0.1201  0.0704
15364TIP3   OH267506   2.101   1.448   4.639 -0.0022 -0.3114  0.5500
15364TIP3    H167507   2.086   1.379   4.574  0.3287  0.0224  0.1133
15364TIP3    H267508   2.193   1.439   4.663 -0.5176 -1.5384  2.2780
15365TIP3   OH267509   2.918   3.580  12.701  0.3718 -0.0534 -0.5236
15365TIP3    H167510   3.006   3.554  12.674  0.2552 -1.7525  0.5674
15365TIP3    H267511   2.910   3.548  12.791 -0.9331  1.1724 -0.1655
15366TIP3   OH267512   4.055   1.693  12.223 -0.1387  0.4251  0.2135
15366TIP3    H167513   4.036   1.760  12.159  0.1095  0.7825  0.5104
15366TIP3    H267514   4.108   1.628  12.176 -0.0363  0.6397  0.0365
15367TIP3   OH267515   5.505   3.359   6.817 -0.0199 -0.4008  0.1330
15367TIP3    H167516   5.445   3.357   6.892  1.0846 -0.5290  1.0412
15367TIP3    H267517   5.454   3.322   6.745 -1.3660  0.4405  0.6091
15368TIP3   OH267518   0.786   1.215  14.259 -0.6048 -0.4127 -0.0999
15368TIP3    H167519   0.791   1.307  14.282  0.7351 -1.1731  3.2516
15368TIP3    H267520   0.693   1.197  14.252 -1.0006  0.7471  1.6012
15369TIP3   OH267521   2.831   1.402  13.433  0.2460  0.4688 -0.1583
15369TIP3    H167522   2.870   1.473  13.484 -0.6065  0.8586 -0.0365
15369TIP3    H267523   2.744   1.434  13.411 -0.2026 -0.6007  0.0214
15370TIP3   OH267524   2.193   6.401   4.004 -0.2465 -0.0165 -0.1604
15370TIP3    H167525   2.169   6.327   4.061 -0.7704  1.7026  1.9687
15370TIP3    H267526   2.115   6.455   4.000  0.7537  1.5065  0.0848
15371TIP3   OH267527   4.177   1.288  17.431  0.0235  0.7358 -0.1654
15371TIP3    H167528   4.207   1.375  17.455  0.6773  0.5190 -0.1731
15371TIP3    H267529   4.185   1.237  17.511 -2.1604  1.1193  0.3798
15372TIP3   OH267530   6.394   2.277  11.503  0.4964 -0.3763 -0.3151
15372TIP3    H167531   6.324   2.307  11.560  0.7597 -0.8843  0.2942
15372TIP3    H267532   6.472   2.324  11.533  0.6345 -0.6433 -0.2425
15373TIP3   OH267533   3.914   0.796   3.043  0.1939 -0.4459 -0.8458
15373TIP3    H167534   3.848   0.734   3.075  1.5572 -0.8655  1.4234
15373TIP3    H267535   3.976   0.742   2.994  1.5410 -1.0607  1.3783
15374TIP3   OH267536   1.809   5.134  13.135  0.6319 -0.7086  0.3525
15374TIP3    H167537   1.773   5.145  13.047  0.4946  0.1262  0.5037
15374TIP3    H267538   1.863   5.212  13.148  2.1422 -1.7160  0.3016
15375TIP3   OH267539   3.402   3.165   1.520  0.4645  0.3173  0.0670
15375TIP3    H167540   3.479   3.111   1.503 -0.6327 -1.9537  1.7532
15375TIP3    H267541   3.362   3.126   1.598  0.0918  4.2327  2.0541
15376TIP3   OH267542   5.923   5.307  15.229 -0.0029  0.5093  0.1045
15376TIP3    H167543   5.860   5.361  15.181 -0.2334 -1.0537 -1.4283
15376TIP3    H267544   5.903   5.217  15.203  0.9659 -0.2733  1.8838
15377TIP3   OH267545   3.925   1.988  17.074  0.6761 -0.0888  0.5764
15377TIP3    H167546   3.896   1.923  17.139  1.1576  0.3770  1.2660
15377TIP3    H267547   3.843   2.025  17.040  0.3375 -1.8073 -0.6366
15378TIP3   OH267548   3.611   1.881  11.213 -0.1194  0.1278 -0.1278
15378TIP3    H167549   3.658   1.862  11.132  1.9012  2.9746  0.2312
15378TIP3    H267550   3.570   1.966  11.198 -0.3261  0.3628  1.5417
15379TIP3   OH267551   4.145   1.741  12.504 -0.0017  0.1012 -0.1136
15379TIP3    H167552   4.103   1.734  12.418  0.3045  1.4426 -0.4006
15379TIP3    H267553   4.179   1.653  12.521  0.4272 -0.0666 -1.6372
15380TIP3   OH267554   2.843   1.291  16.128 -0.3620  0.7855 -0.0281
15380TIP3    H167555   2.897   1.347  16.185 -1.8230  1.9226  0.3004
15380TIP3    H267556   2.853   1.329  16.041  0.9996 -0.2890 -0.3737
15381TIP3   OH267557   5.844   4.062  17.415 -0.4325 -0.1034  0.2729
15381TIP3    H167558   5.807   4.066  17.327  1.3018  1.3169 -0.4455
15381TIP3    H267559   5.860   3.969  17.430  0.4691 -0.2732 -1.4766
15382TIP3   OH267560   3.219   2.386  11.595  0.1364  0.1877  0.2273
15382TIP3    H167561   3.124   2.384  11.588  0.1652 -1.5588  0.0074
15382TIP3    H267562   3.250   2.359  11.508  0.8083 -0.3771  0.6306
15383TIP3   OH267563   4.435   6.229  15.829 -0.3748  0.1577  0.4503
15383TIP3    H167564   4.431   6.271  15.915  4.3289  2.5740 -0.1699
15383TIP3    H267565   4.484   6.148  15.845 -0.1567  0.2330  0.1645
15384TIP3   OH267566   0.992   0.265  12.607  0.3531  0.0798 -0.0914
15384TIP3    H167567   1.037   0.296  12.529  2.0553  2.8643  1.8010
15384TIP3    H267568   0.926   0.331  12.625  0.7839  0.1245  1.4517
15385TIP3   OH267569   5.415   3.514   2.801  0.4520 -0.6604 -0.4019
15385TIP3    H167570   5.425   3.426   2.838  0.2519 -0.2678  0.6061
15385TIP3    H267571   5.500   3.556   2.818  0.1133 -0.2380  0.2799
15386TIP3   OH267572   0.796   4.874  12.507  0.1944  0.0586 -0.3722
15386TIP3    H167573   0.735   4.878  12.433 -0.6648  0.5745  0.3378
15386TIP3    H267574   0.851   4.951  12.497  1.3982 -0.9036 -1.5429
15387TIP3   OH267575   4.298   5.232   6.663  0.8233 -0.4888 -0.3087
15387TIP3    H167576   4.371   5.293   6.675  1.7779 -1.3744 -1.3694
15387TIP3    H267577   4.221   5.289   6.655  1.4289  0.4783  0.5151
15388TIP3   OH267578   0.455   6.016   2.479  0.3123  0.3378 -0.1184
15388TIP3    H167579   0.389   6.070   2.522  0.6197  1.3150 -0.8452
15388TIP3    H267580   0.486   6.069   2.406  2.0861  0.0064  0.3456
15389TIP3   OH267581   1.521   3.655  13.778 -0.1158  0.6130  0.1473
15389TIP3    H167582   1.560   3.695  13.700  0.1173 -1.2816 -0.7622
15389TIP3    H267583   1.427   3.659  13.763 -0.0462 -0.8073 -0.8329
15390TIP3   OH267584   2.928   0.917  15.231 -0.0814  0.4766  0.4458
15390TIP3    H167585   2.969   0.919  15.317  0.5346  1.3513  0.1385
15390TIP3    H267586   2.988   0.866  15.176 -1.5973 -2.1976  1.0583
15391TIP3   OH267587   3.925   0.506  17.029  0.3072 -0.4368  0.5414
15391TIP3    H167588   4.006   0.459  17.012  0.3450 -0.3918  0.5956
15391TIP3    H267589   3.857   0.454  16.987 -0.0464 -2.0724  2.9496
15392TIP3   OH267590   4.731   1.618  16.395  1.0648  0.2203 -0.1597
15392TIP3    H167591   4.671   1.693  16.387  0.3000 -0.3360  0.2873
15392TIP3    H267592   4.744   1.608  16.490 -0.0773 -1.1728 -0.1247
15393TIP3   OH267593   3.128   0.386   2.106  0.9071  0.3511  0.4778
15393TIP3    H167594   3.101   0.364   2.195  0.4398 -0.7305  0.0815
15393TIP3    H267595   3.047   0.403   2.059  1.1407  0.6671  0.1780
15394TIP3   OH267596   4.672   4.387   4.754  0.0108 -0.2653  0.0764
15394TIP3    H167597   4.669   4.348   4.667  0.7296 -0.0556 -0.0490
15394TIP3    H267598   4.751   4.441   4.753 -0.8600  1.0774  0.2847
15395TIP3   OH267599   3.252   4.780   3.543  0.5040 -0.3934 -0.5491
15395TIP3    H167600   3.181   4.782   3.607  1.7505 -0.0123  0.8863
15395TIP3    H267601   3.274   4.872   3.528  1.3866 -0.5215 -0.1422
15396TIP3   OH267602   4.532   0.882  15.114  0.0101  0.2128  0.0912
15396TIP3    H167603   4.591   0.957  15.112  0.4512 -0.0129  2.2458
15396TIP3    H267604   4.590   0.806  15.123 -0.4662 -0.3692 -1.3824
15397TIP3   OH267605   4.869   0.559  17.093 -0.4567  0.2799  0.0529
15397TIP3    H167606   4.923   0.481  17.096 -0.7882  0.0860  2.2429
15397TIP3    H267607   4.817   0.549  17.013  2.3720  0.3017 -1.9467
15398TIP3   OH267608   2.595   1.410  14.682 -0.2735  0.1070  0.1962
15398TIP3    H167609   2.681   1.427  14.643 -0.1922 -0.8717 -0.0575
15398TIP3    H267610   2.603   1.323  14.722 -1.4056 -0.3685 -0.5699
15399TIP3   OH267611   6.470   4.644   5.337  0.2412  0.3253  0.4649
15399TIP3    H167612   6.381   4.658   5.307  0.0103 -1.8893 -0.0428
15399TIP3    H267613   6.520   4.717   5.301 -0.8694  0.1517 -1.5516
15400TIP3   OH267614   0.529   5.728  16.838  0.5400 -0.1517 -0.0346
15400TIP3    H167615   0.595   5.790  16.808  1.9848 -1.2526  0.7112
15400TIP3    H267616   0.495   5.687  16.758  0.2524  0.8959 -0.4640
15401TIP3   OH267617   3.438   2.510  16.750  0.2966  0.2503 -0.0302
15401TIP3    H167618   3.350   2.475  16.764 -0.9499  1.8763 -2.8727
15401TIP3    H267619   3.434   2.599  16.785 -0.5345  1.6871 -3.3940
15402TIP3   OH267620   0.510   3.569   2.081  0.0854 -0.6100  0.2372
15402TIP3    H167621   0.587   3.613   2.116  0.0355 -1.1306  1.0398
15402TIP3    H267622   0.512   3.586   1.987  1.0463 -0.4200  0.2890
15403TIP3   OH267623   2.610   0.038   5.669 -0.5215  0.0894  0.1941
15403TIP3    H167624   2.702   0.020   5.647 -0.4879 -1.6014  1.4764
15403TIP3    H267625   2.595   0.127   5.639  1.2797  0.0775 -0.8666
15404TIP3   OH267626   3.780   5.799   0.027 -0.1720  0.1544  0.3524
15404TIP3    H167627   3.717   5.815  -0.044  0.3016  0.0536 -0.0982
15404TIP3    H267628   3.736   5.832   0.105 -1.3317 -1.0848  0.2699
15405TIP3   OH267629   1.227   1.611  11.807 -0.0242 -0.3068  0.7148
15405TIP3    H167630   1.285   1.542  11.837  1.5499 -0.2404 -1.8578
15405TIP3    H267631   1.256   1.689  11.854  1.5171 -0.4317  0.0272
15406TIP3   OH267632   0.201   1.046  16.394  0.0338 -0.1009 -0.4155
15406TIP3    H167633   0.281   1.054  16.445 -1.5500  0.6827  2.1175
15406TIP3    H267634   0.188   1.132  16.355 -0.8014  0.5636  1.2302
15407TIP3   OH267635   0.794   6.328  13.953 -0.4346 -0.0186  0.2980
15407TIP3    H167636   0.817   6.254  14.009 -1.4680 -0.8501 -0.3545
15407TIP3    H267637   0.873   6.382  13.952  0.8019 -1.7439 -0.2427
15408TIP3   OH267638   1.944   1.941  16.232 -0.2261 -0.4807 -0.0101
15408TIP3    H167639   1.988   1.867  16.191 -0.5217 -0.5530 -0.1994
15408TIP3    H267640   2.002   2.016  16.214 -0.9112 -0.2911 -1.5657
15409TIP3   OH267641   6.388   0.667  13.553  0.2950 -0.1326  0.2935
15409TIP3    H167642   6.323   0.671  13.624 -1.6053  0.3569 -1.3710
15409TIP3    H267643   6.400   0.573  13.538  0.4904 -0.2391  1.0467
15410TIP3   OH267644   5.787   3.361   0.748  0.0935 -0.1353  0.9080
15410TIP3    H167645   5.747   3.437   0.791  2.5495  1.5839  0.3866
15410TIP3    H267646   5.878   3.362   0.778  0.5021 -2.1807 -0.0976
15411TIP3   OH267647   5.049   0.122   6.958  0.5234 -0.2879 -0.0630
15411TIP3    H167648   4.989   0.065   6.911  0.3516  0.7700 -1.1765
15411TIP3    H267649   5.097   0.169   6.890  1.2394  0.3023  0.8136
15412TIP3   OH267650   1.130   4.040  12.688  0.0964  0.0486 -0.2316
15412TIP3    H167651   1.188   4.045  12.612  0.7327  0.5843  0.2660
15412TIP3    H267652   1.103   4.131  12.703 -0.5225 -0.1408 -0.1974
15413TIP3   OH267653   6.561   5.937  16.625  0.2437 -0.0707  0.0024
15413TIP3    H167654   6.637   5.984  16.659 -0.9522  2.0237 -0.0606
15413TIP3    H267655   6.585   5.915  16.535  0.8269  0.4745  0.0146
15414TIP3   OH267656   1.802   4.716  16.452 -0.3752 -0.0587 -0.3428
15414TIP3    H167657   1.743   4.760  16.391  0.1769 -0.2094 -0.9930
15414TIP3    H267658   1.754   4.639  16.482 -1.1401  0.6840  0.3948
15415TIP3   OH267659   3.738   0.680   3.721 -0.8348  0.6365  0.2482
15415TIP3    H167660   3.655   0.685   3.674 -0.6466 -0.7247 -0.2546
15415TIP3    H267661   3.726   0.612   3.786  0.2644 -0.4623 -0.6516
15416TIP3   OH267662   5.733   4.556   0.952 -0.1408  0.3794  0.2907
15416TIP3    H167663   5.799   4.521   0.892 -0.1112  0.9360 -0.0137
15416TIP3    H267664   5.769   4.542   1.039  0.6290  1.1333  0.1096
15417TIP3   OH267665   0.301   2.337  16.490  0.4610 -0.0672  0.3970
15417TIP3    H167666   0.232   2.308  16.429 -0.8334  0.0151  1.7650
15417TIP3    H267667   0.376   2.357  16.433 -0.6190 -0.1916 -1.1497
15418TIP3   OH267668   3.927   5.436   3.137 -0.3445  0.1817  0.0597
15418TIP3    H167669   4.009   5.421   3.090 -0.9661  1.0990 -1.3834
15418TIP3    H267670   3.950   5.427   3.229  1.1118 -0.7936 -0.3584
15419TIP3   OH267671   0.066   0.417   2.301  0.2876 -0.1326  0.2538
15419TIP3    H167672   0.050   0.459   2.216  2.4519  0.8995  0.2979
15419TIP3    H267673   0.015   0.470   2.363 -1.7935 -1.2499 -0.4071
15420TIP3   OH267674   1.963   3.365   2.812  0.2891  0.3358 -0.1131
15420TIP3    H167675   2.006   3.354   2.727 -1.6944 -0.6423 -1.0467
15420TIP3    H267676   1.935   3.456   2.813 -0.7918  0.0400 -1.0995
15421TIP3   OH267677   3.542   1.993   0.082  0.4923 -0.3268 -0.1353
15421TIP3    H167678   3.542   1.929   0.011 -1.4748  1.5334 -1.9418
15421TIP3    H267679   3.594   2.067   0.049  2.1239 -0.5790  1.6320
15422TIP3   OH267680   5.001   1.187  14.307 -0.2038 -0.0975  0.4221
15422TIP3    H167681   4.964   1.270  14.276 -0.8268 -0.8057 -0.8063
15422TIP3    H267682   5.056   1.156  14.235 -1.3576 -1.5864  0.1331
15423TIP3   OH267683   6.337   6.653  16.449  0.0237 -0.3451  0.3790
15423TIP3    H167684   6.277   6.727  16.451  0.4555  0.1759 -2.1284
15423TIP3    H267685   6.313   6.600  16.525 -0.8657  1.8987  1.7579
15424TIP3   OH267686   6.609   5.366   3.727  0.0056 -0.2828  0.7217
15424TIP3    H167687   6.656   5.287   3.700 -2.2890 -1.3970 -0.3005
15424TIP3    H267688   6.585   5.409   3.645 -2.2252 -0.7142  1.0953
15425TIP3   OH267689   4.304   1.937  15.025  0.5442  0.2643  0.1935
15425TIP3    H167690   4.383   1.885  15.010  0.4232  0.4496 -1.2218
15425TIP3    H267691   4.324   2.022  14.986 -0.4001  0.2631 -0.3111
15426TIP3   OH267692   1.702   0.184  11.910  0.2759  0.3582 -0.2791
15426TIP3    H167693   1.735   0.113  11.965 -1.0285 -0.2203 -0.2240
15426TIP3    H267694   1.625   0.217  11.956  1.6800  2.8444  0.4778
15427TIP3   OH267695   5.007   5.422   3.282 -0.2594  0.0347  0.5155
15427TIP3    H167696   5.042   5.395   3.197 -1.7805  1.1486 -0.5162
15427TIP3    H267697   4.951   5.349   3.308  1.9315 -1.3156  1.7036
15428TIP3   OH267698   4.804   1.007   2.044  0.2851  0.1609 -0.1588
15428TIP3    H167699   4.776   0.918   2.066 -0.1705  0.5036  0.6714
15428TIP3    H267700   4.779   1.060   2.120  0.4533  1.0177 -0.6884
15429TIP3   OH267701   4.603   2.633   5.568  0.2809  0.6574 -0.0141
15429TIP3    H167702   4.526   2.659   5.618  0.6254  0.5197  0.5869
15429TIP3    H267703   4.599   2.537   5.565 -0.6056  0.6985 -1.6271
15430TIP3   OH267704   5.744   5.408   2.008 -0.2730 -0.7913  0.3052
15430TIP3    H167705   5.835   5.378   2.011  0.8194  2.2324  1.4197
15430TIP3    H267706   5.696   5.344   2.062  1.3184 -1.9688  0.4057
15431TIP3   OH267707   6.675   1.712  16.147 -0.0526 -0.1420 -0.0722
15431TIP3    H167708   6.636   1.752  16.225  1.7347  0.0947  0.7356
15431TIP3    H267709   6.645   1.767  16.075 -1.8680 -0.4586  0.3942
15432TIP3   OH267710   1.085   2.233  13.409  0.3554 -1.0524  0.0676
15432TIP3    H167711   1.112   2.142  13.400  1.3786 -0.8079  0.5800
15432TIP3    H267712   1.166   2.283  13.409 -0.0809 -0.2799  1.4576
15433TIP3   OH267713   4.822   0.380   4.130 -0.3243 -0.3967  0.0675
15433TIP3    H167714   4.905   0.335   4.147 -1.1739 -1.8076  0.7074
15433TIP3    H267715   4.839   0.471   4.152  1.1534 -0.6073 -0.1478
15434TIP3   OH267716   1.440   4.628   4.216  0.4073 -0.2362  0.1379
15434TIP3    H167717   1.362   4.682   4.202 -0.0733 -0.7369  0.8359
15434TIP3    H267718   1.460   4.591   4.130  0.7128  0.9975 -0.3412
15435TIP3   OH267719   5.139   3.756   5.191 -0.4105 -0.7652  0.0219
15435TIP3    H167720   5.047   3.785   5.194 -0.5173 -1.1646  0.6352
15435TIP3    H267721   5.189   3.837   5.204 -0.6210 -0.2620 -1.9546
15436TIP3   OH267722   0.620   4.485  11.628 -0.2420  0.2579  0.1330
15436TIP3    H167723   0.600   4.392  11.628 -2.2403  0.5720 -2.4095
15436TIP3    H267724   0.704   4.492  11.581 -0.0978 -0.2385  0.3150
15437TIP3   OH267725   6.625   5.152  17.204 -0.1990  0.3669 -0.0750
15437TIP3    H167726   6.679   5.083  17.243  0.5289  1.0940  0.2224
15437TIP3    H267727   6.637   5.228  17.262 -1.3925  0.6034 -0.1094
15438TIP3   OH267728   0.681   1.251   4.021 -0.5169  0.0068  0.6313
15438TIP3    H167729   0.733   1.171   4.019  0.4988  0.6707 -0.5086
15438TIP3    H267730   0.687   1.282   4.111  0.8380 -0.0865  0.5845
15439TIP3   OH267731   6.688   3.168   0.241  0.7792 -0.3204  0.4256
15439TIP3    H167732   6.687   3.100   0.175  0.0850 -0.3714  0.4877
15439TIP3    H267733   6.630   3.236   0.207 -1.7158 -1.4400  2.1114
15440TIP3   OH267734   6.009   0.760   2.658  0.4206 -0.0298 -0.0823
15440TIP3    H167735   5.995   0.800   2.572  0.4918 -0.2036 -0.1771
15440TIP3    H267736   6.061   0.824   2.706 -2.2674  1.4819  0.9641
15441TIP3   OH267737   1.350   6.656  13.110 -0.0561  0.2732 -0.0986
15441TIP3    H167738   1.307   6.591  13.054  0.1729 -1.2070  1.3538
15441TIP3    H267739   1.428   6.681  13.061  0.9252 -2.0999  0.1191
15442TIP3   OH267740   2.024   3.715   1.452 -0.1714  0.0365 -0.5295
15442TIP3    H167741   1.933   3.707   1.480  0.2685  2.1439  1.8048
15442TIP3    H267742   2.031   3.803   1.416  0.9195 -0.1731 -0.8825
15443TIP3   OH267743   0.141   1.264  14.740 -0.4107 -0.0447  0.5262
15443TIP3    H167744   0.126   1.345  14.788  0.6519  0.2381  0.4041
15443TIP3    H267745   0.069   1.260  14.676 -0.9404  0.3599  1.0883
15444TIP3   OH267746   2.161   3.875   5.846  0.6578  0.1024  0.1471
15444TIP3    H167747   2.076   3.848   5.881 -0.6303  2.6012 -0.7713
15444TIP3    H267748   2.140   3.914   5.761  2.5737  1.7026  0.3514
15445TIP3   OH267749   3.484   1.713  15.492  0.1495  0.0165  0.2290
15445TIP3    H167750   3.415   1.778  15.481 -0.4449 -1.0015 -3.3356
15445TIP3    H267751   3.443   1.642  15.541 -0.8040  0.1704 -0.3246
15446TIP3   OH267752   0.211   4.971  12.428  0.8630  0.6231  0.1674
15446TIP3    H167753   0.149   4.945  12.496 -0.3376  3.2248  0.1915
15446TIP3    H267754   0.296   4.970  12.471  0.5118 -0.4548  0.8835
15447TIP3   OH267755   3.080   4.230   3.960 -0.5643 -0.2188 -0.4681
15447TIP3    H167756   3.167   4.190   3.962 -1.1486 -1.5636  0.5908
15447TIP3    H267757   3.095   4.322   3.941  1.0302 -0.5661 -0.9871
15448TIP3   OH267758   4.006   0.490   4.625  0.0892  0.0908  0.8865
15448TIP3    H167759   4.073   0.422   4.619 -0.4162 -0.4539  1.2180
15448TIP3    H267760   4.051   0.564   4.665  0.8810  0.2840 -0.3070
15449TIP3   OH267761   0.957   1.915  13.676 -0.0627 -0.0989 -0.2899
15449TIP3    H167762   0.950   1.898  13.583  0.0038 -1.0811 -0.1215
15449TIP3    H267763   0.890   1.982  13.693 -1.6330 -1.5194 -0.6469
15450TIP3   OH267764   6.590   1.382   2.381 -0.1083  0.2735  0.3757
15450TIP3    H167765   6.630   1.430   2.308 -0.7522  1.5628  0.8313
15450TIP3    H267766   6.540   1.449   2.428 -1.5928 -1.0001  0.6616
15451TIP3   OH267767   4.819   1.939   6.515  0.0076  0.2630  0.8814
15451TIP3    H167768   4.907   1.942   6.552  0.9316  1.7559 -1.2744
15451TIP3    H267769   4.790   2.030   6.514 -1.7697 -0.2259  1.8622
15452TIP3   OH267770   6.166   4.498   2.209 -1.0155 -0.3782  0.0890
15452TIP3    H167771   6.186   4.502   2.116  0.2088 -1.5418  0.2721
15452TIP3    H267772   6.195   4.582   2.244  0.0254 -0.5562 -0.3235
15453TIP3   OH267773   2.260   0.179  15.494  0.1257 -0.2554 -0.2707
15453TIP3    H167774   2.229   0.270  15.498  1.7376  0.5692 -3.4488
15453TIP3    H267775   2.338   0.178  15.550  0.0724  0.2881 -0.1823
15454TIP3   OH267776   2.894   6.581   4.324  0.6507  0.2171  0.4223
15454TIP3    H167777   2.926   6.659   4.278  0.3464  1.5120  2.2624
15454TIP3    H267778   2.957   6.568   4.395  1.3626 -1.9870 -0.5411
15455TIP3   OH267779   2.299   1.437  14.797  0.0479 -0.0714 -0.4105
15455TIP3    H167780   2.239   1.459  14.726  1.1285  0.3076 -1.2358
15455TIP3    H267781   2.327   1.347  14.778  0.5496  0.1263 -0.6426
15456TIP3   OH267782   1.221   0.625   5.057 -0.3137  0.1095  0.5061
15456TIP3    H167783   1.186   0.644   5.144 -0.3173 -1.0578  0.7679
15456TIP3    H267784   1.155   0.569   5.016  0.4441 -0.7026  0.3725
15457TIP3   OH267785   0.672   6.414   1.224 -0.3890 -0.0952 -0.0201
15457TIP3    H167786   0.670   6.368   1.140 -1.2911  0.3747 -0.2686
15457TIP3    H267787   0.644   6.503   1.203  0.3099  0.2836  0.6310
15458TIP3   OH267788   0.952   3.870   1.485  0.1001 -0.0401 -0.2614
15458TIP3    H167789   0.913   3.891   1.400  0.5884  1.1875 -0.2016
15458TIP3    H267790   0.956   3.775   1.486  1.7301 -0.0687 -2.3704
15459TIP3   OH267791   1.418   4.685   6.670  0.4594 -0.4349 -0.7649
15459TIP3    H167792   1.456   4.641   6.746  0.1830 -0.7153 -0.7836
15459TIP3    H267793   1.324   4.690   6.691  0.4796  0.0877 -0.7944
15460TIP3   OH267794   5.199   3.388   3.898  0.7911  0.3417  0.8979
15460TIP3    H167795   5.287   3.421   3.915  1.7385 -1.0899 -0.9282
15460TIP3    H267796   5.204   3.349   3.811 -1.5317 -0.2196  0.9499
15461TIP3   OH267797   2.277   3.291  15.197  0.2661 -0.3983  0.0819
15461TIP3    H167798   2.328   3.296  15.116  1.6017 -0.3630  0.9078
15461TIP3    H267799   2.292   3.375  15.240  1.5560 -1.3192  1.5124
15462TIP3   OH267800   4.701   0.096   4.974  1.1905  0.5865  0.0012
15462TIP3    H167801   4.754   0.140   4.908  0.9834  1.1582  0.2150
15462TIP3    H267802   4.704   0.153   5.050  0.4378  0.5208  0.0846
15463TIP3   OH267803   3.360   4.200  16.374  0.2802 -0.5435 -0.0685
15463TIP3    H167804   3.292   4.234  16.315 -0.3494  1.3923  1.6605
15463TIP3    H267805   3.329   4.112  16.397 -0.1814 -0.7845 -1.4777
15464TIP3   OH267806   1.480   5.883   1.349  0.0717 -0.4103  0.8711
15464TIP3    H167807   1.548   5.820   1.324 -0.1701 -0.3265 -0.0435
15464TIP3    H267808   1.466   5.936   1.270 -0.0023  0.5498  1.5110
15465TIP3   OH267809   5.761   1.791   2.841 -0.1595  0.1535  0.3432
15465TIP3    H167810   5.777   1.733   2.767  1.4496  1.4754 -0.3888
15465TIP3    H267811   5.670   1.819   2.830 -0.2428 -0.4226 -0.5698
15466TIP3   OH267812   4.467   0.182   5.513  0.1019  0.0157  0.4734
15466TIP3    H167813   4.429   0.263   5.479  0.6395  0.1326  0.1357
15466TIP3    H267814   4.423   0.169   5.597  1.2934  1.6731  1.4276
15467TIP3   OH267815   5.023   4.710   3.919 -0.3510  0.0679  0.2842
15467TIP3    H167816   4.967   4.727   3.844  0.0854 -0.0906 -0.0802
15467TIP3    H267817   5.001   4.621   3.946  0.7950 -0.5705 -0.8051
15468TIP3   OH267818   4.075   4.754  12.499  0.2961 -0.4800 -0.5735
15468TIP3    H167819   4.015   4.807  12.550  0.2678 -0.0650 -1.0229
15468TIP3    H267820   4.105   4.813  12.429  1.3146 -0.6348 -0.2836
15469TIP3   OH267821   1.049   2.801  11.143 -0.2337 -0.4144  0.2479
15469TIP3    H167822   0.995   2.865  11.096  0.5615  1.5426  1.8058
15469TIP3    H267823   1.111   2.769  11.078 -2.3780 -1.7485 -1.2560
15470TIP3   OH267824   0.711   6.454   3.005 -0.3618 -0.1726  0.0760
15470TIP3    H167825   0.706   6.529   2.945 -0.6375  0.9504  1.4578
15470TIP3    H267826   0.636   6.400   2.981  0.6650 -0.8220 -1.9207
15471TIP3   OH267827   2.168   4.402  13.395 -0.2311 -0.4884 -0.1440
15471TIP3    H167828   2.187   4.369  13.307  0.5533  2.7577 -1.2985
15471TIP3    H267829   2.246   4.451  13.420 -2.2643  2.8303  0.2135
15472TIP3   OH267830   6.335   1.470   2.096  0.1480 -0.5291  0.0681
15472TIP3    H167831   6.370   1.557   2.075 -0.4553 -0.3173 -0.0790
15472TIP3    H267832   6.244   1.486   2.122 -0.2801 -1.2117 -0.9246
15473TIP3   OH267833   2.115   2.283  13.403 -1.0084  0.0039  0.0805
15473TIP3    H167834   2.057   2.306  13.475 -0.4966 -1.3797  0.9651
15473TIP3    H267835   2.086   2.196  13.376  2.1804 -1.9448  2.2738
15474TIP3   OH267836   1.835   0.824   1.350  0.0089 -0.1506  0.0522
15474TIP3    H167837   1.885   0.874   1.286  0.2358 -0.1425  0.2377
15474TIP3    H267838   1.775   0.771   1.298 -1.5910  1.7117 -0.1318
15475TIP3   OH267839   1.410   1.518   0.546 -0.3951  0.1101 -0.5604
15475TIP3    H167840   1.431   1.608   0.571  1.5068 -0.7825  1.4126
15475TIP3    H267841   1.495   1.473   0.546 -1.6152 -2.6523  2.9974
15476TIP3   OH267842   5.693   0.408  17.123  0.2028 -0.3032  0.1284
15476TIP3    H167843   5.707   0.365  17.207 -2.8479 -2.0517 -0.1082
15476TIP3    H267844   5.749   0.361  17.061  0.8088 -0.4707  0.8055
15477TIP3   OH267845   4.372   5.039   5.194 -0.0176 -0.2688 -0.1964
15477TIP3    H167846   4.376   5.128   5.158  0.5385 -0.4110 -0.5076
15477TIP3    H267847   4.311   5.045   5.267 -1.3003 -0.0004 -1.2612
15478TIP3   OH267848   1.655   2.659   0.644 -0.1101  0.2587  0.6406
15478TIP3    H167849   1.700   2.585   0.603 -1.6121  0.2420 -1.1246
15478TIP3    H267850   1.674   2.733   0.585  1.3817  1.3540  2.3836
15479TIP3   OH267851   4.806   4.548   6.509 -0.7632  0.1801 -0.0294
15479TIP3    H167852   4.758   4.558   6.427  0.6382 -1.7642 -1.1621
15479TIP3    H267853   4.857   4.628   6.517  2.7621 -1.3534 -3.7059
15480TIP3   OH267854   3.501   2.563   5.803  0.6099  0.2820  0.3680
15480TIP3    H167855   3.570   2.621   5.835  0.1631  2.2744 -1.9822
15480TIP3    H267856   3.482   2.594   5.715 -1.7504 -1.6287  0.0858
15481TIP3   OH267857   4.520   2.577  13.359  0.8032 -0.5359 -0.1498
15481TIP3    H167858   4.483   2.618  13.437  1.4069  0.3728 -0.3192
15481TIP3    H267859   4.449   2.524  13.323  0.0095  0.3231  0.1193
15482TIP3   OH267860   6.449   2.755   1.277  0.6291 -0.6003 -0.4452
15482TIP3    H167861   6.495   2.672   1.265  2.3862  0.3797 -0.8478
15482TIP3    H267862   6.411   2.748   1.365 -0.0586 -2.1836 -0.8388
15483TIP3   OH267863   1.227   2.012   3.479 -0.0462 -0.4199 -0.4015
15483TIP3    H167864   1.307   1.972   3.512 -0.0091 -0.0623 -0.0461
15483TIP3    H267865   1.172   2.022   3.556 -0.5378 -0.8924 -0.6855
15484TIP3   OH267866   4.323   0.178  17.317 -0.6122 -0.1936  0.4330
15484TIP3    H167867   4.312   0.220  17.231 -1.1839  0.9128  1.0151
15484TIP3    H267868   4.347   0.088  17.297  0.8275  0.4334 -0.8816
15485TIP3   OH267869   1.172   1.070   5.829 -0.1291 -0.1107  0.1090
15485TIP3    H167870   1.237   1.022   5.777 -1.4325 -0.6162 -1.1230
15485TIP3    H267871   1.173   1.158   5.792 -0.0992 -0.1004  0.1341
15486TIP3   OH267872   3.873   1.663  14.468  0.1855 -0.0412  0.0071
15486TIP3    H167873   3.862   1.744  14.418 -0.3935  0.2982  0.6564
15486TIP3    H267874   3.860   1.690  14.559 -4.8607 -1.5487  0.0514
15487TIP3   OH267875   0.782   5.267   0.759 -0.3407 -0.9136  0.2195
15487TIP3    H167876   0.807   5.288   0.849  1.0747 -0.3627 -0.2738
15487TIP3    H267877   0.753   5.351   0.722  2.0994 -0.4296 -0.7484
15488TIP3   OH267878   1.132   6.097  17.175  0.1405  0.2898  0.4932
15488TIP3    H167879   1.100   6.187  17.179 -0.0856  0.2213  0.3065
15488TIP3    H267880   1.139   6.069  17.266 -0.1560  0.3697  0.5397
15489TIP3   OH267881   0.708   2.383   5.607  0.7322 -0.6139  0.0588
15489TIP3    H167882   0.768   2.408   5.537 -1.8297 -2.3342 -3.0607
15489TIP3    H267883   0.632   2.440   5.595  0.1188 -1.1491  1.2534
15490TIP3   OH267884   2.712   0.375   3.422 -0.0114 -0.4208  0.2324
15490TIP3    H167885   2.741   0.451   3.371  0.6731 -1.9370 -1.8117
15490TIP3    H267886   2.698   0.409   3.510  0.4878  2.0067 -0.5330
15491TIP3   OH267887   3.194   3.998   3.711  0.3600 -0.4335 -0.0932
15491TIP3    H167888   3.193   3.987   3.806 -2.0330  0.1019 -0.0096
15491TIP3    H267889   3.126   3.939   3.679  0.3300  0.2497 -1.3619
15492TIP3   OH267890   5.676   3.451   4.897  0.2701  0.3136  0.2516
15492TIP3    H167891   5.598   3.484   4.852  0.5544  1.1196  0.3369
15492TIP3    H267892   5.645   3.373   4.943  0.0894 -0.8491 -1.7360
15493TIP3   OH267893   6.574   4.794   2.996 -0.2766 -0.0547 -0.6563
15493TIP3    H167894   6.616   4.836   3.071 -0.2912 -1.0875 -0.0465
15493TIP3    H267895   6.481   4.814   3.006 -0.2415  0.0670 -0.5683
15494TIP3   OH267896   0.411   5.863  15.449 -0.1783  0.3970  0.0403
15494TIP3    H167897   0.401   5.913  15.368  1.0896  0.9671  0.2109
15494TIP3    H267898   0.359   5.912  15.513 -0.5346  0.3905 -0.2359
15495TIP3   OH267899   4.030   6.556  17.393 -0.3208  0.6315  0.2642
15495TIP3    H167900   4.123   6.537  17.384 -0.0384  1.3911  1.4272
15495TIP3    H267901   3.988   6.499  17.328  0.8685 -0.3717  0.3296
15496TIP3   OH267902   6.489   5.375   4.880  0.8313  0.2061  0.5921
15496TIP3    H167903   6.566   5.366   4.824  0.8967 -0.0185  0.7168
15496TIP3    H267904   6.487   5.295   4.932 -0.9722 -1.0848 -1.2726
15497TIP3   OH267905   6.303   5.987  13.114 -0.0836 -0.5819 -0.0095
15497TIP3    H167906   6.313   6.069  13.067 -0.7880 -0.1038  0.6550
15497TIP3    H267907   6.211   5.965  13.106 -0.1598 -0.6475  0.8643
15498TIP3   OH267908   5.738   0.262   6.106  0.5327  0.2811 -0.2243
15498TIP3    H167909   5.728   0.215   6.023 -0.8397 -1.0558  0.6436
15498TIP3    H267910   5.778   0.197   6.165 -1.9726 -0.1475  1.1821
15499TIP3   OH267911   3.873   5.136  12.057  0.1713 -0.0174 -0.2718
15499TIP3    H167912   3.824   5.144  11.975 -0.6495  1.7187  0.3434
15499TIP3    H267913   3.948   5.081  12.035  0.7286  1.5194 -2.5652
15500TIP3   OH267914   2.732   6.434  14.972  0.4768 -0.3227  0.1404
15500TIP3    H167915   2.652   6.460  15.018 -0.1385  1.1583 -1.6590
15500TIP3    H267916   2.716   6.345  14.941  0.4625 -0.9065  1.7261
15501TIP3   OH267917   5.199   0.725   5.740  0.1306  0.3459  0.1816
15501TIP3    H167918   5.228   0.763   5.823  0.9269  1.4793 -0.6006
15501TIP3    H267919   5.112   0.762   5.726  0.6486  1.4333 -0.2659
15502TIP3   OH267920   2.699   4.003   2.902  0.1588  0.0207 -0.3225
15502TIP3    H167921   2.614   3.995   2.947  0.4554 -0.6487  0.1326
15502TIP3    H267922   2.687   3.957   2.819  0.4692 -1.2422  0.3162
15503TIP3   OH267923   4.066   0.752  16.935  0.5692  0.2189 -0.2207
15503TIP3    H167924   4.016   0.676  16.963 -0.8558  1.7657  1.6753
15503TIP3    H267925   4.149   0.745  16.981  0.1579  0.1680  0.5254
15504TIP3   OH267926   5.376   2.102   6.888  0.0099  0.6759  0.0672
15504TIP3    H167927   5.327   2.137   6.963  3.7876  4.0557  1.2906
15504TIP3    H267928   5.334   2.143   6.812 -1.9797 -0.4264  0.4774
15505TIP3   OH267929   4.090   2.930  13.591  0.3551 -0.0308  0.0825
15505TIP3    H167930   4.068   2.965  13.677  0.6021 -0.7916  0.4667
15505TIP3    H267931   4.157   2.990  13.558  0.7187 -0.0862  0.6951
15506TIP3   OH267932   2.627   3.418   0.196 -0.4916  0.1737  0.1096
15506TIP3    H167933   2.657   3.448   0.111  0.2937 -1.0071 -0.0585
15506TIP3    H267934   2.553   3.475   0.218  0.6567  1.9073 -0.3580
15507TIP3   OH267935   3.463   3.120   4.370  0.0179  0.0927 -0.1735
15507TIP3    H167936   3.446   3.184   4.439 -0.7292 -1.3562  1.0577
15507TIP3    H267937   3.406   3.046   4.392  0.3115 -0.7119 -1.9487
15508TIP3   OH267938   2.585   4.110  16.909  0.1435  0.1287 -0.1813
15508TIP3    H167939   2.592   4.063  16.992  0.1141  0.6070  0.0936
15508TIP3    H267940   2.665   4.164  16.904  0.8362 -0.9254 -1.1185
15509TIP3   OH267941   4.601   3.924   2.955 -0.0138 -0.4108  0.2222
15509TIP3    H167942   4.627   3.972   2.877  0.8419 -0.1637  0.6507
15509TIP3    H267943   4.506   3.910   2.944  0.1666 -0.7697 -1.0531
15510TIP3   OH267944   4.150   4.066  17.442  0.6938  0.0993  0.0961
15510TIP3    H167945   4.148   3.995  17.505 -0.3550 -0.9194 -1.0484
15510TIP3    H267946   4.078   4.123  17.467 -0.2563 -0.7487 -0.6561
15511TIP3   OH267947   2.180   4.637  13.799  0.1790 -0.2057 -0.3854
15511TIP3    H167948   2.138   4.711  13.843  0.1460 -0.0589 -0.6652
15511TIP3    H267949   2.124   4.562  13.821  0.5402 -0.2619  0.3901
15512TIP3   OH267950   0.411   2.925   0.906  0.1558  0.2333 -0.3225
15512TIP3    H167951   0.327   2.934   0.951  0.5289  1.3037  0.1987
15512TIP3    H267952   0.468   2.989   0.948  0.8824  0.4015 -1.4993
15513TIP3   OH267953   3.442   5.867   3.570  0.5849  0.1717 -0.0648
15513TIP3    H167954   3.436   5.897   3.479  1.3347  1.1202  0.1786
15513TIP3    H267955   3.355   5.881   3.606  0.2672 -0.2551 -0.6408
15514TIP3   OH267956   5.107   4.892  14.777  0.1278 -0.4939 -0.3583
15514TIP3    H167957   5.080   4.830  14.844 -0.6390 -0.1865 -0.3698
15514TIP3    H267958   5.114   4.840  14.697  1.1697 -0.8860 -0.0231
15515TIP3   OH267959   5.452   5.707   0.731  0.1928  0.3450 -0.2302
15515TIP3    H167960   5.388   5.725   0.800  0.1572 -0.3142 -0.0918
15515TIP3    H267961   5.535   5.697   0.777 -0.1129 -1.8467 -0.0716
15516TIP3   OH267962   0.792   1.107  15.165 -0.3627 -0.0570 -0.5094
15516TIP3    H167963   0.818   1.196  15.141  0.2364 -0.5445 -1.7546
15516TIP3    H267964   0.726   1.119  15.234 -0.1256  1.3342 -0.4935
15517TIP3   OH267965   0.888   3.865  15.498 -0.2019 -0.8255  0.0958
15517TIP3    H167966   0.918   3.859  15.407 -0.2672 -0.6158  0.0581
15517TIP3    H267967   0.804   3.911  15.492 -0.6697 -1.6510  0.1741
15518TIP3   OH267968   4.008   1.193   2.320 -0.0014  0.4879  0.2996
15518TIP3    H167969   4.003   1.219   2.228 -1.1640 -0.3393  0.1020
15518TIP3    H267970   4.082   1.133   2.324  0.0655  0.5398 -0.0941
15519TIP3   OH267971   3.046   5.435   5.903 -0.1652  0.5649  0.0499
15519TIP3    H167972   3.132   5.471   5.922  0.7307 -0.6405 -1.5553
15519TIP3    H267973   2.989   5.473   5.971  1.1849  2.9669 -0.0521
15520TIP3   OH267974   2.325   4.310  14.246  0.2439 -0.5543 -0.2010
15520TIP3    H167975   2.363   4.396  14.227  2.1293 -0.8932  1.7428
15520TIP3    H267976   2.257   4.329  14.311  0.2692 -0.4681 -0.1987
15521TIP3   OH267977   3.964   1.564   0.305  0.4052  0.3661 -0.2148
15521TIP3    H167978   3.985   1.477   0.274 -1.3701 -0.5497  0.9557
15521TIP3    H267979   3.910   1.602   0.236  1.1612  0.5417 -0.7155
15522TIP3   OH267980   0.752   5.978  12.014  0.0123 -0.2515 -0.4185
15522TIP3    H167981   0.811   6.045  12.049  0.0447 -0.8132  0.6730
15522TIP3    H267982   0.802   5.897  12.020  0.1461 -0.3322 -2.1653
15523TIP3   OH267983   1.203   0.819   4.597 -0.4068  0.0947 -0.3112
15523TIP3    H167984   1.258   0.818   4.676 -0.2415 -0.2085 -0.4279
15523TIP3    H267985   1.118   0.852   4.628 -0.7686 -1.3022  0.2994
15524TIP3   OH267986   5.671   5.646   4.097 -0.1974 -0.1919 -0.3150
15524TIP3    H167987   5.618   5.717   4.135 -0.0184  0.4639 -1.2510
15524TIP3    H267988   5.723   5.689   4.029  0.9646 -0.9746  0.0502
15525TIP3   OH267989   2.491   3.996   3.559 -0.6821  0.3243  0.0267
15525TIP3    H167990   2.435   4.054   3.612  0.4364  0.0373  1.6173
15525TIP3    H267991   2.477   3.909   3.597 -1.1526 -0.2080 -1.3147
15526TIP3   OH267992   6.358   4.029   6.230 -0.0878 -0.5697  0.0179
15526TIP3    H167993   6.392   3.982   6.307  0.7084 -1.2042 -0.7052
15526TIP3    H267994   6.435   4.065   6.188 -0.3942 -1.1940 -1.1105
15527TIP3   OH267995   1.684   4.113  17.444  0.5971  0.0258  0.0300
15527TIP3    H167996   1.752   4.138  17.506 -0.0727  0.6750  0.5200
15527TIP3    H267997   1.605   4.157  17.476  0.3284  0.7510 -1.5415
15528TIP3   OH267998   4.736   3.029  13.852 -0.1140  0.1186 -0.3987
15528TIP3    H167999   4.720   3.101  13.791 -2.0903  0.2358  0.1743
15528TIP3    H268000   4.735   3.070  13.939 -0.2732 -0.4536 -0.1228
15529TIP3   OH268001   5.490   5.025  13.691 -0.6066 -0.4986 -0.3023
15529TIP3    H168002   5.504   5.115  13.723  1.2921 -0.7459 -0.3134
15529TIP3    H268003   5.534   4.970  13.756 -0.5334 -1.3116 -1.0353
15530TIP3   OH268004   4.277   3.624  15.476 -0.0140  0.1482 -0.1252
15530TIP3    H168005   4.355   3.570  15.463 -0.1822 -0.0102 -0.4699
15530TIP3    H268006   4.310   3.714  15.475  0.3150  0.0516  0.7879
15531TIP3   OH268007   6.243   4.406   1.928  0.1502 -0.0965 -0.1094
15531TIP3    H168008   6.261   4.445   1.842 -0.3407  0.0821 -0.1330
15531TIP3    H268009   6.155   4.369   1.920 -0.5651  1.3088  0.7791
15532TIP3   OH268010   3.253   6.143   0.259  0.2329 -0.1770  0.4719
15532TIP3    H168011   3.301   6.212   0.305 -0.2823 -0.5246  1.5541
15532TIP3    H268012   3.228   6.184   0.175  0.6387  0.6716  0.7468
15533TIP3   OH268013   0.371   0.292  12.305  0.4154 -0.4569  0.0183
15533TIP3    H168014   0.338   0.296  12.215  2.4190  0.5786 -0.7366
15533TIP3    H268015   0.344   0.375  12.344 -0.8363 -1.0945  0.5381
15534TIP3   OH268016   1.582   0.148  15.889 -0.2140  0.1782 -0.1318
15534TIP3    H168017   1.575   0.117  15.799 -2.8510 -1.1600  0.4180
15534TIP3    H268018   1.499   0.192  15.906 -1.1145 -2.1703  2.4551
15535TIP3   OH268019   0.998   3.131   3.011 -0.3635  0.0777 -0.2512
15535TIP3    H168020   0.931   3.063   3.005 -0.6778  0.3823 -0.2387
15535TIP3    H268021   1.011   3.142   3.105 -3.3980  2.9870  0.0079
15536TIP3   OH268022   5.279   2.399   5.990  0.6486 -0.6270  0.7833
15536TIP3    H168023   5.327   2.419   5.910 -1.1886 -0.8618 -0.4447
15536TIP3    H268024   5.272   2.303   5.991 -1.1930 -0.5484  0.0050
15537TIP3   OH268025   0.448   0.613  15.532  0.0488 -0.1601 -0.2923
15537TIP3    H168026   0.410   0.647  15.613  1.7178  0.1776  0.3995
15537TIP3    H268027   0.401   0.531  15.516 -0.5318 -0.0629  0.8402
15538TIP3   OH268028   2.108   4.772   2.520  0.1452  0.0271  0.0643
15538TIP3    H168029   2.160   4.833   2.466  0.2767  0.5303  0.7561
15538TIP3    H268030   2.032   4.751   2.466 -0.1708  1.2212  0.0291
15539TIP3   OH268031   6.625   0.713   5.943 -0.5476 -0.6238  0.5285
15539TIP3    H168032   6.711   0.717   5.901 -1.0338  1.6906 -0.3794
15539TIP3    H268033   6.642   0.677   6.030  1.4087  0.2232  0.5387
15540TIP3   OH268034   1.025   2.934  11.741 -0.0436 -0.0010 -0.1210
15540TIP3    H168035   1.109   2.889  11.750  1.0005  1.9485  0.4995
15540TIP3    H268036   1.035   2.988  11.663 -0.6945  0.2884 -0.0115
15541TIP3   OH268037   6.426   1.517   4.719  0.0532  0.2591 -0.7851
15541TIP3    H168038   6.512   1.555   4.732 -0.3432  0.6228  1.0880
15541TIP3    H268039   6.373   1.552   4.791 -0.9508 -2.0211 -0.3056
15542TIP3   OH268040   3.455   5.853  11.436 -0.1017 -0.1004  0.5288
15542TIP3    H168041   3.526   5.798  11.402 -1.0472 -1.1659  0.1953
15542TIP3    H268042   3.397   5.791  11.481 -0.8766  0.7309  0.7061
15543TIP3   OH268043   1.903   0.731   3.397 -1.2588 -0.2938  0.1287
15543TIP3    H168044   1.854   0.796   3.447 -0.7838  0.1239  0.0617
15543TIP3    H268045   1.898   0.762   3.306 -1.4434 -0.6153  0.0276
15544TIP3   OH268046   4.511   2.586   0.654  0.1142  0.3922  0.0084
15544TIP3    H168047   4.548   2.508   0.696  0.2076  1.1455  1.3720
15544TIP3    H268048   4.560   2.594   0.573  0.5264 -0.6246  0.1325
15545TIP3   OH268049   2.581   3.522  14.166  0.1747  0.7393 -0.9112
15545TIP3    H168050   2.671   3.553  14.178 -0.0530  1.4398 -0.9888
15545TIP3    H268051   2.534   3.597  14.131 -1.2024  1.4344  2.1768
15546TIP3   OH268052   0.926   5.871   3.686 -0.5582  0.1019  0.5187
15546TIP3    H168053   0.991   5.854   3.618 -0.7870 -0.6395  0.4817
15546TIP3    H268054   0.857   5.920   3.642 -0.2711  0.4433  0.4398
15547TIP3   OH268055   3.709   3.309   5.334 -0.1315  0.0883  0.3076
15547TIP3    H168056   3.670   3.302   5.247  0.9307  1.0206 -0.2669
15547TIP3    H268057   3.637   3.340   5.389  0.0474  3.3267 -1.0445
15548TIP3   OH268058   3.449   3.645  16.712  0.0013  0.5303 -0.1407
15548TIP3    H168059   3.398   3.622  16.790 -0.8598  1.8957 -0.2622
15548TIP3    H268060   3.540   3.645  16.741 -0.3785  2.2085  1.2214
15549TIP3   OH268061   5.863   3.728  14.577  0.1663  0.1567  0.2849
15549TIP3    H168062   5.907   3.651  14.541  0.1598  0.2775  0.0217
15549TIP3    H268063   5.775   3.726  14.540 -0.4655 -0.7435  1.7223
15550TIP3   OH268064   2.445   6.146   0.984 -0.6237 -0.3791 -0.1552
15550TIP3    H168065   2.385   6.139   0.910 -0.1818 -0.2238 -0.5330
15550TIP3    H268066   2.524   6.186   0.948  0.1091 -1.5328  0.1067
15551TIP3   OH268067   4.122   3.961  14.200 -0.2201 -0.9873 -0.6361
15551TIP3    H168068   4.125   3.933  14.291  1.7629  0.3654 -0.2202
15551TIP3    H268069   4.046   3.915  14.163 -1.0787 -1.5586  1.6685
15552TIP3   OH268070   5.971   0.478  11.619  0.5404  0.4102 -0.7686
15552TIP3    H168071   5.994   0.395  11.661  0.2882  0.2904 -0.8678
15552TIP3    H268072   5.900   0.513  11.672 -0.7705 -0.4243 -1.8894
15553TIP3   OH268073   3.454   3.512   6.496  0.1531  0.1873 -0.1497
15553TIP3    H168074   3.384   3.564   6.535  0.1231 -0.6770  1.0226
15553TIP3    H268075   3.523   3.512   6.563  1.0476  0.5459 -1.0492
15554TIP3   OH268076   0.767   6.477   3.896 -0.7283 -0.5509 -0.4769
15554TIP3    H168077   0.700   6.475   3.964 -0.1196 -0.0936  0.1578
15554TIP3    H268078   0.723   6.516   3.820 -0.9778  0.5107  0.1818
15555TIP3   OH268079   1.769   1.716  16.980 -0.1246 -0.3724  0.1611
15555TIP3    H168080   1.855   1.742  17.014  0.5183  0.2740 -1.8428
15555TIP3    H268081   1.772   1.739  16.887 -2.7212  0.2814  0.1812
15556TIP3   OH268082   0.711   5.686   3.733 -0.5330  0.4253  0.3886
15556TIP3    H168083   0.723   5.672   3.827  0.8630  0.8845  0.3019
15556TIP3    H268084   0.776   5.752   3.710  0.3315 -0.9067 -1.2208
15557TIP3   OH268085   5.179   0.545  12.302  0.4234  0.1631  0.4255
15557TIP3    H168086   5.122   0.620  12.285  1.5777  0.8012 -0.8596
15557TIP3    H268087   5.238   0.576  12.370  0.5007  0.2202  0.3340
15558TIP3   OH268088   0.558   4.381   2.531 -0.0415  0.1153  0.0245
15558TIP3    H168089   0.485   4.428   2.570 -0.3409  1.4729 -2.0233
15558TIP3    H268090   0.630   4.445   2.530  0.3555 -0.3241 -0.4145
15559TIP3   OH268091   4.998   1.600   0.704  0.2234  0.6564  0.2645
15559TIP3    H168092   5.005   1.648   0.622  1.7915 -0.4361 -0.2810
15559TIP3    H268093   4.938   1.652   0.757 -0.8687  1.3579 -1.5792
15560TIP3   OH268094   6.077   5.916  12.369  0.2033  0.9293 -0.1029
15560TIP3    H168095   6.054   5.994  12.318 -0.4911  0.8428  0.0704
15560TIP3    H268096   6.130   5.863  12.309 -3.3528 -0.7922 -2.0411
15561TIP3   OH268097   2.048   1.398   2.368  0.1619 -0.4251  0.6134
15561TIP3    H168098   1.967   1.438   2.400 -0.7670 -0.3829 -1.6281
15561TIP3    H268099   2.021   1.311   2.340  0.9865 -0.5484  0.2040
15562TIP3   OH268100   1.974   0.557   1.518 -0.5607  0.0846  0.1650
15562TIP3    H168101   2.046   0.555   1.454  1.0326  0.4107  1.8839
15562TIP3    H268102   1.929   0.639   1.501 -0.1156  0.2000 -0.4889
15563TIP3   OH268103   3.187   2.053  14.575 -0.4946 -0.0147 -0.5947
15563TIP3    H168104   3.112   2.112  14.568 -1.5318 -1.0355  1.2427
15563TIP3    H268105   3.211   2.055  14.667  1.4475 -0.1334 -1.0392
15564TIP3   OH268106   2.510   4.798  16.230  0.3187  0.3638 -0.0177
15564TIP3    H168107   2.537   4.788  16.138 -2.0417  1.5990 -0.9253
15564TIP3    H268108   2.480   4.710  16.255  0.5816  0.1081 -0.5738
15565TIP3   OH268109   6.475   6.264  16.094 -0.1825 -0.0721  0.2940
15565TIP3    H168110   6.433   6.297  16.173 -0.6974 -2.6706  1.2053
15565TIP3    H268111   6.568   6.258  16.117 -0.0181  0.9826 -0.0159
15566TIP3   OH268112   3.821   5.536  10.919 -0.1776  0.5894 -0.5251
15566TIP3    H168113   3.827   5.528  11.014 -1.0360 -0.4090 -0.5384
15566TIP3    H268114   3.730   5.517  10.899  0.4009 -1.1986 -1.7031
15567TIP3   OH268115   2.821   4.614  11.955  0.0443  0.1301 -0.4209
15567TIP3    H168116   2.844   4.705  11.974 -0.0787 -0.1587  1.3448
15567TIP3    H268117   2.758   4.619  11.883  0.2372  1.4151 -0.5241
15568TIP3   OH268118   0.029   3.055  14.489  0.1163 -0.3082 -0.7090
15568TIP3    H168119   0.094   2.995  14.525  0.3519  1.3685  1.9560
15568TIP3    H268120   0.046   3.138  14.534 -1.5692  1.1926 -2.6347
15569TIP3   OH268121   5.459   4.222   1.094 -0.8296  0.3272 -0.0416
15569TIP3    H168122   5.476   4.130   1.073  0.1436  0.5563 -0.3172
15569TIP3    H268123   5.527   4.244   1.158 -1.6547  0.5894  0.7535
15570TIP3   OH268124   4.687   0.624   3.322 -0.1860 -0.6175 -0.3084
15570TIP3    H168125   4.680   0.719   3.311  0.5620 -0.3578  1.2543
15570TIP3    H268126   4.734   0.594   3.245 -0.8524  0.2079 -1.0566
15571TIP3   OH268127   3.826   1.093   5.622 -0.2432  0.1859  0.4987
15571TIP3    H168128   3.787   1.167   5.669  1.3757  1.6763 -0.4015
15571TIP3    H268129   3.885   1.133   5.558  0.7104 -1.8944 -0.0085
15572TIP3   OH268130   3.984   5.904  13.552  0.3117 -0.0997 -0.4251
15572TIP3    H168131   3.898   5.872  13.580  0.3680  0.3842  0.3338
15572TIP3    H268132   3.994   5.987  13.598  1.4647 -0.4655  0.0058
15573TIP3   OH268133   5.703   0.746   3.511  0.6345 -0.2505  0.4040
15573TIP3    H168134   5.702   0.650   3.513  1.7657 -0.2876  0.0219
15573TIP3    H268135   5.618   0.772   3.546 -0.1518 -1.4051 -0.5904
15574TIP3   OH268136   5.944   1.244  13.546 -0.1933 -0.4049  0.2818
15574TIP3    H168137   5.860   1.228  13.590 -0.3450 -0.5428 -0.0518
15574TIP3    H268138   5.976   1.325  13.585  1.0061 -1.8953  2.6434
15575TIP3   OH268139   5.598   1.656  11.480 -0.2261  0.3580 -0.0923
15575TIP3    H168140   5.570   1.745  11.459  0.5550  0.3731 -1.1317
15575TIP3    H268141   5.539   1.600  11.429 -0.6565  0.2692  0.4895
15576TIP3   OH268142   5.419   6.236   2.357 -0.0449  0.1083  0.2554
15576TIP3    H168143   5.344   6.207   2.304  0.7915 -1.1125 -0.2976
15576TIP3    H268144   5.379   6.274   2.435 -1.2702  0.5235 -0.5314
15577TIP3   OH268145   3.437   6.710  17.525 -0.5020  0.6361 -0.0350
15577TIP3    H168146   3.458   6.695  17.433 -2.1272  3.1434 -0.9363
15577TIP3    H268147   3.356   6.662  17.539  0.1653 -0.4073  0.3663
15578TIP3   OH268148   5.119   3.354   1.077  0.5418 -0.1457  0.4180
15578TIP3    H168149   5.175   3.338   1.153 -1.3520 -2.0426  1.5117
15578TIP3    H268150   5.145   3.287   1.014 -0.5087 -1.0629  0.9487
15579TIP3   OH268151   6.155   3.672   1.580 -0.1385  0.1316 -0.1095
15579TIP3    H168152   6.074   3.720   1.560 -0.0368  0.6362  0.6280
15579TIP3    H268153   6.199   3.665   1.496 -0.0021  1.6536 -0.2017
15580TIP3   OH268154   2.839   2.652  11.265  0.1274  0.1349 -0.1358
15580TIP3    H168155   2.797   2.620  11.345 -0.8349 -0.6320 -0.9146
15580TIP3    H268156   2.839   2.748  11.274 -2.5624  0.2385 -0.4270
15581TIP3   OH268157   6.434   6.078   0.930 -0.0943 -0.3732  0.6960
15581TIP3    H168158   6.375   6.153   0.925 -0.4230 -0.6546  0.3557
15581TIP3    H268159   6.388   6.015   0.986  0.5038 -0.0360  1.6019
15582TIP3   OH268160   3.521   1.131  12.046 -0.3134  0.2374  0.1884
15582TIP3    H168161   3.538   1.121  12.139  0.3679  1.9405  0.2803
15582TIP3    H268162   3.605   1.111  12.004  0.4998  3.1037  0.2510
15583TIP3   OH268163   2.652   0.086   4.607 -0.5113 -0.4220  0.7607
15583TIP3    H168164   2.602   0.165   4.587 -0.2597 -0.7088 -1.2917
15583TIP3    H268165   2.719   0.115   4.669  0.1695  1.2588 -0.6404
15584TIP3   OH268166   0.365   2.353   5.380  0.0500 -0.2251 -0.0790
15584TIP3    H168167   0.345   2.368   5.472  0.2109 -1.8203  0.2491
15584TIP3    H268168   0.296   2.399   5.332 -0.9657 -0.7167  0.8860
15585TIP3   OH268169   4.561   1.043  12.912 -0.7653  0.4798 -0.1267
15585TIP3    H168170   4.531   1.069  12.825 -2.9473  1.2502  0.7805
15585TIP3    H268171   4.492   1.074  12.971 -0.0735 -1.3439  1.7430
15586TIP3   OH268172   6.099   0.070  13.482 -0.2491 -0.6843  0.1898
15586TIP3    H168173   6.108   0.007  13.410 -1.8827  0.7917 -1.4284
15586TIP3    H268174   6.023   0.039  13.531 -0.5724 -0.4211 -0.1384
15587TIP3   OH268175   0.214   6.660  10.618  0.0271 -0.4906  0.0956
15587TIP3    H168176   0.296   6.628  10.656 -0.7556 -2.2272  0.4347
15587TIP3    H268177   0.240   6.732  10.560  1.7026 -0.5909  0.6763
15588TIP3   OH268178   2.219   0.468  15.857  0.6399 -0.3818  0.0268
15588TIP3    H168179   2.172   0.441  15.937  0.4083  0.4073  0.1633
15588TIP3    H268180   2.149   0.478  15.792  0.8615 -1.3395 -0.3769
15589TIP3   OH268181   2.093   2.398   0.508  0.4444 -0.3598 -0.3464
15589TIP3    H168182   2.144   2.331   0.463  0.9126 -0.1878 -0.0791
15589TIP3    H268183   2.152   2.473   0.516  0.4131 -0.4222  0.6366
15590TIP3   OH268184   3.589   6.694   5.557 -0.1596  0.2907  0.0255
15590TIP3    H168185   3.540   6.775   5.563 -2.0263 -0.7298 -0.6039
15590TIP3    H268186   3.600   6.665   5.648  0.3371  1.1313  0.2356
15591TIP3   OH268187   0.350   0.936   4.443 -0.4402  0.0919 -0.0564
15591TIP3    H168188   0.348   0.972   4.532 -0.5456  0.0391 -0.0362
15591TIP3    H268189   0.377   1.010   4.388 -1.3673  0.4106 -0.1059
15592TIP3   OH268190   3.600   3.749  17.460  0.4433  0.3341  0.3482
15592TIP3    H168191   3.690   3.734  17.431  0.7076  0.1153  1.2482
15592TIP3    H268192   3.609   3.815  17.529 -0.1388  0.6595  0.1137
15593TIP3   OH268193   0.599   3.763  15.368  0.2300 -0.0570 -0.4685
15593TIP3    H168194   0.527   3.701  15.380 -0.3721  0.0800 -2.8823
15593TIP3    H268195   0.674   3.720  15.408 -1.0159 -0.4997  1.5300
15594TIP3   OH268196   5.949   2.823  16.639 -0.0048  0.7180 -0.0227
15594TIP3    H168197   5.872   2.781  16.603  0.4338  0.7048 -0.9858
15594TIP3    H268198   6.012   2.752  16.650  0.5551  1.0082 -1.1556
15595TIP3   OH268199   0.127   0.891   0.708  0.4301  0.3303  0.1214
15595TIP3    H168200   0.174   0.919   0.629  0.3220  1.2958  0.3885
15595TIP3    H268201   0.121   0.796   0.699  0.0845  0.4595 -1.2243
15596TIP3   OH268202   4.698   3.924   1.617  0.1761 -0.0556  1.0654
15596TIP3    H168203   4.786   3.937   1.652  0.3655 -0.1953  0.6464
15596TIP3    H268204   4.642   3.915   1.695  0.5359 -0.0091  1.3310
15597TIP3   OH268205   3.037   1.660  14.280 -0.2924  0.4822 -0.2066
15597TIP3    H168206   3.000   1.572  14.273  1.6448 -0.3788 -0.3500
15597TIP3    H268207   3.072   1.678  14.192  1.7637  0.1855  0.4796
15598TIP3   OH268208   4.232   2.131   4.816  0.1701 -0.5399  0.1806
15598TIP3    H168209   4.200   2.042   4.803 -3.1900  0.4491  0.9152
15598TIP3    H268210   4.283   2.126   4.897 -0.0907 -1.7658  0.2913
15599TIP3   OH268211   1.093   4.908  12.273 -0.7223 -0.2032 -0.2671
15599TIP3    H168212   1.031   4.982  12.275 -1.0515 -0.4043 -1.7293
15599TIP3    H268213   1.079   4.869  12.187  0.5282 -1.0595 -0.0904
15600TIP3   OH268214   1.963   4.863   2.291  0.2740 -0.5035 -0.5909
15600TIP3    H168215   2.009   4.817   2.221 -0.6385 -4.0764  0.9033
15600TIP3    H268216   1.871   4.838   2.279 -0.0716 -0.2107  1.1024
15601TIP3   OH268217   4.538   1.852   2.664 -0.2338 -0.3654  0.2166
15601TIP3    H168218   4.589   1.814   2.736  0.6668 -0.8831 -0.6652
15601TIP3    H268219   4.567   1.804   2.586 -1.0431  0.3135 -0.5263
15602TIP3   OH268220   2.267   3.323  13.789  0.5812 -0.3717 -0.8826
15602TIP3    H168221   2.320   3.400  13.808 -0.2244  0.2776 -1.2139
15602TIP3    H268222   2.189   3.358  13.746 -1.7186 -0.8823  2.5180
15603TIP3   OH268223   4.671   1.115  11.855  0.2629 -0.4280  0.3629
15603TIP3    H168224   4.576   1.127  11.863  0.1100 -1.1751 -0.1918
15603TIP3    H268225   4.693   1.160  11.773  0.1542 -1.4068 -0.2201
15604TIP3   OH268226   1.007   1.290   0.857 -0.5650 -0.2486  0.0935
15604TIP3    H168227   1.058   1.315   0.780 -0.4107  2.1228  0.8867
15604TIP3    H268228   1.073   1.280   0.926 -0.9853  1.3057  0.7567
15605TIP3   OH268229   6.123   6.289   0.569 -0.8738 -0.6098  0.2556
15605TIP3    H168230   6.210   6.317   0.540 -1.3977  0.7559 -0.0595
15605TIP3    H268231   6.133   6.196   0.588  0.1250 -0.9964 -1.8875
15606TIP3   OH268232   6.100   1.132  16.900  0.3233  0.4295 -0.0827
15606TIP3    H168233   6.099   1.228  16.903 -3.8989  0.5737 -0.4971
15606TIP3    H268234   6.096   1.105  16.991  1.9912  0.5513  0.0598
15607TIP3   OH268235   5.792   3.927  11.747 -0.0068  0.3434 -0.1534
15607TIP3    H168236   5.783   4.019  11.769  0.3223  0.4105 -0.2984
15607TIP3    H268237   5.779   3.923  11.652  0.0450  0.2485 -0.1568
15608TIP3   OH268238   3.134   5.267   0.130 -0.8518  0.4585  0.3350
15608TIP3    H168239   3.084   5.348   0.117 -0.7802  0.4857  0.2315
15608TIP3    H268240   3.095   5.204   0.070 -0.3793  0.6467 -0.1752
15609TIP3   OH268241   4.719   5.079  13.537  0.3881  0.1797 -0.2755
15609TIP3    H168242   4.802   5.085  13.490 -0.3928  2.6533 -1.5056
15609TIP3    H268243   4.721   5.152  13.599  0.3265 -1.5449  1.9098
15610TIP3   OH268244   1.289   0.750   4.077 -0.1061  0.4062 -0.2592
15610TIP3    H168245   1.322   0.711   3.996 -0.1921  0.9784 -0.5776
15610TIP3    H268246   1.360   0.740   4.140  0.4947  1.1699 -0.7902
15611TIP3   OH268247   0.828   4.361  12.519 -0.1710 -0.0622  0.1102
15611TIP3    H168248   0.767   4.385  12.589  2.9743  4.1498  1.8025
15611TIP3    H268249   0.813   4.426  12.451  2.1668  0.9646  0.5005
15612TIP3   OH268250   4.494   2.846   5.216  0.8459 -0.5941  0.3296
15612TIP3    H168251   4.500   2.937   5.243  1.9070 -0.1596 -1.2268
15612TIP3    H268252   4.579   2.809   5.237  1.8282 -0.1586 -2.4976
15613TIP3   OH268253   3.496   1.224  15.258  0.0573  0.5298  0.3688
15613TIP3    H168254   3.420   1.217  15.200 -0.3659 -2.0082  1.0989
15613TIP3    H268255   3.522   1.316  15.252 -2.6655  1.3599 -0.3773
15614TIP3   OH268256   3.918   4.369   1.666  0.4537 -0.2572 -0.1998
15614TIP3    H168257   3.903   4.377   1.760  1.0565 -0.6153 -0.0697
15614TIP3    H268258   4.009   4.344   1.658  0.4449 -0.0973 -0.8921
15615TIP3   OH268259   4.607   4.978   3.248  0.4102  0.3046  0.4457
15615TIP3    H168260   4.579   5.069   3.250  1.3761  0.6294 -0.3809
15615TIP3    H268261   4.644   4.962   3.335  0.1238  0.6516  0.6339
15616TIP3   OH268262   0.840   6.587  15.023  0.8965 -0.2037  0.3803
15616TIP3    H168263   0.797   6.597  14.939  0.9941  0.2374  0.3790
15616TIP3    H268264   0.856   6.677  15.053  2.4518 -0.3428  0.0565
15617TIP3   OH268265   3.589   1.288  14.931  0.3789 -0.2830 -0.5457
15617TIP3    H168266   3.670   1.320  14.971  0.1782  2.0272 -1.7986
15617TIP3    H268267   3.530   1.363  14.932 -1.7250 -1.8395  0.1001
15618TIP3   OH268268   6.688   4.252   0.718 -0.0966  0.8422  0.2041
15618TIP3    H168269   6.639   4.275   0.796  0.0752 -0.7295  0.8172
15618TIP3    H268270   6.637   4.183   0.676  0.2223  1.0989 -0.6421
15619TIP3   OH268271   4.844   1.119  16.366 -0.3578  0.6505 -0.3222
15619TIP3    H168272   4.820   1.081  16.451  0.9169  0.6916  0.0873
15619TIP3    H268273   4.940   1.127  16.370 -0.2752  0.6505 -1.7723
15620TIP3   OH268274   3.292   5.133  15.187 -0.3751 -0.8029 -0.1864
15620TIP3    H168275   3.233   5.069  15.226  0.5690 -2.0765 -0.8008
15620TIP3    H268276   3.297   5.110  15.095 -0.4693  0.5318 -0.5525
15621TIP3   OH268277   0.657   1.033   3.724 -0.2443  0.0448  0.4379
15621TIP3    H168278   0.568   1.015   3.753  0.0153  0.4994  1.5638
15621TIP3    H268279   0.684   1.110   3.773 -0.2111  1.6854 -1.9726
15622TIP3   OH268280   6.237   1.290  13.045 -0.1956 -0.1982  0.5135
15622TIP3    H168281   6.164   1.348  13.022 -0.4921 -0.2491  1.2810
15622TIP3    H268282   6.287   1.281  12.964 -0.5443  0.5535  0.2029
15623TIP3   OH268283   5.482   4.388   3.309 -0.2699 -0.2154 -0.4085
15623TIP3    H168284   5.525   4.388   3.224 -0.2948  0.5465 -0.4304
15623TIP3    H268285   5.391   4.363   3.291 -0.6874  1.5109 -0.8455
15624TIP3   OH268286   0.377   5.969  13.202  0.3844 -0.3325  0.0141
15624TIP3    H168287   0.409   5.892  13.250 -1.8631 -2.2035 -1.2661
15624TIP3    H268288   0.306   5.935  13.147 -0.5371  2.6492 -0.8241
15625TIP3   OH268289   1.358   0.916  11.389  0.8765 -0.0387  0.0920
15625TIP3    H168290   1.368   1.011  11.382 -1.4771  0.3808  1.2370
15625TIP3    H268291   1.270   0.899  11.355  0.4263 -1.4853  1.8336
15626TIP3   OH268292   5.062   0.614  13.754  0.5604 -0.2347  0.2594
15626TIP3    H168293   5.158   0.606  13.751  0.4625 -2.9076  0.8892
15626TIP3    H268294   5.031   0.525  13.736 -1.8716  0.7959 -1.0365
15627TIP3   OH268295   3.024   0.811  11.657 -0.3708  0.2272  0.2328
15627TIP3    H168296   3.090   0.794  11.589 -1.7906  0.7777 -1.3339
15627TIP3    H268297   2.940   0.801  11.613 -1.3554  0.7276  1.8977
15628TIP3   OH268298   6.388   0.406   2.797 -0.2641  0.2995  0.3594
15628TIP3    H168299   6.324   0.465   2.756  0.9675 -0.0087 -2.1974
15628TIP3    H268300   6.461   0.463   2.821  0.3767  0.0378 -0.9119
15629TIP3   OH268301   5.267   6.462  13.853 -0.4848 -0.4482  0.7307
15629TIP3    H168302   5.247   6.539  13.799  0.6652 -0.4127  0.3359
15629TIP3    H268303   5.323   6.495  13.923  1.7809 -1.2459 -0.6203
15630TIP3   OH268304   2.243   5.446  12.283  0.6690 -0.1916  0.3403
15630TIP3    H168305   2.313   5.491  12.236  0.4414 -0.8365 -0.6645
15630TIP3    H268306   2.163   5.489  12.253  0.6274  0.7285  1.6966
15631TIP3   OH268307   0.382   3.940  13.631  0.3615  0.0475  0.0729
15631TIP3    H168308   0.451   3.898  13.683 -0.3980 -1.8338 -0.3396
15631TIP3    H268309   0.413   3.935  13.541 -0.8433 -2.1667 -0.3090
15632TIP3   OH268310   2.111   0.948   4.148  0.1532  0.3569  0.0483
15632TIP3    H168311   2.194   0.939   4.196  1.0646  2.2645 -1.0531
15632TIP3    H268312   2.124   0.896   4.069 -1.8199 -3.8716  2.1499
15633TIP3   OH268313   6.225   4.818   0.239 -0.0060 -0.3363  0.0610
15633TIP3    H168314   6.260   4.889   0.185 -1.4012  0.5213  0.2186
15633TIP3    H268315   6.200   4.750   0.177  0.0286 -0.0938 -0.2201
15634TIP3   OH268316   1.146   3.903   5.075  0.1076  0.5260  0.2338
15634TIP3    H168317   1.172   3.874   4.987 -0.4925  0.8468 -0.0503
15634TIP3    H268318   1.184   3.990   5.083  0.7240  0.2396  0.5567
15635TIP3   OH268319   2.690   0.143  11.422  0.4297 -0.1720 -0.1875
15635TIP3    H168320   2.716   0.188  11.342 -0.3507 -2.1618 -1.6374
15635TIP3    H268321   2.625   0.202  11.462 -0.2625  0.2048 -1.7830
15636TIP3   OH268322   4.399   3.045   3.807 -0.1660 -0.2766 -0.1178
15636TIP3    H168323   4.305   3.056   3.821  0.0013  1.6905 -0.3454
15636TIP3    H268324   4.408   3.032   3.712 -0.1347  0.5796 -0.2377
15637TIP3   OH268325   2.474   5.838  11.368 -0.6226 -0.4796 -0.0471
15637TIP3    H168326   2.536   5.903  11.400 -0.5108 -0.4774 -0.2639
15637TIP3    H268327   2.511   5.810  11.284  0.1835 -2.0106  0.7888
15638TIP3   OH268328   4.789   2.563  13.860 -0.3536  0.0478  0.3786
15638TIP3    H168329   4.807   2.574  13.953  1.8873 -0.3177  0.0634
15638TIP3    H268330   4.790   2.651  13.824 -1.4116  0.2041  0.7084
15639TIP3   OH268331   2.564   5.744  14.247 -0.0631 -0.0103 -0.0709
15639TIP3    H168332   2.659   5.749  14.239 -0.1581  1.7658 -0.5213
15639TIP3    H268333   2.548   5.675  14.312  1.4474 -1.5346 -1.2342
15640TIP3   OH268334   3.169   2.466  16.741 -0.2569  0.6688 -0.3872
15640TIP3    H168335   3.111   2.539  16.720 -2.5404 -0.6009  1.0463
15640TIP3    H268336   3.129   2.391  16.697 -0.2286 -0.3980  1.3176
15641TIP3   OH268337   3.701   5.842  14.580 -0.2035 -0.2312  0.6695
15641TIP3    H168338   3.746   5.761  14.607  0.2069  0.0829  0.9508
15641TIP3    H268339   3.724   5.852  14.488 -1.1602 -1.0189  0.3263
15642TIP3   OH268340   0.454   3.262   4.477 -0.0709  0.0900  0.5289
15642TIP3    H168341   0.426   3.256   4.568 -0.5827 -1.2517  0.2995
15642TIP3    H268342   0.419   3.183   4.435  0.4923  0.4823 -0.7419
15643TIP3   OH268343   2.633   6.668   4.933 -0.0983  0.8270  0.4239
15643TIP3    H168344   2.683   6.743   4.965 -1.3580  1.2529  1.4654
15643TIP3    H268345   2.545   6.681   4.968 -0.0549 -1.7904  1.7248
15644TIP3   OH268346   5.454   3.029   1.763 -0.5533  0.5003 -0.8736
15644TIP3    H168347   5.401   3.076   1.698 -0.5680 -0.3317 -1.4850
15644TIP3    H268348   5.397   3.022   1.840 -0.8477  0.7776 -1.0628
15645TIP3   OH268349   2.667   2.020   5.469 -0.6548 -0.0445 -0.6055
15645TIP3    H168350   2.748   2.064   5.494 -0.3863 -0.2859 -1.0482
15645TIP3    H268351   2.608   2.091   5.442 -1.5572  0.4286  2.2497
15646TIP3   OH268352   5.882   1.166  15.055  0.4147  0.4135 -0.4734
15646TIP3    H168353   5.928   1.226  14.996 -0.2756  0.9708 -0.4645
15646TIP3    H268354   5.795   1.156  15.016  0.5935 -0.7680 -0.5861
15647TIP3   OH268355   0.370   1.445   2.978 -0.0311 -0.2665 -0.4573
15647TIP3    H168356   0.404   1.527   3.014  2.3370  0.1308 -3.1875
15647TIP3    H268357   0.448   1.390   2.967 -1.5069 -2.8225  0.9607
15648TIP3   OH268358   2.458   1.654   3.572  0.0838 -0.0456  0.0549
15648TIP3    H168359   2.505   1.670   3.653  1.3492  0.1837 -0.6962
15648TIP3    H268360   2.396   1.584   3.593  1.0610 -0.6637  0.9775
15649TIP3   OH268361   3.794   6.622  14.524  0.5694 -0.1925  0.1889
15649TIP3    H168362   3.859   6.690  14.510  2.5208 -1.9448  0.2427
15649TIP3    H268363   3.789   6.611  14.619  3.1553 -2.6067  0.1788
15650TIP3   OH268364   0.287   0.382   4.142  0.1014  0.4103  0.1835
15650TIP3    H168365   0.240   0.307   4.178 -1.2482 -0.3980 -2.8800
15650TIP3    H268366   0.217   0.444   4.117  0.9763  1.2498 -0.2450
15651TIP3   OH268367   2.947   1.945  17.405  0.3170 -0.0518 -0.0560
15651TIP3    H168368   2.976   1.970  17.493 -0.9664 -1.9557  0.9711
15651TIP3    H268369   2.873   2.003  17.387 -1.1842 -1.4237  1.3476
15652TIP3   OH268370   5.307   1.917  17.212  0.2823  0.0968  0.3058
15652TIP3    H168371   5.332   1.887  17.299  0.3479 -0.2449  0.1719
15652TIP3    H268372   5.257   1.844  17.175  0.5602  0.0971 -0.0758
15653TIP3   OH268373   0.846   0.183   1.954 -0.0732  0.3681 -0.3191
15653TIP3    H168374   0.845   0.102   1.904  0.4456  0.0012  0.2526
15653TIP3    H268375   0.763   0.184   2.002 -1.0540  1.2310 -1.9580
15654TIP3   OH268376   1.205   2.032  13.739  0.1411  0.3493  0.3173
15654TIP3    H168377   1.252   1.981  13.804  0.2098  0.0177  0.0071
15654TIP3    H268378   1.129   1.978  13.717  1.0958 -0.4025 -1.2575
15655TIP3   OH268379   6.035   5.315  15.475  0.6150  0.1086  1.0027
15655TIP3    H168380   5.965   5.318  15.539  0.2433 -1.6188  0.7187
15655TIP3    H268381   5.990   5.319  15.390  0.8636 -0.6152  0.8268
15656TIP3   OH268382   5.760   5.768  11.380  0.2151 -0.5612  0.0043
15656TIP3    H168383   5.759   5.804  11.292 -1.3843  1.0496  0.6185
15656TIP3    H268384   5.712   5.832  11.433 -2.5553 -3.3870  1.2422
15657TIP3   OH268385   6.013   0.649   2.218 -0.6704 -0.2419  0.4543
15657TIP3    H168386   6.026   0.702   2.139 -1.7151  2.1204  1.7745
15657TIP3    H268387   5.956   0.578   2.189  1.4845 -1.2927 -1.5845
15658TIP3   OH268388   0.518   4.589  15.059 -0.0297  0.1482 -0.0116
15658TIP3    H168389   0.570   4.655  15.013 -0.9443  0.5100 -0.5556
15658TIP3    H268390   0.581   4.521  15.084  0.7052  0.6091 -0.5917
15659TIP3   OH268391   1.486   3.497  14.791  0.2463  0.4813  0.7653
15659TIP3    H168392   1.452   3.408  14.796 -1.4693  1.1593  2.2911
15659TIP3    H268393   1.576   3.487  14.759 -0.7475 -1.5347 -1.7014
15660TIP3   OH268394   5.624   4.562   3.450 -0.5768  0.0414 -0.4040
15660TIP3    H168395   5.570   4.490   3.415 -2.6962  1.4339 -0.1807
15660TIP3    H268396   5.643   4.617   3.374 -0.1365 -0.0207 -0.3416
15661TIP3   OH268397   1.748   6.712  10.918 -0.1687  0.2349 -0.4229
15661TIP3    H168398   1.763   6.719  10.824  0.3852 -0.4693 -0.3930
15661TIP3    H268399   1.807   6.642  10.947 -0.1346  0.6258  0.4925
15662TIP3   OH268400   1.947   6.582  15.002  0.3895  0.1425 -0.7000
15662TIP3    H168401   2.004   6.655  15.028  0.6451  0.0497 -0.9870
15662TIP3    H268402   1.897   6.616  14.928 -0.8799  0.6556  0.3569
15663TIP3   OH268403   3.160   6.341   4.686  0.3094  0.0992  0.6597
15663TIP3    H168404   3.087   6.281   4.668  0.6536 -0.6839  1.8023
15663TIP3    H268405   3.119   6.417   4.727 -0.2464  1.0956 -1.5776
15664TIP3   OH268406   1.659   3.763  16.913  0.0375 -0.0016 -0.4904
15664TIP3    H168407   1.674   3.780  17.006  1.3291  0.3889 -0.7468
15664TIP3    H268408   1.667   3.668  16.905 -1.0713 -0.1433 -0.0521
15665TIP3   OH268409   0.128   6.066   1.292  0.3537  0.0248 -0.3765
15665TIP3    H168410   0.042   6.089   1.326  1.2507 -0.1925  2.2430
15665TIP3    H268411   0.159   6.145   1.249  0.4076  1.4464  2.1057
15666TIP3   OH268412   3.261   5.658  15.317  0.0824  0.4339 -0.6592
15666TIP3    H168413   3.170   5.646  15.342  0.4945 -1.8165 -0.0262
15666TIP3    H268414   3.289   5.572  15.285  2.3590  0.6715  0.4884
15667TIP3   OH268415   5.201   3.587   0.172  0.3479  0.0545 -0.1686
15667TIP3    H168416   5.109   3.582   0.197  0.3608 -3.3122 -0.2722
15667TIP3    H268417   5.201   3.633   0.089 -1.3502 -0.4625 -0.5016
15668TIP3   OH268418   2.277   1.262  16.930  0.4215 -0.0133  0.4754
15668TIP3    H168419   2.196   1.264  16.981 -0.1649  0.8262 -0.4603
15668TIP3    H268420   2.337   1.317  16.979  0.1721  0.0225  0.7459
15669TIP3   OH268421   3.953   0.494  10.658 -0.1267  0.0175 -0.3833
15669TIP3    H168422   3.950   0.432  10.731 -0.7619 -2.2365 -2.2094
15669TIP3    H268423   4.014   0.454  10.595 -2.1099  0.1192 -2.5007
15670TIP3   OH268424   4.517   2.352   5.586  0.1606 -0.2430 -0.2555
15670TIP3    H168425   4.460   2.326   5.514 -0.0977 -1.4391  0.3649
15670TIP3    H268426   4.461   2.350   5.663  0.3990  1.1854 -0.0195
15671TIP3   OH268427   0.366   4.921  14.397  0.1237  0.2940  0.3713
15671TIP3    H168428   0.394   4.831  14.410  0.6507  0.2611 -0.8691
15671TIP3    H268429   0.309   4.918  14.320  0.1691  1.0104  0.2994
15672TIP3   OH268430   6.649   2.356   6.056  0.0525 -0.1653  0.5654
15672TIP3    H168431   6.674   2.264   6.051 -1.9831 -0.9113  2.5318
15672TIP3    H268432   6.598   2.372   5.977 -2.8345 -1.9017  1.9335
15673TIP3   OH268433   2.725   5.870  16.737  1.2437  0.4199  0.4336
15673TIP3    H168434   2.690   5.781  16.737 -1.5988  1.3936  2.6634
15673TIP3    H268435   2.817   5.859  16.712  0.1147 -2.6182 -3.3546
15674TIP3   OH268436   6.077   6.190   3.642 -0.0255  0.7272  0.0573
15674TIP3    H168437   6.171   6.207   3.631 -0.4693  2.7365 -1.1350
15674TIP3    H268438   6.068   6.166   3.734  1.6919  0.1833  0.1267
15675TIP3   OH268439   2.625   2.350  12.276 -0.1335 -0.0077 -0.7246
15675TIP3    H168440   2.573   2.334  12.355  1.2811 -1.2699  0.0003
15675TIP3    H268441   2.566   2.397  12.218 -2.5963 -2.5956 -0.5400
15676TIP3   OH268442   1.739   5.487   5.897 -0.3651  0.0286 -0.5297
15676TIP3    H168443   1.827   5.489   5.934 -0.4745  1.7398 -0.3191
15676TIP3    H268444   1.696   5.414   5.943  1.0784 -1.2192 -1.0589
15677TIP3   OH268445   3.286   4.996  12.758  0.1480  0.1998 -0.0659
15677TIP3    H168446   3.264   5.016  12.849  0.7473  0.9586 -0.0729
15677TIP3    H268447   3.276   5.079  12.712  2.1062  0.4079 -0.2196
15678TIP3   OH268448   5.660   6.631   0.357  0.2245  0.0408 -0.6372
15678TIP3    H168449   5.660   6.674   0.271 -1.2713  0.6116 -0.3987
15678TIP3    H268450   5.632   6.699   0.417  3.6037  0.3571  0.7766
15679TIP3   OH268451   1.843   3.068  14.621  0.8158 -0.2949 -0.4690
15679TIP3    H168452   1.889   3.143  14.586  0.5626  0.2006  0.2425
15679TIP3    H268453   1.750   3.086  14.604  0.8063 -0.8913 -1.1317
15680TIP3   OH268454   4.530   6.119  15.299 -0.1847 -0.4152 -0.0872
15680TIP3    H168455   4.591   6.065  15.250 -0.2591 -2.6199  2.1063
15680TIP3    H268456   4.585   6.169  15.360 -0.3704 -0.2724 -0.0341
15681TIP3   OH268457   3.714   5.457   2.430 -0.3275 -0.5405 -0.2225
15681TIP3    H168458   3.666   5.431   2.509  0.0635  1.6296  0.8042
15681TIP3    H268459   3.806   5.454   2.456 -0.2422  1.3143 -0.1705
15682TIP3   OH268460   0.864   6.293   5.079 -0.2138  0.3646  0.1533
15682TIP3    H168461   0.829   6.358   5.140 -0.0199 -0.0226  0.6915
15682TIP3    H268462   0.849   6.330   4.993 -0.3289  1.0120  0.4451
15683TIP3   OH268463   0.116   1.791  15.108 -0.1731  0.6464 -0.3269
15683TIP3    H168464   0.107   1.705  15.149 -1.7563  1.6645  1.6228
15683TIP3    H268465   0.153   1.847  15.176 -0.3242  1.8070 -1.1523
15684TIP3   OH268466   0.816   0.808  15.222  0.6673 -0.1441 -0.1399
15684TIP3    H168467   0.805   0.886  15.167  0.0954  0.5310  0.8925
15684TIP3    H268468   0.752   0.819  15.292  1.7977 -0.6562  1.0192
15685TIP3   OH268469   0.581   2.684   3.067  0.7643  0.8095  0.0650
15685TIP3    H168470   0.648   2.621   3.091 -0.0974 -0.3589 -0.5407
15685TIP3    H268471   0.509   2.666   3.127  1.0508  2.2356  0.8978
15686TIP3   OH268472   3.159   4.321  16.679 -0.8573  0.1612  0.0879
15686TIP3    H168473   3.221   4.269  16.629 -0.6328  1.6642 -1.2600
15686TIP3    H268474   3.077   4.272  16.673 -0.5266 -0.3168 -0.6644
15687TIP3   OH268475   5.254   1.202   4.751  0.4627 -0.4272  0.5101
15687TIP3    H168476   5.349   1.218   4.748  0.1679  2.4308  2.5219
15687TIP3    H268477   5.218   1.262   4.686 -0.0739 -0.1902  1.0235
15688TIP3   OH268478   0.114   1.308   3.727 -0.1417 -0.4343  0.4344
15688TIP3    H168479   0.019   1.312   3.735 -0.0158  1.2181  1.5582
15688TIP3    H268480   0.144   1.398   3.740  1.5905 -0.9269  0.1831
15689TIP3   OH268481   1.350   5.834   1.603  0.0195 -1.2874  0.7966
15689TIP3    H168482   1.339   5.848   1.509 -0.7730  0.5936  1.1085
15689TIP3    H268483   1.324   5.743   1.617 -0.7610 -1.3295 -0.6629
15690TIP3   OH268484   3.325   5.816   4.236 -0.1550  0.4862  0.4790
15690TIP3    H168485   3.273   5.885   4.196 -3.2525 -1.6109  0.5620
15690TIP3    H268486   3.264   5.769   4.292  1.4009 -3.1048 -0.5439
15691TIP3   OH268487   1.270   6.513   4.076  0.0654  0.4710  0.2963
15691TIP3    H168488   1.325   6.554   4.009  1.0074  1.6991  1.7604
15691TIP3    H268489   1.180   6.527   4.046  0.4246 -1.8658 -2.3182
15692TIP3   OH268490   0.659   3.850  11.527 -0.1422  0.3365  0.1292
15692TIP3    H168491   0.577   3.861  11.480 -0.6518  0.1879  0.9680
15692TIP3    H268492   0.633   3.834  11.617  0.7467 -1.6438  0.0768
15693TIP3   OH268493   4.671   0.793   5.640  0.0408  0.6775  0.4515
15693TIP3    H168494   4.732   0.834   5.579  0.1462  4.0496  2.5233
15693TIP3    H268495   4.715   0.712   5.667  3.4660  2.5828  1.3154
15694TIP3   OH268496   6.416   3.023  14.768  0.3685 -0.4676 -0.3588
15694TIP3    H168497   6.387   3.018  14.677 -0.0149  1.0817 -0.3437
15694TIP3    H268498   6.340   3.056  14.815  0.9086 -0.2147  0.3480
15695TIP3   OH268499   5.866   3.311   3.534 -0.3312 -0.1978  0.0724
15695TIP3    H168500   5.925   3.384   3.517 -0.1538 -0.5638 -0.9248
15695TIP3    H268501   5.914   3.234   3.505 -1.0908 -0.5497 -0.2794
15696TIP3   OH268502   4.715   0.640   4.759  0.4410 -0.4349 -0.0789
15696TIP3    H168503   4.671   0.724   4.746 -0.4751 -0.8525  0.2686
15696TIP3    H268504   4.735   0.609   4.670  0.2902 -0.1074 -0.2275
15697TIP3   OH268505   2.658   5.750  16.480 -0.4078  0.8100  0.3660
15697TIP3    H168506   2.611   5.833  16.468 -1.4067 -0.0191 -2.0084
15697TIP3    H268507   2.734   5.774  16.533  0.1411  3.5673 -1.4433
15698TIP3   OH268508   2.638   4.296  15.055 -0.0381 -0.4188  0.1201
15698TIP3    H168509   2.601   4.208  15.058 -1.5265  0.1906  0.4321
15698TIP3    H268510   2.674   4.310  15.143 -0.9662 -0.2524  0.4851
15699TIP3   OH268511   0.669   5.578  11.916  0.0297  0.1306  0.0501
15699TIP3    H168512   0.722   5.651  11.949  1.8912 -0.7764 -0.7807
15699TIP3    H268513   0.590   5.619  11.883  0.4757  1.6371  0.7564
15700TIP3   OH268514   0.841   4.878   4.506 -0.0509 -0.4484 -0.3563
15700TIP3    H168515   0.828   4.960   4.459  0.9456 -0.1089 -0.0633
15700TIP3    H268516   0.756   4.859   4.546 -0.7888 -0.5186 -1.9097
15701TIP3   OH268517   3.022   0.950   3.947 -0.3756  0.1553  0.2369
15701TIP3    H168518   2.970   0.991   4.016  0.0181 -0.6641  1.0400
15701TIP3    H268519   3.024   0.857   3.970 -0.1413 -0.1141 -0.8212
15702TIP3   OH268520   2.987   4.566   1.804  0.3731 -0.5802 -0.2004
15702TIP3    H168521   3.033   4.641   1.766  2.1044 -1.5409 -0.1215
15702TIP3    H268522   2.976   4.505   1.731 -0.4828 -0.5109 -0.1369
15703TIP3   OH268523   2.183   2.864   1.189  0.3469 -0.2784  0.2218
15703TIP3    H168524   2.202   2.771   1.173  0.6373 -0.2622  0.4718
15703TIP3    H268525   2.101   2.863   1.238 -1.2275 -0.2945 -2.1997
15704TIP3   OH268526   5.087   3.802  16.735 -0.0908 -0.3619  0.3712
15704TIP3    H168527   4.999   3.835  16.713  0.9858  2.7955  0.2008
15704TIP3    H268528   5.135   3.880  16.764  2.4143 -2.1391  1.3868
15705TIP3   OH268529   0.361   4.384   2.320 -0.0859 -0.5446  0.2703
15705TIP3    H168530   0.441   4.399   2.370 -0.2884  1.0271  0.1806
15705TIP3    H268531   0.339   4.470   2.284 -3.3388 -0.2485  2.5583
15706TIP3   OH268532   5.077   2.130   0.098 -0.2196  0.2575  0.5728
15706TIP3    H168533   4.990   2.089   0.102 -1.0363  1.4955 -2.3154
15706TIP3    H268534   5.063   2.220   0.127  0.1845  0.3682  0.4322
15707TIP3   OH268535   1.494   4.148  13.557  0.1375 -0.0097 -0.0839
15707TIP3    H168536   1.533   4.209  13.619 -1.7451  0.9185  0.2547
15707TIP3    H268537   1.500   4.193  13.473  1.3803 -0.6458 -0.3531
15708TIP3   OH268538   1.184   1.047  14.862 -0.4195  0.2845  0.4632
15708TIP3    H168539   1.269   1.069  14.824 -0.1486 -0.4519  0.6233
15708TIP3    H268540   1.193   1.069  14.955  0.1424 -1.2315  0.7973
15709TIP3   OH268541   2.641   3.038   0.655  0.3716 -0.0984  0.1581
15709TIP3    H168542   2.655   3.071   0.744  1.7615 -1.5795  0.5449
15709TIP3    H268543   2.618   3.116   0.604  2.7565  1.3759  1.1515
15710TIP3   OH268544   2.294   4.932   3.327  0.3249 -0.4238  0.8993
15710TIP3    H168545   2.389   4.922   3.336  0.2659 -1.1401  0.8172
15710TIP3    H268546   2.274   5.012   3.376  1.1454  0.5482 -0.2914
15711TIP3   OH268547   3.693   3.571  12.842  0.2953  0.7300 -0.7884
15711TIP3    H168548   3.769   3.524  12.810 -0.8884 -1.2417 -0.8873
15711TIP3    H268549   3.660   3.517  12.914  0.1804  2.6397  0.6875
15712TIP3   OH268550   2.975   2.800   4.208  0.7879  0.4102 -0.1850
15712TIP3    H168551   2.917   2.860   4.161 -0.5575  0.6685  1.6670
15712TIP3    H268552   3.042   2.856   4.246 -0.9297  0.9993  2.2359
15713TIP3   OH268553   2.142   4.668  15.695 -0.1483 -0.1799 -0.0390
15713TIP3    H168554   2.184   4.587  15.665  0.0942  0.2879 -1.0099
15713TIP3    H268555   2.124   4.717  15.614 -1.6585  0.0774  0.4199
15714TIP3   OH268556   1.238   4.239  17.255 -0.3848  0.2272  0.0428
15714TIP3    H168557   1.189   4.261  17.176  1.0440  0.4039 -0.8466
15714TIP3    H268558   1.290   4.318  17.272 -0.7641  0.2309  1.2389
15715TIP3   OH268559   3.219   0.333  17.075 -0.4888  0.3390 -1.1974
15715TIP3    H168560   3.296   0.351  17.129 -1.3728 -1.7004  0.8956
15715TIP3    H268561   3.192   0.419  17.042  0.6186  1.5733  0.9076
15716TIP3   OH268562   4.333   2.769   3.932 -0.3316  0.7823 -0.2293
15716TIP3    H168563   4.311   2.859   3.906  0.2496  0.6908 -1.0593
15716TIP3    H268564   4.427   2.762   3.915 -0.1173  0.4049  1.0125
15717TIP3   OH268565   1.947   2.991   4.527  0.0908 -0.4878  0.1378
15717TIP3    H168566   1.934   2.920   4.464  2.3022 -0.0721 -0.8875
15717TIP3    H268567   2.016   2.959   4.585  2.0730  1.2154 -1.1336
15718TIP3   OH268568   2.337   6.183  10.601  0.2017  0.2424  0.2410
15718TIP3    H168569   2.350   6.266  10.555 -0.5239  0.7793  0.9701
15718TIP3    H268570   2.394   6.189  10.678  0.9996 -0.4203 -0.2881
15719TIP3   OH268571   4.835   5.983  13.808  0.0601 -0.5888  0.5809
15719TIP3    H168572   4.864   6.071  13.833  1.6390 -0.7004 -0.7306
15719TIP3    H268573   4.741   5.983  13.827  0.5511  0.3559  3.4186
15720TIP3   OH268574   1.666   4.382   3.406 -0.7711 -0.0987  0.1051
15720TIP3    H168575   1.630   4.381   3.318  0.8106 -0.3138 -0.5780
15720TIP3    H268576   1.757   4.354   3.395 -0.7464 -0.8503  1.9084
15721TIP3   OH268577   5.346   5.772   0.280  0.2388 -0.0227  0.3669
15721TIP3    H168578   5.417   5.716   0.250 -0.5905 -0.5214 -0.7153
15721TIP3    H268579   5.387   5.857   0.294  0.7419  0.1978 -2.0234
15722TIP3   OH268580   2.190   4.177  16.013 -0.1559 -0.2953 -0.4537
15722TIP3    H168581   2.224   4.176  15.924 -0.1985 -0.2622 -0.4704
15722TIP3    H268582   2.265   4.155  16.069 -0.1039 -0.2053 -0.4879
15723TIP3   OH268583   0.297   0.930  11.290  0.4991  0.0187  0.3653
15723TIP3    H168584   0.291   1.007  11.347  0.3511  0.0445  0.3142
15723TIP3    H268585   0.384   0.893  11.309 -0.1410 -0.8611  1.7399
15724TIP3   OH268586   4.933   2.350   2.962 -0.0167  0.0266 -0.2451
15724TIP3    H168587   4.863   2.389   3.015  0.6953  0.2019  0.5870
15724TIP3    H268588   4.934   2.401   2.882 -0.1588  0.6818  0.1670
15725TIP3   OH268589   3.070   5.439   3.533 -0.2719 -0.1439  0.2518
15725TIP3    H168590   3.071   5.399   3.620 -2.3607  0.6185  0.7026
15725TIP3    H268591   2.977   5.451   3.514  0.1906  2.3708 -0.8161
15726TIP3   OH268592   5.043   3.336   5.032  0.0393  0.0539  0.6209
15726TIP3    H168593   5.078   3.249   5.011  0.2948  0.2939  0.0505
15726TIP3    H268594   5.054   3.387   4.952  1.7355  1.2320  1.5377
15727TIP3   OH268595   2.400   3.997  16.756  0.1767 -0.0327  0.3107
15727TIP3    H168596   2.311   4.030  16.745  0.0794 -0.1822  0.6549
15727TIP3    H268597   2.447   4.068  16.799  0.4286  0.3549 -0.5793
15728TIP3   OH268598   1.124   3.345   2.868  0.3918  0.1368  0.7681
15728TIP3    H168599   1.163   3.405   2.931  1.2094  0.3576  0.0713
15728TIP3    H268600   1.114   3.263   2.916  0.5674  0.4305  1.3185
15729TIP3   OH268601   2.753   4.861   1.722  0.1434  0.4764 -0.2077
15729TIP3    H168602   2.673   4.810   1.735  0.7954 -0.4410  0.3696
15729TIP3    H268603   2.740   4.905   1.638 -0.7234 -0.1193 -0.3994
15730TIP3   OH268604   5.654   5.194   7.114 -0.3323  0.3521 -0.5713
15730TIP3    H168605   5.723   5.128   7.116  1.4086  2.1055  0.9014
15730TIP3    H268606   5.618   5.194   7.203 -0.9074  0.7898 -0.7960
15731TIP3   OH268607   1.001   1.822   6.023 -0.2470  0.8387 -0.2693
15731TIP3    H168608   1.041   1.736   6.008  0.6492  1.4563 -1.7088
15731TIP3    H268609   0.912   1.813   5.990 -0.7174  0.0217  1.1127
15732TIP3   OH268610   4.119   0.653   0.098 -0.3967  0.2833 -0.5893
15732TIP3    H168611   4.165   0.734   0.120 -0.9643  0.6201 -0.6074
15732TIP3    H268612   4.155   0.587   0.157 -3.3146  1.5498  2.9680
15733TIP3   OH268613   3.045   4.540  16.834  0.2039 -0.1885  0.2151
15733TIP3    H168614   3.099   4.461  16.833 -2.0728 -1.9037 -3.2046
15733TIP3    H268615   3.000   4.538  16.919  0.1970 -2.5899  0.2012
15734TIP3   OH268616   2.255   3.134   6.505  0.2560 -0.8231  0.1820
15734TIP3    H168617   2.213   3.052   6.479 -1.1316 -0.1073  0.0886
15734TIP3    H268618   2.230   3.146   6.597 -0.2475 -0.1097 -0.0363
15735TIP3   OH268619   0.021   1.499  16.347  0.3928 -0.0507 -0.6159
15735TIP3    H168620   0.007   1.409  16.317 -2.2088  0.6187 -1.6536
15735TIP3    H268621  -0.007   1.554  16.273  0.0668  1.6315  0.6990
15736TIP3   OH268622   2.211   1.003   5.284  0.2888 -0.2367  0.5033
15736TIP3    H168623   2.214   0.990   5.189  0.1484 -0.4465  0.5258
15736TIP3    H268624   2.261   1.083   5.300 -0.0278  0.0206  0.2104
15737TIP3   OH268625   2.047   2.153   3.350 -0.5615 -0.6188 -0.1682
15737TIP3    H168626   2.103   2.228   3.372 -1.4619 -0.1893  0.7656
15737TIP3    H268627   1.969   2.193   3.312 -0.9602 -1.0835  0.1492
15738TIP3   OH268628   1.317   3.861  15.887  0.0886  0.4109  0.2248
15738TIP3    H168629   1.335   3.911  15.807  0.4434  1.2265  0.7955
15738TIP3    H268630   1.380   3.789  15.885 -0.1275  0.2321 -0.3868
15739TIP3   OH268631   5.535   4.786  16.684 -0.5259 -0.2361  0.6862
15739TIP3    H168632   5.462   4.750  16.736 -1.3145 -0.0631 -0.2674
15739TIP3    H268633   5.548   4.721  16.615  0.0670 -0.1400  0.7070
15740TIP3   OH268634   2.748   1.056   3.750  0.3225  0.7293 -0.2145
15740TIP3    H168635   2.771   1.061   3.658  1.8601 -1.0435  0.0217
15740TIP3    H268636   2.754   0.963   3.772 -0.1981  1.0759  1.6410
15741TIP3   OH268637   0.655   6.061  14.123  0.3974  0.4937 -0.4502
15741TIP3    H168638   0.745   6.092  14.135 -0.2154  2.0059  0.4625
15741TIP3    H268639   0.601   6.140  14.126 -1.0700 -0.4745  0.0155
15742TIP3   OH268640   5.589   2.541  13.593 -0.0714  0.4920  0.0308
15742TIP3    H168641   5.507   2.534  13.641  0.7436  0.0095  1.4171
15742TIP3    H268642   5.593   2.462  13.539 -0.9479  0.9884 -0.7960
15743TIP3   OH268643   4.852   1.609   1.337 -0.2281  0.3871 -0.1445
15743TIP3    H168644   4.851   1.686   1.394 -1.3594 -1.0370  1.8791
15743TIP3    H268645   4.767   1.567   1.351  0.7182 -1.7634 -0.3905
15744TIP3   OH268646   1.119   6.396  14.409  0.2781  0.7475 -0.2359
15744TIP3    H168647   1.166   6.381  14.327  1.2907 -0.8365  0.5911
15744TIP3    H268648   1.186   6.424  14.471 -0.3297  1.0859  0.2853
15745TIP3   OH268649   1.741   4.660   5.209  0.4759 -0.1203 -0.1574
15745TIP3    H168650   1.789   4.587   5.169  1.3907  0.0407  0.6066
15745TIP3    H268651   1.753   4.733   5.149  0.3022 -0.3666 -0.4909
15746TIP3   OH268652   2.238   1.592  12.461  0.2070  0.0583  0.1597
15746TIP3    H168653   2.289   1.647  12.519  0.2639  0.0548  0.1128
15746TIP3    H268654   2.168   1.649  12.428  0.9059  0.4244 -0.7524
15747TIP3   OH268655   2.631   1.820  11.976  0.1181 -0.0940  0.2003
15747TIP3    H168656   2.706   1.826  12.035  0.8265 -1.0445 -0.5900
15747TIP3    H268657   2.570   1.761  12.021 -1.2085  2.3931  1.9021
15748TIP3   OH268658   6.413   5.543  12.474  0.6104 -0.1356  0.3077
15748TIP3    H168659   6.488   5.602  12.463  0.5470 -0.1370 -0.1307
15748TIP3    H268660   6.450   5.462  12.508  0.9209 -0.4235 -0.6898
15749TIP3   OH268661   0.596   4.636   0.700 -0.0892  0.5187  0.7648
15749TIP3    H168662   0.677   4.670   0.738  0.0925 -0.4638  1.2940
15749TIP3    H268663   0.598   4.664   0.609  1.5717 -0.7246  0.3730
15750TIP3   OH268664   2.359   2.853   4.473 -0.2814 -0.0930 -0.2605
15750TIP3    H168665   2.431   2.795   4.446  1.5551  0.9303  2.1120
15750TIP3    H268666   2.354   2.918   4.403  0.9516 -0.3240 -0.5882
15751TIP3   OH268667   6.245   5.147   1.148  0.2365  0.0902 -0.4427
15751TIP3    H168668   6.183   5.175   1.081 -1.2989  0.5268  1.0791
15751TIP3    H268669   6.190   5.104   1.214  1.9423 -2.3299 -0.4593
15752TIP3   OH268670   5.809   0.876   3.263 -0.1528  0.4341 -0.0128
15752TIP3    H168671   5.784   0.836   3.347  1.2256 -0.0064  0.2024
15752TIP3    H268672   5.796   0.805   3.199  1.1777 -0.0276  0.2030
15753TIP3   OH268673   6.042   6.378   0.320  0.4860 -0.0504 -0.7391
15753TIP3    H168674   6.031   6.470   0.343 -1.3794 -0.6623  1.1843
15753TIP3    H268675   6.067   6.335   0.402 -1.9158 -1.6874 -0.7370
15754TIP3   OH268676   4.544   1.557   1.456 -0.1755  0.0164  0.2843
15754TIP3    H168677   4.602   1.560   1.532  0.8770  3.1682 -0.4792
15754TIP3    H268678   4.528   1.464   1.441  4.1292 -1.0221  0.9532
15755TIP3   OH268679   3.797   0.262   0.375 -0.5851 -0.0210 -0.1042
15755TIP3    H168680   3.856   0.187   0.371 -1.8914 -1.0860 -0.1096
15755TIP3    H268681   3.841   0.330   0.325 -0.1943 -1.3945 -1.7170
15756TIP3   OH268682   1.596   1.165  13.016 -0.3638  0.1287  0.3273
15756TIP3    H168683   1.649   1.223  13.072  1.0239 -0.5612 -0.2225
15756TIP3    H268684   1.564   1.098  13.075  0.9442 -0.4941  0.3701
15757TIP3   OH268685   3.618   4.449   2.033 -0.4614 -0.5453 -0.4756
15757TIP3    H168686   3.602   4.406   1.949  0.4601 -0.0213 -0.9286
15757TIP3    H268687   3.543   4.507   2.045 -0.8035 -0.9343 -0.7304
15758TIP3   OH268688   5.260   5.709   1.165  0.1575 -0.0426 -0.2481
15758TIP3    H168689   5.252   5.615   1.183 -0.6384 -0.1106 -0.9076
15758TIP3    H268690   5.326   5.740   1.228  1.0813 -1.2030 -0.6119
15759TIP3   OH268691   6.664   5.735   4.188 -0.2019 -0.1580 -0.3543
15759TIP3    H168692   6.571   5.748   4.168 -0.0349 -2.2485 -2.9577
15759TIP3    H268693   6.710   5.777   4.115  0.9644  1.1182  1.0580
15760TIP3   OH268694   0.188   4.942   5.047 -0.0194 -0.0579 -0.0990
15760TIP3    H168695   0.218   4.994   5.121 -0.4346  0.8180 -0.5300
15760TIP3    H268696   0.268   4.909   5.006  0.3915  1.8107 -0.9267
15761TIP3   OH268697   3.460   0.616   4.923  0.1709 -0.3476 -0.3612
15761TIP3    H168698   3.518   0.681   4.962  0.8596 -1.8204  1.2152
15761TIP3    H268699   3.380   0.664   4.902  0.3644  0.8421  1.4637
15762TIP3   OH268700   3.180   0.691  12.859 -0.1681 -0.1117 -0.2976
15762TIP3    H168701   3.135   0.762  12.813 -0.9565 -1.2838 -1.4562
15762TIP3    H268702   3.265   0.685  12.816  0.4034  0.9350  0.6624
15763TIP3   OH268703   6.681   5.927   4.798 -0.3538 -0.1485 -0.2651
15763TIP3    H168704   6.607   5.975   4.835 -0.5596  0.9773 -2.0602
15763TIP3    H268705   6.642   5.846   4.764 -0.6360  0.0843 -0.5031
15764TIP3   OH268706   5.317   0.323   2.412  0.3090  0.4536 -0.1861
15764TIP3    H168707   5.286   0.232   2.416 -0.1728  0.6190 -0.1989
15764TIP3    H268708   5.255   0.367   2.354  1.4800  0.4159 -1.5209
15765TIP3   OH268709   0.678   3.246  11.951  0.7161 -0.3652  0.1747
15765TIP3    H168710   0.768   3.216  11.953  0.6622 -0.4661  1.2382
15765TIP3    H268711   0.677   3.325  12.005 -0.4721 -2.2176  3.0724
15766TIP3   OH268712   3.016   1.980   0.060 -0.1579 -0.3014  0.2279
15766TIP3    H168713   3.001   1.911   0.123  0.7897 -0.9374 -0.2140
15766TIP3    H268714   3.087   2.032   0.098  0.1061 -0.4194 -0.1028
15767TIP3   OH268715   5.184   5.663   0.054 -0.5467  0.0777  0.1431
15767TIP3    H168716   5.234   5.684  -0.025 -1.9918 -0.5852 -0.9822
15767TIP3    H268717   5.208   5.733   0.116  0.7499  0.5101 -0.7940
15768TIP3   OH268718   1.634   5.922   2.142  0.2299  0.0906  0.3207
15768TIP3    H168719   1.619   5.841   2.093  1.6821 -0.1752  0.2673
15768TIP3    H268720   1.546   5.955   2.161 -0.4907 -2.4123  1.8783
15769TIP3   OH268721   2.784   3.362  14.743  0.1304 -1.0384  0.6402
15769TIP3    H168722   2.758   3.344  14.653  0.4229 -3.8151  0.9990
15769TIP3    H268723   2.837   3.441  14.738  0.4833 -1.3483 -1.7011
15770TIP3   OH268724   6.535   5.219  15.866 -0.1259 -0.9625  0.0345
15770TIP3    H168725   6.561   5.127  15.871  0.5648 -0.7999 -0.4477
15770TIP3    H268726   6.511   5.242  15.956 -1.9128 -2.0618 -0.1121
15771TIP3   OH268727   3.447   1.602   4.988 -0.1955  0.4528  0.4878
15771TIP3    H168728   3.528   1.598   4.937  0.5362 -1.1031  1.6954
15771TIP3    H268729   3.476   1.625   5.077 -0.9584 -0.9863  1.1328
15772TIP3   OH268730   0.084   1.962  17.510  0.4809  0.3616  0.5785
15772TIP3    H168731   0.018   1.910  17.464 -0.3247  2.2283 -0.5120
15772TIP3    H268732   0.166   1.938  17.467 -0.0372  0.8205 -0.7420
15773TIP3   OH268733   4.797   5.547   1.516  0.0005 -0.2424 -0.1602
15773TIP3    H168734   4.768   5.522   1.604  2.1163 -0.4254  0.5539
15773TIP3    H268735   4.772   5.473   1.461 -1.2681 -0.1668  0.2960
15774TIP3   OH268736   3.270   1.710  11.940 -0.2883  0.2947 -0.1333
15774TIP3    H168737   3.222   1.758  12.007 -0.3794  0.2639 -0.1765
15774TIP3    H268738   3.286   1.774  11.871 -1.3866 -0.0049 -0.6939
15775TIP3   OH268739   4.892   2.950   5.203 -0.4644  0.9044  0.1231
15775TIP3    H168740   4.879   3.043   5.183  0.0665  1.2342  1.2288
15775TIP3    H268741   4.831   2.931   5.274  0.8732  0.9744  1.3422
15776TIP3   OH268742   4.841   6.075   2.391 -0.4663 -0.5679 -0.2728
15776TIP3    H168743   4.846   6.037   2.304 -1.9035 -2.5838  0.4474
15776TIP3    H268744   4.792   6.156   2.379  1.3833  0.4187 -1.6293
15777TIP3   OH268745   5.497   4.639   3.821  0.0268 -0.3641 -0.3302
15777TIP3    H168746   5.406   4.668   3.817  0.3699  0.5952 -1.8652
15777TIP3    H268747   5.491   4.549   3.854 -1.6063 -0.8063 -1.6700
15778TIP3   OH268748   1.434   3.471   0.261  0.2263  0.4888  0.9772
15778TIP3    H168749   1.356   3.417   0.270  1.2316 -1.0228  1.0366
15778TIP3    H268750   1.409   3.556   0.297 -1.4400  0.1163  0.7874
15779TIP3   OH268751   5.514   5.320  12.272 -0.1520  0.0628 -0.2464
15779TIP3    H168752   5.551   5.400  12.310  0.6181 -1.1949  1.7840
15779TIP3    H268753   5.586   5.279  12.226  0.1542 -0.7503  0.9334
15780TIP3   OH268754   2.919   2.142   0.445 -0.2046 -0.0072  0.2176
15780TIP3    H168755   2.991   2.197   0.414  1.2883 -0.8438  1.9756
15780TIP3    H268756   2.940   2.054   0.412 -0.3114 -0.2954  0.8979
15781TIP3   OH268757   6.685   1.987   0.443 -0.2546  0.3292  0.5061
15781TIP3    H168758   6.741   2.064   0.430 -0.2349  0.6948  2.4437
15781TIP3    H268759   6.672   1.983   0.538 -2.3750 -0.5681  0.2274
15782TIP3   OH268760   2.618   3.384   2.328  0.2167  0.0480 -0.1064
15782TIP3    H168761   2.701   3.423   2.302  0.9273 -1.5331 -0.3488
15782TIP3    H268762   2.615   3.301   2.280  0.0380 -1.4355  2.3047
15783TIP3   OH268763   4.410   3.959  12.535  0.0520 -0.4373 -0.0490
15783TIP3    H168764   4.354   3.926  12.464 -0.9394 -0.9842  0.9584
15783TIP3    H268765   4.365   4.037  12.567 -1.0461 -1.7892  1.8426
15784TIP3   OH268766   1.167   3.539   0.071 -0.3193  0.0629 -0.4022
15784TIP3    H168767   1.179   3.447   0.095 -1.4205 -0.1008 -0.4251
15784TIP3    H268768   1.077   3.559   0.096 -1.0726  0.3061 -3.0569
15785TIP3   OH268769   1.508   6.546   4.207 -1.0270  0.5007 -0.0249
15785TIP3    H168770   1.560   6.505   4.137 -0.2407  0.1064  0.7578
15785TIP3    H268771   1.423   6.504   4.201 -0.6471 -0.2826 -0.1043
15786TIP3   OH268772   2.443   5.208   3.252 -0.1686  0.0278  0.1315
15786TIP3    H168773   2.490   5.127   3.275  0.9418  0.0884 -1.6960
15786TIP3    H268774   2.354   5.179   3.233 -0.0783 -0.5964  0.6262
15787TIP3   OH268775   1.240   3.756   5.403 -0.8456 -0.6552  0.4384
15787TIP3    H168776   1.245   3.839   5.451  0.7448 -1.2261  1.3274
15787TIP3    H268777   1.288   3.772   5.322  0.3642 -0.9728  1.0680
15788TIP3   OH268778   1.379   1.629  14.159  0.0382  0.4281 -0.0169
15788TIP3    H168779   1.420   1.712  14.183  1.1474  0.2958 -1.3233
15788TIP3    H268780   1.311   1.653  14.096  2.0250  0.2316 -2.4050
15789TIP3   OH268781   2.726   3.839  13.045 -0.0152 -0.6764  0.0322
15789TIP3    H168782   2.675   3.920  13.045  0.6606 -0.2269  0.9315
15789TIP3    H268783   2.759   3.831  12.956 -0.2182 -0.0377 -0.1022
15790TIP3   OH268784   3.619   1.468  15.233  0.2943  0.1236 -0.7991
15790TIP3    H168785   3.595   1.554  15.267 -0.7725 -0.2131 -0.6676
15790TIP3    H268786   3.715   1.468  15.233  0.3980  0.0526  2.4367
15791TIP3   OH268787   5.983   1.917   4.919 -0.2233 -0.0857 -0.3064
15791TIP3    H168788   5.918   1.933   4.988 -0.6166  0.0734 -0.7019
15791TIP3    H268789   6.053   1.868   4.962 -0.2097  0.4737  0.3323
15792TIP3   OH268790   3.504   0.063  14.568 -0.2277 -0.2438 -0.1577
15792TIP3    H168791   3.484   0.032  14.656  0.1398  1.5604  0.5929
15792TIP3    H268792   3.527  -0.017  14.520  0.0381 -1.2152  1.4894
15793TIP3   OH268793   5.455   0.565  14.799  0.3581  0.6067  0.5208
15793TIP3    H168794   5.376   0.591  14.753  0.6800  1.5077  0.4611
15793TIP3    H268795   5.479   0.481  14.759  0.1392  0.9479 -0.3425
15794TIP3   OH268796   4.083   6.656  11.050 -0.2514  0.1763 -0.0440
15794TIP3    H168797   4.110   6.730  10.995  0.4814 -0.9135 -1.2310
15794TIP3    H268798   4.070   6.584  10.987  2.9632 -1.8241  1.2989
15795TIP3   OH268799   0.333   1.910   1.740 -0.1662  0.2503  0.9482
15795TIP3    H168800   0.365   1.840   1.797  0.7508 -0.2560 -0.1357
15795TIP3    H268801   0.330   1.870   1.653 -0.6391  1.2624  0.4871
15796TIP3   OH268802   0.202   5.596  16.792 -0.1931 -0.5486 -0.0213
15796TIP3    H168803   0.249   5.513  16.801  1.1420  0.0193 -1.1814
15796TIP3    H268804   0.234   5.632  16.708  1.1481  2.2446  1.5291
15797TIP3   OH268805   4.573   6.411   3.874  0.3092  0.4328  0.3094
15797TIP3    H168806   4.597   6.488   3.823  0.7185  0.8146  1.0587
15797TIP3    H268807   4.492   6.435   3.917  0.0509  0.1720 -0.0266
15798TIP3   OH268808   5.810   0.065  13.228 -0.0391 -0.4838 -0.2677
15798TIP3    H168809   5.807   0.054  13.323 -0.2912  0.9629 -0.0843
15798TIP3    H268810   5.734   0.016  13.196 -0.0717 -0.8075  0.2872
15799TIP3   OH268811   4.134   0.891   4.387  0.2525 -0.0717  1.0640
15799TIP3    H168812   4.039   0.901   4.397 -0.2752 -2.3576 -0.8338
15799TIP3    H268813   4.162   0.970   4.341 -0.9478  0.0735  0.5456
15800TIP3   OH268814   5.626   6.591   4.134 -0.2590  0.1998 -0.1472
15800TIP3    H168815   5.569   6.526   4.093  0.0022  0.5064 -1.0076
15800TIP3    H268816   5.715   6.561   4.114 -0.1201  0.2098  0.4316
15801TIP3   OH268817   5.340   2.165  13.863 -0.3398  0.3678  0.5128
15801TIP3    H168818   5.328   2.193  13.953  0.5122  1.2701  0.3511
15801TIP3    H268819   5.353   2.070  13.869 -0.0365  0.4576  1.3608
15802TIP3   OH268820   4.850   2.888  15.355 -0.3724  0.1032  0.6934
15802TIP3    H168821   4.891   2.871  15.440  0.1511  1.7632  0.8139
15802TIP3    H268822   4.892   2.827  15.295  2.6665  1.9337  0.7375
15803TIP3   OH268823   3.037   0.576   5.885 -0.1147 -0.0615  0.2971
15803TIP3    H168824   3.101   0.538   5.945 -0.7033 -0.3427  0.7620
15803TIP3    H268825   2.953   0.543   5.916 -0.6474  1.5170  0.6586
15804TIP3   OH268826   6.244   5.735   2.909  0.2798 -0.5495  0.0421
15804TIP3    H168827   6.318   5.713   2.965  0.1427  1.7396  1.2622
15804TIP3    H268828   6.281   5.789   2.839 -0.0116 -0.6403 -0.1857
15805TIP3   OH268829   4.672   5.144  17.588 -0.0171  1.0316 -0.4292
15805TIP3    H168830   4.595   5.098  17.555  0.3375  0.4763 -0.4920
15805TIP3    H268831   4.704   5.089  17.659  0.7293  0.9048 -0.8562
15806TIP3   OH268832   5.819   2.850  14.179  0.1544 -0.4046 -0.6941
15806TIP3    H168833   5.756   2.856  14.108 -0.5159 -0.9085 -0.1650
15806TIP3    H268834   5.900   2.886  14.143 -1.0505  2.7210 -0.6128
15807TIP3   OH268835   0.193   1.926  15.358  0.3308 -0.5032  0.2476
15807TIP3    H168836   0.141   1.889  15.430 -0.9867  0.2293 -0.3065
15807TIP3    H268837   0.268   1.967  15.402  1.3786 -2.9431  0.9557
15808TIP3   OH268838   2.182   1.196  16.213  0.1084 -0.3099  0.1395
15808TIP3    H168839   2.196   1.104  16.239 -1.1654 -0.8046 -0.8091
15808TIP3    H268840   2.097   1.218  16.251  0.2322  0.3593  0.0311
15809TIP3   OH268841   5.850   4.255   5.299  0.0129 -0.6581  0.4905
15809TIP3    H168842   5.863   4.226   5.389 -1.8120 -1.8706  0.4010
15809TIP3    H268843   5.903   4.195   5.247 -1.4118 -2.0322  0.5491
15810TIP3   OH268844   0.363   0.228  17.594 -0.6894 -0.2579  0.1784
15810TIP3    H168845   0.403   0.301  17.548  0.2720 -0.9905 -0.1905
15810TIP3    H268846   0.342   0.164  17.526 -1.7196 -0.2475  0.4680
15811TIP3   OH268847   1.903   3.843  13.671 -0.0068 -0.3897  0.1658
15811TIP3    H168848   1.972   3.856  13.606  0.3369  0.8520  0.7463
15811TIP3    H268849   1.877   3.931  13.697  1.0701 -0.7734  2.9325
15812TIP3   OH268850   2.066   6.006  16.059 -0.3867 -0.0127 -0.1832
15812TIP3    H168851   2.096   6.058  15.985 -2.0996  1.5054  0.1108
15812TIP3    H268852   2.099   6.052  16.136 -1.1733  0.1768  0.0534
15813TIP3   OH268853   0.311   6.591   6.012  0.2401  0.2750 -0.1369
15813TIP3    H168854   0.392   6.637   5.988 -0.7851  1.6662 -1.1182
15813TIP3    H268855   0.286   6.543   5.933  0.3742 -0.5950  0.3350
15814TIP3   OH268856   6.100   4.178  17.390 -0.2303 -0.1226 -0.0941
15814TIP3    H168857   6.111   4.204  17.299 -1.2218  2.9573  0.5598
15814TIP3    H268858   6.006   4.158  17.398 -0.0294 -1.0265  0.1382
15815TIP3   OH268859   3.643   1.811   6.044  0.2387  0.1897  0.2061
15815TIP3    H168860   3.704   1.778   5.978 -0.2861 -0.5582  0.0759
15815TIP3    H268861   3.596   1.733   6.073  0.3683  0.5334  1.3650
15816TIP3   OH268862   4.313   4.394  15.155  0.0062 -0.2482  0.3162
15816TIP3    H168863   4.265   4.327  15.107 -0.5428 -0.5527  1.2712
15816TIP3    H268864   4.298   4.475  15.107  1.4902 -0.9424 -1.4311
15817TIP3   OH268865   6.273   4.341   5.636 -0.1795  0.6598  0.1287
15817TIP3    H168866   6.185   4.366   5.605 -0.4114  0.3001  0.4880
15817TIP3    H268867   6.331   4.363   5.563 -0.7078 -0.0966 -0.5475
15818TIP3   OH268868   5.009   2.961   5.821 -0.1003 -0.4239 -0.4235
15818TIP3    H168869   4.930   2.908   5.826  0.3905 -1.0544  1.0490
15818TIP3    H268870   4.982   3.039   5.772 -1.7533 -0.4093  0.4482
15819TIP3   OH268871   5.300   5.502   6.237  0.0379 -0.4236 -0.2631
15819TIP3    H168872   5.273   5.524   6.326 -0.9332 -3.7226  0.4154
15819TIP3    H268873   5.223   5.458   6.200  0.0451  1.7583 -3.1972
15820TIP3   OH268874   3.804   5.147  15.010  0.4081  0.6850 -0.1741
15820TIP3    H168875   3.876   5.177  14.954 -0.7080  2.4385 -0.7497
15820TIP3    H268876   3.829   5.174  15.098  1.0308  0.1476 -0.1818
15821TIP3   OH268877   1.360   3.001  16.093 -0.7253  0.8550 -0.3700
15821TIP3    H168878   1.394   3.089  16.111  0.0167  0.2727  1.3439
15821TIP3    H268879   1.430   2.959  16.043 -1.3445  1.3921 -1.7549
15822TIP3   OH268880   5.958   1.034   3.060 -0.3297  0.0926  0.0768
15822TIP3    H168881   6.043   0.990   3.047  0.5405  1.8388 -0.4084
15822TIP3    H268882   5.925   0.996   3.142  1.0795 -0.3797  0.4664
15823TIP3   OH268883   6.642   5.321   4.604 -0.2984  0.1627  0.0524
15823TIP3    H168884   6.608   5.232   4.610  1.0808 -0.4271 -0.5362
15823TIP3    H268885   6.580   5.367   4.549 -0.2235 -0.8657 -0.9382
15824TIP3   OH268886   2.899   3.300  11.858 -0.9430 -0.3265 -0.7076
15824TIP3    H168887   2.874   3.209  11.844  0.1273 -0.7318 -0.1010
15824TIP3    H268888   2.879   3.316  11.950 -1.2778  0.1151 -0.8512
15825TIP3   OH268889   6.244   3.463  15.303 -0.4725  0.7955 -0.4442
15825TIP3    H168890   6.276   3.377  15.330 -1.1321  0.6014 -0.2498
15825TIP3    H268891   6.203   3.447  15.218  1.2304  1.3247 -1.4193
15826TIP3   OH268892   4.449   2.482   4.025 -0.3894 -0.0816  0.2290
15826TIP3    H168893   4.464   2.545   3.955 -0.3599 -0.2660  0.0694
15826TIP3    H268894   4.415   2.535   4.098  0.8086  0.3293  0.5274
15827TIP3   OH268895   6.330   1.739  12.860  0.5167  0.9914  0.0264
15827TIP3    H168896   6.393   1.729  12.931  1.6102 -1.3723 -1.1677
15827TIP3    H268897   6.361   1.814  12.810  1.2623  1.0160  0.5163
15828TIP3   OH268898   5.609   5.764   3.616 -0.2458  0.0998  0.5873
15828TIP3    H168899   5.551   5.770   3.691  0.6278 -0.4054  1.3187
15828TIP3    H268900   5.604   5.672   3.589 -0.3643  0.2225  0.1743
15829TIP3   OH268901   2.727   6.584  12.765  0.3122  0.0399 -0.9701
15829TIP3    H168902   2.672   6.508  12.778 -0.6468  0.9472  0.5389
15829TIP3    H268903   2.803   6.551  12.717  0.0532 -1.9120 -0.1216
15830TIP3   OH268904   2.208   6.111  16.553  0.5952 -0.6861  0.0193
15830TIP3    H168905   2.302   6.116  16.570  0.7006 -1.1518 -0.3767
15830TIP3    H268906   2.167   6.118  16.639  0.9174  0.9406  0.0743
15831TIP3   OH268907   3.531   1.479  12.976 -0.1836  0.1276 -0.4093
15831TIP3    H168908   3.545   1.574  12.977 -1.5404  0.3494  0.2664
15831TIP3    H268909   3.465   1.464  13.044 -2.5330 -0.8473 -2.7447
15832TIP3   OH268910   2.111   2.507  17.551  0.1297  0.2228  0.5383
15832TIP3    H168911   2.021   2.493  17.521 -0.0579  1.5705  0.4333
15832TIP3    H268912   2.102   2.532  17.642  0.6097 -2.3189  1.3765
15833TIP3   OH268913   1.650   0.000  13.022 -0.0313 -0.0462  0.2382
15833TIP3    H168914   1.689  -0.056  13.089  0.0187  4.4821  4.5898
15833TIP3    H268915   1.723   0.021  12.963  1.8246  0.7175  2.6048
15834TIP3   OH268916   4.118   0.648   2.919  0.5536  0.1557 -0.2858
15834TIP3    H168917   4.129   0.656   2.824 -0.3424  0.0118 -0.4133
15834TIP3    H268918   4.199   0.606   2.949  0.3833 -0.8473 -1.1479
15835TIP3   OH268919   0.326   4.146  13.390 -0.3584 -0.0286 -0.1070
15835TIP3    H168920   0.400   4.099  13.350  1.1255  0.5776  1.7706
15835TIP3    H268921   0.321   4.228  13.340  1.5248  0.7643  0.8936
15836TIP3   OH268922   6.301   6.536   1.730 -0.4593 -0.3803  0.0130
15836TIP3    H168923   6.236   6.526   1.800 -0.7575  2.0161  0.1667
15836TIP3    H268924   6.249   6.531   1.649 -0.0774 -3.4385 -0.1598
15837TIP3   OH268925   4.644   5.714   4.292 -0.4397  0.2465 -0.2842
15837TIP3    H168926   4.636   5.793   4.347  0.2927  0.9531 -1.1655
15837TIP3    H268927   4.674   5.646   4.352 -0.2791  0.8478  0.3307
15838TIP3   OH268928   4.837   5.514   3.044 -0.4147 -0.3580 -0.2904
15838TIP3    H168929   4.795   5.439   3.086 -1.4495 -0.9230 -2.2212
15838TIP3    H268930   4.926   5.484   3.026 -0.0550 -0.2247  1.1017
15839TIP3   OH268931   5.442   5.971  12.713  1.1339  0.5982 -0.1286
15839TIP3    H168932   5.350   5.945  12.713  1.1675  0.4599  0.5435
15839TIP3    H268933   5.487   5.897  12.672  1.0455  0.2694  0.3570
15840TIP3   OH268934   5.659   6.145  15.262  0.4089 -0.8807  0.0556
15840TIP3    H168935   5.678   6.233  15.293 -2.0341  0.0705 -0.9235
15840TIP3    H268936   5.715   6.133  15.185  0.3206  0.0412 -0.1557
15841TIP3   OH268937   1.589   1.560  15.902 -0.4367  0.1572  0.3495
15841TIP3    H168938   1.677   1.570  15.938 -0.0332  1.4091 -0.9045
15841TIP3    H268939   1.561   1.473  15.931  1.7499 -0.8424 -0.3213
15842TIP3   OH268940   1.121   0.044  11.642  0.1205  0.5764  0.1247
15842TIP3    H168941   1.050   0.100  11.675  0.8674  1.7859 -0.2831
15842TIP3    H268942   1.201   0.093  11.661  0.7183  0.2065 -1.3399
15843TIP3   OH268943   1.343   0.514   4.766  0.2205 -0.1738 -0.3892
15843TIP3    H168944   1.309   0.602   4.751  0.2760 -0.1614 -0.4451
15843TIP3    H268945   1.291   0.458   4.707 -0.3130 -0.2849  0.1823
15844TIP3   OH268946   4.990   5.459  17.301  0.2300  0.6693  0.4159
15844TIP3    H168947   4.925   5.435  17.367  0.5777  0.0335  0.5313
15844TIP3    H268948   4.960   5.416  17.221  0.7259  0.0326  0.5664
15845TIP3   OH268949   6.637   5.689  17.446  0.2574  0.0480  0.0825
15845TIP3    H168950   6.717   5.643  17.470  0.5295 -0.0237 -0.9276
15845TIP3    H268951   6.596   5.712  17.530  1.1587 -0.2054  0.6006
15846TIP3   OH268952   1.230   2.300  13.676 -0.0691  0.1584 -0.3435
15846TIP3    H168953   1.226   2.205  13.666  1.1543  0.0847 -0.3622
15846TIP3    H268954   1.197   2.316  13.765 -0.7703 -0.2307 -0.5318
15847TIP3   OH268955   0.974   4.117  16.134 -0.1530 -0.1866 -0.1218
15847TIP3    H168956   1.040   4.111  16.203  0.0463 -1.4910 -0.3898
15847TIP3    H268957   1.014   4.071  16.059 -1.5842 -1.5426 -0.0954
15848TIP3   OH268958   1.458   3.672   2.665  0.6196  0.2201 -0.4962
15848TIP3    H168959   1.439   3.744   2.725  1.8388 -1.4204  1.9807
15848TIP3    H268960   1.407   3.694   2.586 -2.7136  1.4976  1.7525
15849TIP3   OH268961   5.998   0.279  13.289  0.0658  0.0065  0.1723
15849TIP3    H168962   6.012   0.236  13.373 -0.6766 -0.9470 -0.1706
15849TIP3    H268963   5.918   0.240  13.255 -0.7728  1.8457 -0.0661
15850TIP3   OH268964   4.140   5.671   5.656  0.1671  0.5253  0.4220
15850TIP3    H168965   4.086   5.726   5.599  1.6396 -0.9745 -2.6578
15850TIP3    H268966   4.205   5.731   5.693  0.1979  1.2922 -0.8317
15851TIP3   OH268967   1.087   6.106   4.800 -0.1731  0.3149 -0.5328
15851TIP3    H168968   1.064   6.095   4.892  1.1095  2.3528  0.1061
15851TIP3    H268969   1.137   6.028   4.778  2.5709  1.3206  1.5954
15852TIP3   OH268970   2.793   3.815  14.526 -0.2346 -0.5614  0.3229
15852TIP3    H168971   2.705   3.834  14.557 -0.8402  0.1812 -1.6891
15852TIP3    H268972   2.832   3.901  14.508 -0.0282 -0.9247 -1.1268
15853TIP3   OH268973   1.764   6.207   2.051 -0.7549  0.4486  0.7070
15853TIP3    H168974   1.715   6.135   2.010  2.2730 -0.5549 -1.4556
15853TIP3    H268975   1.781   6.269   1.980 -2.3250  2.8937  2.2942
15854TIP3   OH268976   3.371   5.720  13.848  0.4686  0.3353 -0.1266
15854TIP3    H168977   3.352   5.786  13.781  0.7898  1.0386  0.4623
15854TIP3    H268978   3.371   5.637  13.801 -0.6611  0.6728 -0.7583
15855TIP3   OH268979   5.990   5.628   0.981  0.2239 -0.6101 -0.1567
15855TIP3    H168980   5.941   5.589   1.054  0.9606 -0.8593  0.2173
15855TIP3    H268981   5.971   5.571   0.906  0.9527 -1.4691  0.2851
15856TIP3   OH268982   6.408   4.457  11.265  0.3295  0.0999  0.2687
15856TIP3    H168983   6.412   4.530  11.203  0.8273  0.9682  1.3101
15856TIP3    H268984   6.332   4.476  11.320  0.8748  0.2176  1.0000
15857TIP3   OH268985   2.965   2.155   1.114  0.3376 -0.3036 -0.0551
15857TIP3    H168986   3.002   2.187   1.032  1.3652 -2.7378 -0.6099
15857TIP3    H268987   2.872   2.143   1.096  0.6095 -1.1068 -0.9911
15858TIP3   OH268988   4.569   4.498   1.780  0.1489 -0.4064  0.0017
15858TIP3    H168989   4.480   4.522   1.806  0.3621  1.8406 -1.1510
15858TIP3    H268990   4.571   4.510   1.685  1.5310 -1.0049 -0.0685
15859TIP3   OH268991   0.034   3.531  16.223 -0.2480 -0.2160  0.2677
15859TIP3    H168992  -0.012   3.572  16.150 -0.6501 -0.4250  0.4011
15859TIP3    H268993   0.097   3.597  16.252 -0.0133 -0.1693 -0.3345
15860TIP3   OH268994   0.335   3.940  15.765 -0.6441  0.1097 -0.6786
15860TIP3    H168995   0.240   3.938  15.753 -0.7370  0.1362  0.0146
15860TIP3    H268996   0.347   3.976  15.852  0.0549  1.3665 -1.2675
15861TIP3   OH268997   2.694   4.503  13.446  0.2587  0.2216  0.1761
15861TIP3    H168998   2.656   4.428  13.493 -0.9497 -0.4447 -1.7282
15861TIP3    H268999   2.788   4.494  13.459  0.0131 -0.2124  1.9890
15862TIP3   OH269000   6.327   2.167   2.329 -0.8911 -0.3622  0.2442
15862TIP3    H169001   6.339   2.073   2.320  0.5316 -0.0573 -1.6264
15862TIP3    H269002   6.391   2.193   2.395 -1.7458 -0.7504  1.2643
15863TIP3   OH269003   0.193   4.195   2.482  0.1644  0.0867 -0.2443
15863TIP3    H169004   0.251   4.124   2.454  0.8625  0.8358 -0.7581
15863TIP3    H269005   0.215   4.268   2.424 -1.5658  0.2843 -0.6948
15864TIP3   OH269006   1.333   2.670  15.980 -0.4332  0.5366 -0.1434
15864TIP3    H169007   1.264   2.701  16.038 -1.5327 -2.3868  0.3226
15864TIP3    H269008   1.286   2.629  15.907  0.8696  0.7617 -1.1509
15865TIP3   OH269009   3.440   2.486   1.455 -0.0427  0.2341  0.3647
15865TIP3    H169010   3.492   2.409   1.479  1.2575  1.2872  1.0402
15865TIP3    H269011   3.385   2.456   1.382  0.6540 -1.2358  0.4104
15866TIP3   OH269012   1.709   5.237   4.955 -0.6064 -0.1046  0.0478
15866TIP3    H169013   1.634   5.243   5.014 -0.5743 -0.2749  0.1060
15866TIP3    H269014   1.736   5.328   4.942 -2.5924  0.2726 -2.2464
15867TIP3   OH269015   3.831   3.957   0.445 -0.4000 -0.1661  0.6056
15867TIP3    H169016   3.777   4.021   0.491 -0.9542  2.2141 -2.9744
15867TIP3    H269017   3.915   4.002   0.432 -0.4353 -0.5217 -1.0574
15868TIP3   OH269018   6.599   0.509   3.231  0.0889 -0.1638 -0.6364
15868TIP3    H169019   6.548   0.462   3.164  0.2252  1.9794 -2.3336
15868TIP3    H269020   6.547   0.586   3.251  0.8078  0.0148  0.6168
15869TIP3   OH269021   4.743   6.671   0.953  0.0351  0.5137  0.1289
15869TIP3    H169022   4.720   6.579   0.943  0.5385  0.3161  0.7032
15869TIP3    H269023   4.837   6.675   0.935 -0.5072  1.4842 -3.2713
15870TIP3   OH269024   3.276   1.290  11.780  0.1997  0.3356  0.0296
15870TIP3    H169025   3.275   1.257  11.690  3.0860  0.9049 -0.3014
15870TIP3    H269026   3.237   1.220  11.832 -1.0191 -0.2346 -1.5636
15871TIP3   OH269027   0.364   2.066  15.521 -0.0172  0.1276  0.3517
15871TIP3    H169028   0.415   2.069  15.602  1.0673 -1.1696 -0.2390
15871TIP3    H269029   0.362   2.157  15.491  1.1271  0.3644  0.9014
15872TIP3   OH269030   4.345   4.843  13.867 -0.1654  0.1545 -0.2236
15872TIP3    H169031   4.389   4.841  13.952 -0.0807  2.1189 -0.1742
15872TIP3    H269032   4.412   4.873  13.806 -0.2487 -1.1680 -0.9989
15873TIP3   OH269033   3.015   0.037   6.285  0.1153 -0.4572  0.3508
15873TIP3    H169034   3.054   0.087   6.212 -0.4311  0.0414  0.3981
15873TIP3    H269035   3.086   0.032   6.350  0.7446 -1.2562 -0.3705
15874TIP3   OH269036   6.154   3.037   5.463  0.3060  0.0223  0.0823
15874TIP3    H169037   6.062   3.025   5.440  0.6912 -0.7621 -1.1791
15874TIP3    H269038   6.152   3.074   5.551 -1.2348  1.2669 -0.4172
15875TIP3   OH269039   5.139   4.044   3.176  0.1725  0.2681  0.5531
15875TIP3    H169040   5.086   4.026   3.099  0.6753 -2.0958  0.6614
15875TIP3    H269041   5.126   3.967   3.232  3.2650 -0.1971  0.8018
15876TIP3   OH269042   3.532   5.035   0.322  0.0033  0.0813  0.0148
15876TIP3    H169043   3.445   5.000   0.303  0.8975 -0.9366 -2.7434
15876TIP3    H269044   3.536   5.117   0.273  0.7458 -0.1214 -0.2742
15877TIP3   OH269045   4.792   5.973  17.443  0.1396 -0.9472  0.0916
15877TIP3    H169046   4.805   6.044  17.505 -1.8176 -0.7766  0.3731
15877TIP3    H269047   4.847   5.902  17.476  2.2289  0.4153 -0.2662
15878TIP3   OH269048   0.057   2.876   0.801 -0.1816  0.7686  0.0704
15878TIP3    H169049   0.101   2.928   0.869 -0.0699 -0.0253  0.6285
15878TIP3    H269050  -0.032   2.911   0.798 -0.8854 -0.6216  2.2651
15879TIP3   OH269051   2.771   2.022  14.352 -0.1132  0.1892  0.8335
15879TIP3    H169052   2.809   1.973  14.279  0.7089  0.9793  0.7109
15879TIP3    H269053   2.847   2.053  14.402 -0.6454 -1.1520  2.6033
15880TIP3   OH269054   3.996   1.339  12.117  0.5844 -0.3905  0.4647
15880TIP3    H169055   3.928   1.399  12.087 -0.4927 -0.3062  2.9299
15880TIP3    H269056   4.076   1.373  12.076 -0.3642  1.3272 -0.0782
15881TIP3   OH269057   3.636   2.910   2.791  0.2533  0.3395  0.4042
15881TIP3    H169058   3.714   2.937   2.841 -0.5028 -0.3778  2.0374
15881TIP3    H269059   3.583   2.989   2.786 -0.0235  0.2416  1.4712
15882TIP3   OH269060   0.762   4.410   5.477  0.0235 -0.4993 -0.5510
15882TIP3    H169061   0.816   4.476   5.433  0.1996 -0.6181 -0.5135
15882TIP3    H269062   0.803   4.400   5.563 -0.7747  0.2989 -0.0694
15883TIP3   OH269063   4.946   3.521  17.405  0.1430 -0.2372  0.0631
15883TIP3    H169064   4.927   3.453  17.470 -1.0337 -0.6405 -0.6693
15883TIP3    H269065   4.980   3.594  17.456 -1.0599 -0.4210  1.1934
15884TIP3   OH269066   0.326   0.240  13.385  0.5268 -0.0738  0.3832
15884TIP3    H169067   0.270   0.204  13.316 -1.1996 -1.9234  2.5880
15884TIP3    H269068   0.398   0.177  13.392  0.1958 -0.4085  0.8601
15885TIP3   OH269069   4.530   4.139  13.758  0.0155 -0.0599  0.5976
15885TIP3    H169070   4.462   4.164  13.822  1.3656 -1.0533  2.5418
15885TIP3    H269071   4.607   4.190  13.784  0.6105 -0.5087 -0.2413
15886TIP3   OH269072   2.183   2.567   2.795 -0.2732 -0.3421  0.1109
15886TIP3    H169073   2.146   2.611   2.718 -0.8846 -1.1199 -0.0513
15886TIP3    H269074   2.274   2.595   2.796  0.1738 -1.5415 -1.8344
15887TIP3   OH269075   5.478   2.706  12.425  0.4162 -0.0529 -0.3389
15887TIP3    H169076   5.528   2.771  12.474 -0.2562 -0.7787  1.3738
15887TIP3    H269077   5.411   2.756  12.379  1.8722  0.7836 -1.6136
15888TIP3   OH269078   6.288   2.802   5.423  0.1229 -0.5676  0.5964
15888TIP3    H169079   6.370   2.850   5.411 -0.7843  0.8176 -0.3956
15888TIP3    H269080   6.233   2.860   5.476 -0.7465 -0.7892 -0.0364
15889TIP3   OH269081   5.764   5.746  17.003  0.2586 -0.0102 -0.1461
15889TIP3    H169082   5.719   5.805  17.063  3.6337  2.4602  0.2158
15889TIP3    H269083   5.783   5.669  17.057  2.5436  1.8331  1.9081
15890TIP3   OH269084   5.217   3.561  17.154  0.2540 -0.1577  0.1190
15890TIP3    H169085   5.227   3.614  17.234 -0.8776  0.1152  0.0916
15890TIP3    H269086   5.242   3.620  17.083 -2.8399  1.0443 -0.0906
15891TIP3   OH269087   0.097   5.034   0.256  0.5811  0.2321  1.0265
15891TIP3    H169088   0.053   4.951   0.239 -1.0751  0.9065  1.7377
15891TIP3    H269089   0.178   5.030   0.206 -1.7784  0.2952 -3.3141
15892TIP3   OH269090   3.936   5.394   1.201  0.5657  0.0193  0.0315
15892TIP3    H169091   3.952   5.329   1.270 -2.1515  0.8390  1.5692
15892TIP3    H269092   3.929   5.477   1.247  0.7004  0.9171 -1.5090
15893TIP3   OH269093   6.088   1.069  14.835  0.0970  0.5080  0.2861
15893TIP3    H169094   6.088   1.158  14.870 -0.4225  1.4447 -1.9136
15893TIP3    H269095   5.996   1.052  14.813  0.3043 -0.2715  0.0070
15894TIP3   OH269096   4.355   3.185   0.910 -0.0410 -0.1650 -0.1679
15894TIP3    H169097   4.374   3.275   0.935 -0.3309 -0.4875  1.3035
15894TIP3    H269098   4.265   3.187   0.880 -0.5347 -0.1830  1.2226
15895TIP3   OH269099   2.617   3.952   0.875 -0.5065 -0.2033 -0.6823
15895TIP3    H169100   2.550   4.007   0.917  1.4058  1.9589 -0.2585
15895TIP3    H269101   2.679   3.932   0.946  1.1858  0.9576 -1.7596
15896TIP3   OH269102   4.755   5.087  16.090 -0.9889  0.3224 -0.3394
15896TIP3    H169103   4.704   5.008  16.108  0.1464 -0.8519 -1.9762
15896TIP3    H269104   4.775   5.082  15.997  2.0542  0.7177  0.1991
15897TIP3   OH269105   3.365   2.617   5.552  0.1893 -0.2373  0.0531
15897TIP3    H169106   3.351   2.543   5.492 -1.2795  0.0137  0.0454
15897TIP3    H269107   3.287   2.671   5.541  0.6476  0.6442  1.0255
15898TIP3   OH269108   5.040   0.242  13.127  0.7193  0.2989 -0.0570
15898TIP3    H169109   4.947   0.252  13.146  0.9090 -0.7742  1.6834
15898TIP3    H269110   5.042   0.198  13.042 -0.4294 -0.9072  0.4934
15899TIP3   OH269111   1.500   3.735   1.580 -0.1471 -0.1737 -0.5655
15899TIP3    H169112   1.478   3.754   1.671 -0.2127  0.0173 -0.6217
15899TIP3    H269113   1.422   3.760   1.531 -0.1364 -0.3398 -0.6673
15900TIP3   OH269114   3.866   1.010  12.983  0.4818 -0.3600 -0.3947
15900TIP3    H169115   3.792   1.069  12.994 -1.8551 -3.1424  0.1706
15900TIP3    H269116   3.920   1.024  13.061 -0.0250  0.9353 -0.2564
15901TIP3   OH269117   3.426   0.654  17.134 -0.4331 -0.1295  0.6732
15901TIP3    H169118   3.442   0.636  17.227 -0.2698  1.1777  0.9167
15901TIP3    H269119   3.512   0.644  17.093 -0.7214 -1.9113  0.4241
15902TIP3   OH269120   3.951   0.089  13.870  0.1529  0.0213  0.3623
15902TIP3    H169121   3.888   0.017  13.863 -0.7913  0.9470 -1.2791
15902TIP3    H269122   4.037   0.046  13.869 -0.4089 -1.2248  2.0708
15903TIP3   OH269123   4.753   2.065   3.624  0.2932  0.4105 -0.2239
15903TIP3    H169124   4.796   2.148   3.646 -0.7451  0.7839  0.4953
15903TIP3    H269125   4.661   2.089   3.611 -0.5092 -0.9252  2.2965
15904TIP3   OH269126   4.731   4.285   2.440 -0.8260 -0.6341 -0.3339
15904TIP3    H169127   4.814   4.255   2.478 -1.2763  0.4853  1.6614
15904TIP3    H269128   4.757   4.336   2.364  0.3922  0.1724  0.5859
15905TIP3   OH269129   6.513   4.680  14.722 -0.7698 -0.6253 -0.6173
15905TIP3    H169130   6.543   4.616  14.786 -0.8850 -0.1603 -0.0869
15905TIP3    H269131   6.479   4.752  14.774  2.2274  1.3038 -1.1045
15906TIP3   OH269132   0.426   0.783   3.832 -0.8410 -0.4623 -0.0231
15906TIP3    H169133   0.494   0.754   3.893 -0.3467 -0.2686 -0.4784
15906TIP3    H269134   0.399   0.869   3.866 -0.0009  0.0076 -0.5239
15907TIP3   OH269135   2.464   2.092   5.022 -0.1264 -0.1686  0.4478
15907TIP3    H169136   2.443   2.029   5.090  0.9903  0.2972  1.2368
15907TIP3    H269137   2.386   2.149   5.017 -0.5712 -0.7531  0.6874
15908TIP3   OH269138   2.760   2.698   2.928 -0.1832 -0.0257 -0.1193
15908TIP3    H169139   2.786   2.615   2.969 -1.1450 -0.4616 -0.3678
15908TIP3    H269140   2.696   2.736   2.989  0.6351  0.7921  0.2466
15909TIP3   OH269141   3.203   4.848  11.906  0.1479  0.3720 -0.2213
15909TIP3    H169142   3.287   4.820  11.941 -0.2542  0.0593  0.5106
15909TIP3    H269143   3.191   4.795  11.827 -0.5893 -1.5495  1.1283
15910TIP3   OH269144   4.030   2.998  12.432 -0.3445  0.3370  0.3592
15910TIP3    H169145   4.045   2.934  12.363 -0.4190  1.3762 -0.6580
15910TIP3    H269146   4.091   2.974  12.502 -0.7556 -1.1501  0.2457
15911TIP3   OH269147   0.916   6.450   5.622 -0.1050  0.4583  0.0755
15911TIP3    H169148   0.977   6.475   5.552 -0.0364 -0.4757 -0.2200
15911TIP3    H269149   0.946   6.364   5.650  0.0242  0.9257  1.4566
15912TIP3   OH269150   0.663   6.400   1.685 -0.2092 -0.6089 -0.1831
15912TIP3    H169151   0.634   6.330   1.744  0.0079 -0.4231  0.1473
15912TIP3    H269152   0.759   6.395   1.687 -0.1876 -0.0357  0.1620
15913TIP3   OH269153   3.703   2.221   6.285 -0.4054  0.6678 -0.2137
15913TIP3    H169154   3.634   2.283   6.309 -1.9216  0.2728 -3.1073
15913TIP3    H269155   3.753   2.264   6.216 -0.1217 -0.4853 -0.7676
15914TIP3   OH269156   2.818   1.386  12.471 -0.4572  0.4563  0.6280
15914TIP3    H169157   2.911   1.406  12.484 -0.3709  1.1023 -0.7923
15914TIP3    H269158   2.780   1.393  12.558  0.5585  1.6571  1.0101
15915TIP3   OH269159   6.083   1.695  17.532 -0.4164  0.3418 -0.1157
15915TIP3    H169160   6.044   1.755  17.596 -1.6874 -1.1887  0.6281
15915TIP3    H269161   6.010   1.670  17.475  0.0707 -0.5175 -0.3780
15916TIP3   OH269162   4.685   4.114   0.808 -0.5624  0.1954 -0.2583
15916TIP3    H169163   4.777   4.136   0.793 -0.5169 -0.1622 -0.4993
15916TIP3    H269164   4.636   4.182   0.762 -0.4198  0.1380 -0.4917
15917TIP3   OH269165   3.233   5.185   0.916  0.0834 -0.1913 -0.0990
15917TIP3    H169166   3.317   5.202   0.959 -0.2790  0.7277  0.2561
15917TIP3    H269167   3.232   5.090   0.903  0.3936 -0.4385  1.5014
15918TIP3   OH269168   1.224   1.124  10.846 -0.1773  0.2999  0.6368
15918TIP3    H169169   1.307   1.137  10.799 -0.4860 -1.4439 -0.5017
15918TIP3    H269170   1.185   1.211  10.851  0.8223  0.8458 -0.5612
15919TIP3   OH269171   0.331   2.704  13.752 -0.0216 -0.4299  0.1938
15919TIP3    H169172   0.358   2.693  13.843 -0.8063  0.7505  0.6020
15919TIP3    H269173   0.242   2.738  13.758  0.2037  0.4383 -0.9872
15920TIP3   OH269174   2.041   1.369  17.026 -0.0128 -0.6066  0.2107
15920TIP3    H169175   1.991   1.451  17.028 -0.1168 -0.6584 -0.1849
15920TIP3    H269176   2.017   1.324  17.107 -1.5918 -1.2052 -0.5568
15921TIP3   OH269177   4.454   2.610   6.137 -0.0275  0.3941  0.2201
15921TIP3    H169178   4.430   2.539   6.196 -1.2712  0.0053 -0.7081
15921TIP3    H269179   4.402   2.595   6.058  2.0675  0.4919 -1.2728
15922TIP3   OH269180   3.873   3.642  13.215  0.3933  0.0785  0.1410
15922TIP3    H169181   3.859   3.549  13.199  2.0950 -0.4898  1.6476
15922TIP3    H269182   3.942   3.667  13.152  1.1664 -0.1275  0.8888
15923TIP3   OH269183   6.393   1.652   3.222 -0.4175 -0.0029  0.0302
15923TIP3    H169184   6.344   1.679   3.299  1.2635  1.2178  0.7409
15923TIP3    H269185   6.394   1.556   3.227 -0.5633  0.0427  1.3922
15924TIP3   OH269186   4.942   5.509   5.372  0.1501  0.3517 -0.2827
15924TIP3    H169187   5.004   5.438   5.386  1.5281  1.7107  0.7527
15924TIP3    H269188   4.943   5.523   5.277  0.7121 -0.2613 -0.3746
15925TIP3   OH269189   6.607   4.944  16.600 -0.3379 -0.1930  0.4628
15925TIP3    H169190   6.595   4.986  16.515 -0.2729  0.3234  0.7045
15925TIP3    H269191   6.672   4.875  16.584  1.0346  1.0527  0.4479
15926TIP3   OH269192   5.002   3.065  12.265 -0.1065 -0.1560  0.2046
15926TIP3    H169193   5.007   3.152  12.305  1.3997  0.2653 -0.8184
15926TIP3    H269194   5.048   3.075  12.181 -1.5202 -1.4674 -0.7882
15927TIP3   OH269195   5.277   2.136   5.948 -0.0169 -0.0634  0.0003
15927TIP3    H169196   5.370   2.136   5.967 -0.4008 -0.1462  2.1426
15927TIP3    H269197   5.253   2.043   5.944 -0.0060 -0.0462 -0.7220
15928TIP3   OH269198   0.682   3.446  13.800 -0.3994 -0.0871 -0.2354
15928TIP3    H169199   0.689   3.396  13.719 -1.0567 -2.0215  0.8312
15928TIP3    H269200   0.598   3.491  13.793 -1.4142 -1.8178  0.1373
15929TIP3   OH269201   2.833   4.545  15.380 -0.2963  0.4163 -0.0200
15929TIP3    H169202   2.881   4.468  15.408 -1.4905  0.2851  1.7863
15929TIP3    H269203   2.821   4.533  15.285 -0.2341 -1.4602  0.1871
15930TIP3   OH269204   5.126   2.103  16.155  0.1903 -0.3044 -0.3265
15930TIP3    H169205   5.122   2.119  16.061  1.1929  0.2530 -0.3040
15930TIP3    H269206   5.070   2.171  16.193  2.0222  1.3638 -0.4058
15931TIP3   OH269207   2.891   4.240  15.779  0.0715 -0.2852  0.2125
15931TIP3    H169208   2.822   4.292  15.738  0.4598  0.5867  0.6286
15931TIP3    H269209   2.913   4.288  15.859 -0.1599 -1.5551  1.0734
15932TIP3   OH269210   2.999   0.949   5.223  0.6316 -0.0725  0.2182
15932TIP3    H169211   2.946   0.915   5.296  1.2249 -1.7239 -0.0754
15932TIP3    H269212   2.937   1.000   5.170 -0.3104 -0.6648  0.7185
15933TIP3   OH269213   1.002   3.741  11.284 -0.6136  0.3807  0.0247
15933TIP3    H169214   1.057   3.803  11.330  0.0126  1.1556 -1.6869
15933TIP3    H269215   1.063   3.676  11.248 -1.0147  0.1244 -0.2117
15934TIP3   OH269216   4.025   2.538   1.063  0.1888  0.3863 -0.0407
15934TIP3    H169217   4.022   2.606   0.996  0.1178  0.3605 -0.0643
15934TIP3    H269218   3.972   2.573   1.135 -1.4963 -0.4368 -0.8021
15935TIP3   OH269219   4.881   0.263  12.791  0.7027 -0.8577  0.4483
15935TIP3    H169220   4.797   0.291  12.826  1.1581 -0.8028  1.5084
15935TIP3    H269221   4.878   0.167  12.794  0.3555 -0.8805 -0.3137
15936TIP3   OH269222   0.104   6.434  11.697 -0.2146 -0.5563  0.5271
15936TIP3    H169223   0.073   6.394  11.779 -2.0774  0.4108  0.3612
15936TIP3    H269224   0.045   6.400  11.630 -2.5089  2.9429  0.5074
15937TIP3   OH269225   1.852   6.008  11.634  0.0612 -0.3170 -0.1503
15937TIP3    H169226   1.788   6.014  11.705 -0.8175 -1.8538 -0.7848
15937TIP3    H269227   1.900   5.927  11.651  0.6078 -0.1131 -0.6885
15938TIP3   OH269228   2.112   3.719   3.247 -0.3130  0.5205  0.0926
15938TIP3    H169229   2.199   3.729   3.287 -1.2259  1.3984  1.9833
15938TIP3    H269230   2.125   3.654   3.178  1.5230 -0.5867  1.3851
15939TIP3   OH269231   1.989   4.121   6.129 -0.1427 -0.1303  0.0827
15939TIP3    H169232   1.923   4.137   6.061 -1.9424  1.0754  1.9962
15939TIP3    H269233   1.940   4.078   6.200  1.2570  0.2768  1.3508
15940TIP3   OH269234   5.811   0.154   5.806 -0.3762  0.0931 -0.2834
15940TIP3    H169235   5.809   0.075   5.860  0.2441 -0.7952 -1.5102
15940TIP3    H269236   5.718   0.172   5.788 -0.5187 -0.4845 -0.1608
15941TIP3   OH269237   6.073   6.092   2.482  0.1959 -0.4602  0.5461
15941TIP3    H169238   6.125   6.157   2.434  1.7346 -0.7748  1.7560
15941TIP3    H269239   6.066   6.127   2.570 -0.5949 -1.0428  0.7268
15942TIP3   OH269240   0.154   1.697  12.567  0.5127 -0.1499 -0.0333
15942TIP3    H169241   0.236   1.729  12.530  0.8289 -0.9345 -0.0399
15942TIP3    H269242   0.089   1.710  12.498  0.2762  1.9138  0.5209
15943TIP3   OH269243   1.432   6.306  13.948  0.2612  0.2224  0.0408
15943TIP3    H169244   1.397   6.306  13.859  2.2113  0.1290 -0.7828
15943TIP3    H269245   1.487   6.384  13.951  1.1943 -0.4467  0.7429
15944TIP3   OH269246   4.700   1.955   2.225  0.1922 -0.4713  0.2666
15944TIP3    H169247   4.722   1.898   2.151  1.2050  0.5152 -0.2267
15944TIP3    H269248   4.653   2.028   2.186  1.0720  0.2489  0.5217
15945TIP3   OH269249   4.934   0.959  15.885 -0.6032 -0.1482  0.0463
15945TIP3    H169250   4.907   1.031  15.941 -1.1976  1.4833 -2.2194
15945TIP3    H269251   4.944   0.997  15.798  0.8477 -2.4383 -0.9095
15946TIP3   OH269252   2.729   2.630  16.728  0.3497  0.4148 -0.4791
15946TIP3    H169253   2.715   2.582  16.647 -1.4778 -0.0444  0.0641
15946TIP3    H269254   2.803   2.587  16.770 -0.3603 -1.0571 -0.6806
15947TIP3   OH269255   1.284   4.409   6.104  0.3588 -0.1478 -0.4573
15947TIP3    H169256   1.216   4.425   6.170  1.0878 -0.1428  0.3085
15947TIP3    H269257   1.268   4.320   6.073 -0.4999  0.1474 -0.8985
15948TIP3   OH269258   1.950   0.503   1.020  0.4873 -0.9692 -0.2250
15948TIP3    H169259   1.992   0.419   1.002 -0.5527 -1.2906 -1.3460
15948TIP3    H269260   2.017   0.568   1.004  0.6197 -1.4671 -1.8853
15949TIP3   OH269261   3.547   0.459  14.834  0.3541 -0.5951  0.3767
15949TIP3    H169262   3.594   0.534  14.869 -0.6067 -0.1057  0.6509
15949TIP3    H269263   3.615   0.396  14.811  1.2710  0.9777 -1.3492
15950TIP3   OH269264   1.465   1.876   1.190  0.3302  0.4233  0.1513
15950TIP3    H169265   1.535   1.854   1.128  1.6142  0.5354  1.5022
15950TIP3    H269266   1.437   1.792   1.226 -0.7788  0.3120 -0.9305
15951TIP3   OH269267   5.654   6.609  12.816  0.3425 -0.2322 -0.1695
15951TIP3    H169268   5.619   6.590  12.729 -1.4712 -0.3546  0.5442
15951TIP3    H269269   5.606   6.686  12.845  0.7784 -0.3165  0.8113
15952TIP3   OH269270   0.608   2.389   6.784  0.0164  0.9629 -0.2441
15952TIP3    H169271   0.521   2.428   6.793  1.2746  4.0385 -0.1553
15952TIP3    H269272   0.628   2.355   6.871 -1.0090  0.3536 -0.2309
15953TIP3   OH269273   5.353   2.692   3.547  0.3460  0.0055  0.1698
15953TIP3    H169274   5.325   2.666   3.635  1.4968 -0.7171  0.3347
15953TIP3    H269275   5.272   2.695   3.496 -0.6686  2.5472  1.7384
15954TIP3   OH269276   0.122   0.070  14.211  0.3277 -0.8190 -0.1410
15954TIP3    H169277   0.044   0.050  14.159  0.0376  2.2234 -1.0953
15954TIP3    H269278   0.104   0.157  14.247  3.2286 -0.0714 -0.3064
15955TIP3   OH269279   3.603   3.947  14.047  0.4607  0.5109  0.4738
15955TIP3    H169280   3.551   3.946  14.128 -0.4878  2.2603 -0.0645
15955TIP3    H269281   3.578   3.867  14.002 -0.7569  0.6467  0.8652
15956TIP3   OH269282   5.094   1.666  11.911 -0.5704 -0.1503 -0.0368
15956TIP3    H169283   5.130   1.737  11.965  1.2728  0.4759 -1.9379
15956TIP3    H269284   5.044   1.712  11.843 -0.0242 -0.6937 -0.8191
15957TIP3   OH269285   3.566   0.911  14.173 -0.0582 -0.4529 -0.4153
15957TIP3    H169286   3.639   0.853  14.150 -0.5577 -0.8217 -1.1043
15957TIP3    H269287   3.499   0.894  14.107 -1.4972 -1.4330  1.1897
15958TIP3   OH269288   4.367   3.230   4.527 -0.0064 -0.3044  0.1243
15958TIP3    H169289   4.301   3.284   4.484 -1.2866 -0.2091  2.0733
15958TIP3    H269290   4.386   3.276   4.609  1.8342 -0.8103  0.0355
15959TIP3   OH269291   2.638   6.385   2.452 -0.5749 -0.4298 -0.6167
15959TIP3    H169292   2.696   6.362   2.524 -2.1769 -2.0468  0.2468
15959TIP3    H269293   2.584   6.456   2.486  0.2759  0.4925 -1.1266
15960TIP3   OH269294   6.270   1.335   3.520  0.2816 -0.0329 -0.5233
15960TIP3    H169295   6.219   1.274   3.467  0.6989 -1.3655  0.5638
15960TIP3    H269296   6.353   1.344   3.474  0.4019 -0.6802 -0.4427
15961TIP3   OH269297   5.985   6.679  10.723  0.0760 -0.0383 -0.3572
15961TIP3    H169298   5.940   6.601  10.689 -0.2365  0.7573 -1.8030
15961TIP3    H269299   5.935   6.701  10.802 -0.4853 -0.6883 -0.5127
15962TIP3   OH269300   5.334   4.522   0.739 -0.1508  0.0037  0.7223
15962TIP3    H169301   5.266   4.534   0.806 -1.7220 -2.4193 -0.3326
15962TIP3    H269302   5.394   4.457   0.777 -0.9712 -1.2734 -0.1118
15963TIP3   OH269303   6.425   1.206   2.125  0.0231  0.2734 -0.4965
15963TIP3    H169304   6.412   1.300   2.115  1.1020  0.4844 -0.1169
15963TIP3    H269305   6.415   1.191   2.219 -1.2898 -0.1998 -0.6919
15964TIP3   OH269306   5.570   2.099   1.374  0.1688  0.6782 -0.8095
15964TIP3    H169307   5.600   2.010   1.355  0.8167  1.0425 -1.5467
15964TIP3    H269308   5.476   2.090   1.389  0.8599 -1.0572  4.7478
15965TIP3   OH269309   0.952   0.090   5.658  0.2810  0.3698 -0.3435
15965TIP3    H169310   0.916   0.171   5.621  1.7162  1.3675  0.3435
15965TIP3    H269311   0.937   0.097   5.752  0.4538 -0.1400 -0.2746
15966TIP3   OH269312   5.754   3.480   6.339 -0.2850  0.1882 -0.4433
15966TIP3    H169313   5.676   3.455   6.288 -0.1039  0.2514 -0.7501
15966TIP3    H269314   5.768   3.406   6.398  0.0051 -0.2655 -1.0693
15967TIP3   OH269315   6.311   0.746  15.830  0.1485  0.6310 -0.2322
15967TIP3    H169316   6.273   0.686  15.894 -1.6584  1.0313 -0.8666
15967TIP3    H269317   6.235   0.784  15.785  1.2973 -0.6128 -3.5379
15968TIP3   OH269318   6.164   1.679   4.471 -0.0275  0.1789  0.1704
15968TIP3    H169319   6.204   1.599   4.505 -1.3655 -0.4693  0.2934
15968TIP3    H269320   6.098   1.702   4.536 -0.5299  0.6562 -0.4987
15969TIP3   OH269321   4.813   5.076   4.195 -0.7706  0.2049  0.7336
15969TIP3    H169322   4.720   5.064   4.214 -0.0813 -2.7227  3.0270
15969TIP3    H269323   4.827   5.032   4.112 -1.1223 -1.1972  1.3918
15970TIP3   OH269324   6.124   0.892   0.549 -0.2639 -0.1906 -0.1992
15970TIP3    H169325   6.085   0.838   0.618  1.1697 -1.0802 -0.0454
15970TIP3    H269326   6.200   0.932   0.591  0.1550 -0.0852 -1.0441
15971TIP3   OH269327   0.312   1.092  11.526 -0.1953  0.0634 -0.3317
15971TIP3    H169328   0.311   1.188  11.520 -1.6331  0.0708 -0.4237
15971TIP3    H269329   0.382   1.072  11.588 -1.9233  1.3819  2.2482
15972TIP3   OH269330   2.275   5.902   5.214  0.1212 -0.5015 -0.2845
15972TIP3    H169331   2.200   5.847   5.232 -1.3825  1.8597  1.2748
15972TIP3    H269332   2.338   5.881   5.283 -0.4421 -0.3074  0.2978
15973TIP3   OH269333   3.056   2.344  15.350  0.1080  0.3670  0.2077
15973TIP3    H169334   2.965   2.339  15.322  0.0165  1.8310  0.1501
15973TIP3    H269335   3.106   2.310  15.276 -0.2732  1.8271 -0.7733
15974TIP3   OH269336   0.276   5.528  15.887 -0.0851 -0.0724  0.0485
15974TIP3    H169337   0.207   5.477  15.845  0.2404 -0.8855  0.4822
15974TIP3    H269338   0.230   5.603  15.925 -0.5904 -0.1115 -0.4641
15975TIP3   OH269339   5.324   5.645  13.245 -0.3246 -0.0272  0.0204
15975TIP3    H169340   5.281   5.636  13.330  1.1208  1.6168  0.9741
15975TIP3    H269341   5.350   5.556  13.222 -1.7689 -0.6645  0.7022
15976TIP3   OH269342   6.599   3.960  17.244 -0.3385  0.1247  0.7103
15976TIP3    H169343   6.533   3.891  17.244  0.5274 -0.7512 -0.4737
15976TIP3    H269344   6.578   4.014  17.167  0.5246 -0.4021  0.0780
15977TIP3   OH269345   3.745   0.607   5.780  0.8451 -0.0722  0.7916
15977TIP3    H169346   3.653   0.630   5.795  0.6064 -0.2979 -0.2546
15977TIP3    H269347   3.752   0.596   5.685  1.9635 -0.0278  0.8522
15978TIP3   OH269348   3.198   3.929  12.642 -0.7216  0.0358  0.3362
15978TIP3    H169349   3.157   3.896  12.722 -0.0752 -1.0776  0.2258
15978TIP3    H269350   3.169   4.021  12.636 -1.2987 -0.0574  1.4847
15979TIP3   OH269351   1.919   4.881   4.957  0.5406 -0.0497  0.2764
15979TIP3    H169352   1.973   4.942   5.008 -0.5962  0.7073  0.6169
15979TIP3    H269353   1.919   4.801   5.009 -0.1422  0.5334  1.2261
15980TIP3   OH269354   6.713   2.922  12.602  0.0834  0.2518  0.0205
15980TIP3    H169355   6.641   2.986  12.606  0.3243  0.4800  1.4221
15980TIP3    H269356   6.670   2.837  12.606 -0.1157  0.3933  1.2529
15981TIP3   OH269357   1.600   0.341  13.305 -0.0805  0.3176 -0.1602
15981TIP3    H169358   1.525   0.323  13.248  0.6779 -0.3768 -0.9806
15981TIP3    H269359   1.659   0.393  13.250  1.0989 -1.1835 -0.3961
15982TIP3   OH269360   4.869   2.277  12.487 -0.2363 -0.0950  0.3002
15982TIP3    H169361   4.875   2.191  12.528 -1.6242 -1.2295 -1.7008
15982TIP3    H269362   4.930   2.273  12.413 -0.7758  0.3838 -0.1884
15983TIP3   OH269363   1.602   3.013   1.250 -0.3894  0.2137  0.3092
15983TIP3    H169364   1.640   3.092   1.286 -0.7152  0.1470  0.8197
15983TIP3    H269365   1.554   3.042   1.172  0.8216  0.2677 -0.4348
15984TIP3   OH269366   2.110   0.698  17.414 -0.2907 -0.0550 -0.3679
15984TIP3    H169367   2.068   0.691  17.500  1.1903  1.5858  0.5543
15984TIP3    H269368   2.055   0.645  17.357 -1.5380 -0.9138  1.4982
15985TIP3   OH269369   5.790   6.132   4.451 -0.4716  0.1754  0.2579
15985TIP3    H169370   5.853   6.158   4.518 -0.7212  2.5071 -0.3215
15985TIP3    H269371   5.811   6.040   4.432  0.2558 -0.2382  2.7554
15986TIP3   OH269372   3.456   4.579  15.625 -0.2167  0.3011 -0.0738
15986TIP3    H169373   3.489   4.630  15.699 -0.3423 -0.2362  0.3586
15986TIP3    H269374   3.487   4.490  15.642  1.2905  0.5009 -1.5894
15987TIP3   OH269375   5.346   1.339   5.378 -0.1524  0.6112  0.0366
15987TIP3    H169376   5.277   1.300   5.431  0.3866  0.8190  0.9009
15987TIP3    H269377   5.303   1.362   5.296 -0.4510 -2.0347 -0.6493
15988TIP3   OH269378   5.624   2.556   0.589  0.1862  0.1762 -0.3901
15988TIP3    H169379   5.651   2.576   0.499 -0.4054 -2.2018 -1.1810
15988TIP3    H269380   5.590   2.467   0.584  0.0107  0.0264  2.1928
15989TIP3   OH269381   2.638   0.775  16.404  0.5421 -0.2391  0.3302
15989TIP3    H169382   2.552   0.800  16.370  0.8769  1.4238  0.5877
15989TIP3    H269383   2.681   0.730  16.332  0.8449  2.2917 -1.2082
15990TIP3   OH269384   4.777   3.162   0.638  0.1151  0.0630 -0.3888
15990TIP3    H169385   4.726   3.241   0.657 -1.8129 -1.0829 -0.4742
15990TIP3    H269386   4.749   3.136   0.551  0.0888 -1.1429 -0.0379
15991TIP3   OH269387   3.497   2.383   0.197  0.6446  0.1400 -0.0938
15991TIP3    H169388   3.512   2.307   0.253 -0.1216 -0.9851 -1.3582
15991TIP3    H269389   3.417   2.422   0.231  0.6584 -0.0168  0.1240
15992TIP3   OH269390   3.810   6.039   2.352 -0.0879  0.4501 -0.1377
15992TIP3    H169391   3.806   5.943   2.351 -0.3059  0.4651 -0.6681
15992TIP3    H269392   3.892   6.059   2.399 -0.1109  0.0106  0.0955
15993TIP3   OH269393   3.809   3.543  14.280 -0.1197  0.1748 -0.5148
15993TIP3    H169394   3.796   3.500  14.365  0.3277  0.5470 -0.2545
15993TIP3    H269395   3.725   3.586  14.262  0.0464  0.7897  0.1407
15994TIP3   OH269396   4.914   2.583   0.122  0.4747 -0.7924  0.3355
15994TIP3    H169397   4.818   2.579   0.121  0.4828 -0.9978  0.2564
15994TIP3    H269398   4.941   2.501   0.080  0.7083 -2.1309  2.9087
15995TIP3   OH269399   4.227   5.008   3.325  0.3146  0.0726 -0.0966
15995TIP3    H169400   4.138   5.030   3.351  0.3010  1.8247 -1.4319
15995TIP3    H269401   4.220   4.920   3.288 -1.6131  1.3771 -3.2276
15996TIP3   OH269402   5.524   2.216   6.101 -0.1000 -0.2534 -0.5441
15996TIP3    H169403   5.601   2.273   6.108 -0.4365  0.0517  0.8733
15996TIP3    H269404   5.552   2.146   6.042  1.1636  0.0061 -0.2756
15997TIP3   OH269405   5.360   0.981  17.206 -0.2205 -0.7355  0.5179
15997TIP3    H169406   5.436   0.924  17.200  0.7137  0.3715  1.3052
15997TIP3    H269407   5.310   0.948  17.281  0.2709 -0.5782  0.9189
15998TIP3   OH269408   4.989   3.424  16.265  0.0231  0.2447  0.1102
15998TIP3    H169409   4.991   3.464  16.352  0.7964  0.6701 -0.1004
15998TIP3    H269410   4.985   3.497  16.204 -0.3338 -0.0485 -0.2238
15999TIP3   OH269411   3.062   5.699   2.207  0.3867 -0.1640 -0.8034
15999TIP3    H169412   3.056   5.624   2.148 -0.6363 -0.4576 -0.3453
15999TIP3    H269413   3.028   5.772   2.156  0.6353 -0.1716 -0.9816
16000TIP3   OH269414   3.623   2.281  17.597  0.1215 -0.0921 -0.6099
16000TIP3    H169415   3.553   2.311  17.656 -0.0474 -2.5659  0.5704
16000TIP3    H269416   3.698   2.336  17.620 -1.1234  2.0393 -1.3108
16001TIP3   OH269417   3.117   0.441   0.091  0.2065  0.3640  0.0629
16001TIP3    H169418   3.163   0.524   0.109 -0.3422  0.9470 -1.1262
16001TIP3    H269419   3.164   0.404   0.016  0.4382 -0.4096  0.5802
16002TIP3   OH269420   1.387   1.664  15.742 -0.1155 -0.0985  0.6844
16002TIP3    H169421   1.384   1.609  15.664  0.0674  0.6783  0.1146
16002TIP3    H269422   1.469   1.640  15.785  0.7540  0.7910 -0.3847
16003TIP3   OH269423   5.789   0.642  14.197 -0.8118  0.6539  0.4083
16003TIP3    H169424   5.814   0.719  14.248  0.7592 -0.6722  1.7697
16003TIP3    H269425   5.820   0.660  14.108 -1.4228  1.9993  0.4419
16004TIP3   OH269426   5.940   1.742  12.404 -0.4998 -0.2507 -0.3621
16004TIP3    H169427   5.963   1.655  12.374 -1.5184 -0.1046 -1.6073
16004TIP3    H269428   5.981   1.749  12.491  1.2965 -1.1985 -1.0822
16005TIP3   OH269429   5.144   0.213   2.021  0.1921 -0.8863 -0.8452
16005TIP3    H169430   5.052   0.238   2.014  0.2399  0.6932  2.3548
16005TIP3    H269431   5.192   0.288   1.986  0.2534 -0.8355 -0.6567
16006TIP3   OH269432   2.991   4.019  14.491 -0.2583  0.3788  0.2990
16006TIP3    H169433   3.054   4.062  14.434  1.7231 -1.9621  0.5849
16006TIP3    H269434   3.039   3.998  14.570 -1.7569 -0.3335  1.0736
16007TIP3   OH269435   1.785   1.530  12.744  0.1105 -0.1717 -0.1835
16007TIP3    H169436   1.846   1.519  12.817 -0.8719 -0.2107  0.6512
16007TIP3    H269437   1.747   1.443  12.731  0.6884 -0.2991 -1.1329
16008TIP3   OH269438   1.620   3.022  14.063  0.0226  0.0194  0.1272
16008TIP3    H169439   1.666   3.106  14.054 -0.0265  0.0458  0.1216
16008TIP3    H269440   1.566   3.032  14.142 -0.4671  0.2216 -0.2296
16009TIP3   OH269441   5.740   4.753  16.884 -0.3794  0.2099 -0.4009
16009TIP3    H169442   5.740   4.688  16.813 -1.5560  1.0148 -1.1696
16009TIP3    H269443   5.777   4.832  16.844 -1.4095  0.7828 -0.2395
16010TIP3   OH269444   4.270   6.523  17.537 -0.1356 -0.9032  0.8327
16010TIP3    H169445   4.330   6.559  17.472 -3.0521 -0.2368 -1.7499
16010TIP3    H269446   4.300   6.433  17.549  1.9363 -0.3197  0.4543
16011TIP3   OH269447   6.564   0.069  15.029  0.4609 -0.4101 -0.5293
16011TIP3    H169448   6.644   0.047  15.078 -0.6967 -2.3001  0.6686
16011TIP3    H269449   6.562   0.165  15.029  1.1279 -0.2864  2.2245
16012TIP3   OH269450   4.022   0.529   3.373  0.3324  0.1000  0.4253
16012TIP3    H169451   4.078   0.524   3.450  2.8640  0.3308 -1.2878
16012TIP3    H269452   3.953   0.592   3.397  1.2891  0.4974  2.3106
16013TIP3   OH269453   1.493   1.882  15.975  0.3551 -0.8620  0.5156
16013TIP3    H169454   1.506   1.790  15.952 -1.0519 -1.0834  0.5210
16013TIP3    H269455   1.475   1.925  15.891  1.0338 -0.5801  0.5101
16014TIP3   OH269456   2.428   1.625  14.578  0.0289 -0.2244 -0.4328
16014TIP3    H169457   2.445   1.659  14.491  0.7027  0.8852  0.1151
16014TIP3    H269458   2.420   1.530  14.566  0.2639 -0.0970 -1.6627
16015TIP3   OH269459   2.434   2.874  11.935  0.1781 -0.2353  0.1305
16015TIP3    H169460   2.363   2.928  11.969  0.3685 -0.5419  1.0329
16015TIP3    H269461   2.485   2.934  11.880 -0.4729  0.1150 -0.0994
16016TIP3   OH269462   2.744   2.016  15.218  0.1669 -0.5453  0.3666
16016TIP3    H169463   2.687   1.941  15.237 -0.3982 -0.1294  0.3510
16016TIP3    H269464   2.826   1.996  15.264 -0.1259 -0.9738  0.7156
16017TIP3   OH269465   3.925   0.057   2.841 -0.1448 -0.2670 -0.0846
16017TIP3    H169466   3.861   0.128   2.843  0.9417  0.7733 -0.5042
16017TIP3    H269467   3.956   0.055   2.750 -0.2364 -1.3753 -0.1091
16018TIP3   OH269468   2.988   3.846   3.621 -0.5731  0.1299  0.2815
16018TIP3    H169469   2.955   3.832   3.710 -1.5975  1.2723  0.1048
16018TIP3    H269470   2.928   3.910   3.583 -0.8164 -1.1741 -1.6247
16019TIP3   OH269471   2.609   0.847   3.371  0.4281  0.4993  0.2421
16019TIP3    H169472   2.619   0.760   3.409 -2.4376 -0.4568 -0.8901
16019TIP3    H269473   2.549   0.892   3.430  0.7779  1.2043  0.0703
16020TIP3   OH269474   4.160   0.397   2.117 -0.1354 -0.1933  0.0473
16020TIP3    H169475   4.119   0.315   2.090  1.1975 -1.7562  2.3156
16020TIP3    H269476   4.232   0.409   2.055  0.3106 -1.3771  0.2928
16021TIP3   OH269477   1.389   5.041   5.296 -0.0142  1.0625 -0.0147
16021TIP3    H169478   1.369   4.957   5.338 -1.8163  1.1317 -0.6284
16021TIP3    H269479   1.393   5.103   5.368 -0.1233  0.6889  0.3206
16022TIP3   OH269480   3.243   1.082  11.975 -0.6755 -0.4301  0.2366
16022TIP3    H169481   3.222   0.991  11.953  0.7318 -0.6701 -0.2335
16022TIP3    H269482   3.335   1.079  12.003 -0.7527  0.7773  0.6612
16023TIP3   OH269483   4.180   2.124   5.594  0.6187 -0.1177  0.5553
16023TIP3    H169484   4.243   2.102   5.525 -0.3134 -0.5691 -0.1797
16023TIP3    H269485   4.187   2.052   5.656 -0.8433 -1.4288 -0.7295
16024TIP3   OH269486   6.407   4.747   4.464  0.1694 -0.6716  0.2981
16024TIP3    H169487   6.496   4.719   4.442  0.6053  0.7257  0.1763
16024TIP3    H269488   6.404   4.747   4.559  0.2458 -0.8760  0.3008
16025TIP3   OH269489   5.217   3.471   1.496  0.1266  0.0082  0.2671
16025TIP3    H169490   5.223   3.530   1.420  0.8205 -0.7747 -0.2946
16025TIP3    H269491   5.136   3.499   1.541  0.1864  1.0698 -0.2475
16026TIP3   OH269492   4.475   4.797  15.217 -0.2785  0.1586 -0.2851
16026TIP3    H169493   4.412   4.760  15.156 -1.8138  1.5413  0.3921
16026TIP3    H269494   4.554   4.744  15.205 -1.0749 -0.6866 -2.2110
16027TIP3   OH269495   1.132   2.734   2.004 -0.9413  0.0385  0.0788
16027TIP3    H169496   1.226   2.745   2.018 -0.6393  0.0337 -1.7229
16027TIP3    H269497   1.122   2.644   1.975 -1.6386 -0.2362  1.1123
16028TIP3   OH269498   5.615   4.539  15.486  0.3435 -0.3886 -0.4452
16028TIP3    H169499   5.571   4.591  15.419  0.2192 -0.7073 -0.6103
16028TIP3    H269500   5.685   4.596  15.518  0.5893 -0.3380 -1.0524
16029TIP3   OH269501   2.686   3.214   6.133  0.3042  0.1316  0.7784
16029TIP3    H169502   2.655   3.130   6.099 -0.9854  1.3354 -1.2285
16029TIP3    H269503   2.781   3.206   6.135  0.3856 -0.5416 -1.9090
16030TIP3   OH269504   5.005   6.336  11.394 -0.1404  0.3313 -0.2583
16030TIP3    H169505   5.050   6.252  11.391  0.2339  0.4525  1.2295
16030TIP3    H269506   4.925   6.323  11.343 -0.9264 -1.4469  1.3200
16031TIP3   OH269507   2.139   0.634   3.259 -0.3767  0.1155 -0.6240
16031TIP3    H169508   2.081   0.574   3.212 -0.6722 -0.4827  0.4666
16031TIP3    H269509   2.082   0.677   3.323 -0.0015  0.9915 -0.8595
16032TIP3   OH269510   5.413   4.944   1.010 -0.2189  0.2367 -0.2795
16032TIP3    H169511   5.501   4.906   1.004 -1.2142 -2.2033 -0.5111
16032TIP3    H269512   5.394   4.943   1.104  0.0914  1.1113 -0.1906
16033TIP3   OH269513   4.773   0.409  16.334  0.0029 -0.5344  0.2649
16033TIP3    H169514   4.836   0.346  16.370  0.3843 -0.9552 -1.1046
16033TIP3    H269515   4.739   0.454  16.411  1.8233 -0.4401  1.0723
16034TIP3   OH269516   5.384   1.556   1.984  0.3144 -0.0028 -0.3090
16034TIP3    H169517   5.424   1.561   2.071  0.5746  2.2090 -0.5056
16034TIP3    H269518   5.446   1.504   1.932  0.7585 -0.2989  0.5078
16035TIP3   OH269519   2.129   5.011   5.059 -0.0691  0.2867 -0.2718
16035TIP3    H169520   2.219   5.035   5.036  0.4228  1.2517  2.3005
16035TIP3    H269521   2.095   5.088   5.104 -2.5311  0.2481 -1.8968
16036TIP3   OH269522   5.904   2.994   1.818  0.6899 -0.1573  0.6843
16036TIP3    H169523   5.826   2.998   1.873  0.9627 -1.4686  1.1829
16036TIP3    H269524   5.963   3.061   1.855 -0.7090  1.9044 -0.5928
16037TIP3   OH269525   5.551   5.488   1.620  0.1307  0.4195  0.2551
16037TIP3    H169526   5.619   5.432   1.656 -0.7901 -2.0742 -1.6322
16037TIP3    H269527   5.469   5.450   1.653 -0.5391  0.2376 -1.5175
16038TIP3   OH269528   2.192   4.920  14.417  0.1240 -0.1382 -0.2051
16038TIP3    H169529   2.245   4.845  14.391 -0.5104 -0.8167  0.4058
16038TIP3    H269530   2.187   4.914  14.513 -1.2512 -0.2413 -0.2608
16039TIP3   OH269531   1.194   1.886  17.282 -0.2447  0.1552  0.2538
16039TIP3    H169532   1.211   1.972  17.320  3.6896 -0.8293  1.1230
16039TIP3    H269533   1.230   1.892  17.193 -1.3184 -0.2045 -0.2272
16040TIP3   OH269534   2.925   1.672  11.868  0.4400 -0.3035 -0.0402
16040TIP3    H169535   2.973   1.709  11.794  1.0857 -0.9205  0.0667
16040TIP3    H269536   2.851   1.626  11.828  0.0604  0.4446 -0.2179
16041TIP3   OH269537   4.536   1.515   2.640 -0.3659  0.1535 -0.8847
16041TIP3    H169538   4.531   1.482   2.729  1.1165 -1.0258 -1.2041
16041TIP3    H269539   4.613   1.571   2.639 -1.8314  2.2681 -0.8149
16042TIP3   OH269540   3.658   1.734  12.081 -0.5799  0.4709 -0.0061
16042TIP3    H169541   3.661   1.822  12.045 -0.9471  0.6309  0.3466
16042TIP3    H269542   3.627   1.746  12.171  0.5083  0.1085  0.4404
16043TIP3   OH269543   5.511   4.992   1.266  0.2818 -0.2486 -0.1032
16043TIP3    H169544   5.462   4.957   1.341 -2.3937  0.9471 -1.1418
16043TIP3    H269545   5.601   4.964   1.281 -0.7199 -2.9036  1.8139
16044TIP3   OH269546   5.232   4.123   1.936  0.3118  0.6619 -0.1887
16044TIP3    H169547   5.163   4.149   1.875  0.3689  0.4440 -0.3480
16044TIP3    H269548   5.245   4.199   1.992  0.5366  0.9987 -0.7038
16045TIP3   OH269549   1.888   4.503  12.390 -0.0480  0.0770 -0.0100
16045TIP3    H169550   1.825   4.568  12.423 -1.2350 -0.7695 -0.5457
16045TIP3    H269551   1.927   4.545  12.313  0.6621  0.9235  0.7801
16046TIP3   OH269552   1.683   2.179  12.487  0.0036  0.4173 -0.0791
16046TIP3    H169553   1.732   2.097  12.491 -1.5355 -0.5299  0.0121
16046TIP3    H269554   1.661   2.189  12.395  0.4044  0.8778 -0.1300
16047TIP3   OH269555   5.085   0.513   2.593 -0.8259 -0.5268 -0.2180
16047TIP3    H169556   5.118   0.429   2.563 -0.2106  0.5056 -2.6944
16047TIP3    H269557   5.162   0.570   2.597 -1.4198  0.2932  0.0613
16048TIP3   OH269558   1.775   1.292  14.256  0.0248 -0.6725 -0.3472
16048TIP3    H169559   1.712   1.354  14.294  0.4043 -1.1789  1.2196
16048TIP3    H269560   1.843   1.285  14.323  2.2153  0.4722 -2.3425
16049TIP3   OH269561   2.540   6.582   5.389  0.5232 -0.6968  0.5891
16049TIP3    H169562   2.589   6.663   5.380  2.8241 -2.1292 -0.7113
16049TIP3    H269563   2.458   6.597   5.341  2.3416 -0.1936 -2.5726
16050TIP3   OH269564   1.113   4.381   5.181  0.3277  0.7736 -0.1424
16050TIP3    H169565   1.071   4.315   5.236  0.3662  1.6359  0.9532
16050TIP3    H269566   1.124   4.337   5.096  1.4346 -1.0367  0.8654
16051TIP3   OH269567   1.676   5.723  13.003 -0.0981  0.4271  0.5298
16051TIP3    H169568   1.638   5.697  12.919  2.9854  1.1025 -1.2340
16051TIP3    H269569   1.744   5.657  13.020  0.2422  1.0709  1.8004
16052TIP3   OH269570   3.472   1.962   3.548 -0.0672  0.0129 -0.2115
16052TIP3    H169571   3.425   1.903   3.488 -1.1371  1.6697 -1.0894
16052TIP3    H269572   3.445   1.933   3.635  0.1223 -1.3296 -0.5676
16053TIP3   OH269573   4.234   2.283   4.231  0.1849 -0.4318  0.3358
16053TIP3    H169574   4.206   2.339   4.158  0.3176  1.6421  1.7737
16053TIP3    H269575   4.166   2.294   4.297 -0.3423 -2.9176  0.2811
16054TIP3   OH269576   2.145   4.876  14.949  0.2235  0.0393  0.9101
16054TIP3    H169577   2.074   4.940  14.950  0.2120  0.0335  2.0733
16054TIP3    H269578   2.169   4.866  15.041  1.2478 -0.4998  0.5950
16055TIP3   OH269579   0.879   4.030  16.526 -0.1860 -0.1816 -0.4720
16055TIP3    H169580   0.837   4.011  16.442 -2.2809 -0.0409  0.4753
16055TIP3    H269581   0.882   3.945  16.571 -0.5493  0.0057 -0.0815
16056TIP3   OH269582   2.983   0.359  17.236  0.1402  0.2826 -0.2365
16056TIP3    H169583   2.940   0.273  17.231 -0.3660  0.5173 -0.0454
16056TIP3    H269584   3.051   0.356  17.169  0.9144 -0.7032  0.5682
16057TIP3   OH269585   1.079   0.488  13.884  0.3168 -0.0113  0.3728
16057TIP3    H169586   1.163   0.455  13.915  0.0607  0.7130  1.9068
16057TIP3    H269587   1.077   0.580  13.911  0.6183  1.1074 -2.9622
16058TIP3   OH269588   5.273   1.208  12.942  0.0118  0.1626 -0.7648
16058TIP3    H169589   5.202   1.263  12.908  0.0541 -0.0601 -1.2141
16058TIP3    H269590   5.337   1.270  12.976 -0.1532  0.3786 -0.8439
16059TIP3   OH269591   3.644   2.110   0.581  0.0068 -0.3579 -0.0574
16059TIP3    H169592   3.699   2.031   0.587  0.2962 -0.0729  1.5462
16059TIP3    H269593   3.700   2.174   0.536  1.0598 -0.0674  1.5590
16060TIP3   OH269594   2.045   4.862   5.922 -0.6737  0.0032 -0.2141
16060TIP3    H169595   1.975   4.806   5.889 -0.8111  0.7867 -1.3272
16060TIP3    H269596   2.085   4.812   5.993  0.3752 -2.3230 -2.2721
16061TIP3   OH269597   1.185   3.313   0.232  0.0046  0.6189 -0.1951
16061TIP3    H169598   1.150   3.334   0.318 -0.1467  0.9645 -0.3393
16061TIP3    H269599   1.134   3.238   0.203  0.2311  0.3402  0.1260
16062TIP3   OH269600   0.365   1.718  16.190 -0.5613  0.2016  0.5231
16062TIP3    H169601   0.331   1.749  16.274 -0.1530  2.0500  0.0695
16062TIP3    H269602   0.288   1.705  16.135 -0.7608  0.4094  0.7538
16063TIP3   OH269603   4.187   4.574  11.323  0.1062 -0.5096 -0.4662
16063TIP3    H169604   4.099   4.576  11.362  0.4977 -0.4120  0.4348
16063TIP3    H269605   4.181   4.635  11.249 -0.0750  0.9960  0.7393
16064TIP3   OH269606   5.492   0.358  12.398  0.4470  0.4919  0.0864
16064TIP3    H169607   5.471   0.342  12.490  0.7578 -1.2588 -0.1006
16064TIP3    H269608   5.570   0.304  12.382 -1.2661 -1.5795 -1.8895
16065TIP3   OH269609   4.583   0.860   3.223  0.6051  0.1151  0.0543
16065TIP3    H169610   4.594   0.949   3.189  0.3419  0.3309  0.5231
16065TIP3    H269611   4.502   0.865   3.275  1.4239  0.0055  1.3917
16066TIP3   OH269612   6.570   2.661  12.558 -0.2871  0.2194  0.1075
16066TIP3    H169613   6.475   2.667  12.547 -0.3420  0.6828  0.7878
16066TIP3    H269614   6.582   2.592  12.623 -0.2897  1.6973  1.7423
16067TIP3   OH269615   3.006   2.515  14.843  0.0514  0.6212 -0.7668
16067TIP3    H169616   3.050   2.572  14.906  2.6362  1.6756 -3.3001
16067TIP3    H269617   3.071   2.448  14.822 -1.5968 -1.1166 -0.6475
16068TIP3   OH269618   5.847   0.072   1.797 -0.5834  0.4298 -0.5679
16068TIP3    H169619   5.826   0.150   1.848 -3.1284 -0.8084  0.4743
16068TIP3    H269620   5.801   0.086   1.714 -0.4427  0.3570 -0.6571
16069TIP3   OH269621   4.281   6.398  12.359 -1.0441  0.0804  0.0042
16069TIP3    H169622   4.287   6.488  12.328 -1.5747 -0.0504 -0.5074
16069TIP3    H269623   4.359   6.355  12.324 -0.2403  0.5833  1.1251
16070TIP3   OH269624   0.063   0.050   1.410 -0.0515  0.7057 -0.3097
16070TIP3    H169625   0.157   0.063   1.423  0.2963  0.3083 -2.1007
16070TIP3    H269626   0.032   0.132   1.374 -0.8261  1.5198  2.0519
16071TIP3   OH269627   5.836   2.168  13.378  0.3558  0.0514 -0.7658
16071TIP3    H169628   5.817   2.163  13.284 -1.3905 -0.7920 -0.4247
16071TIP3    H269629   5.867   2.080  13.400 -0.4338 -0.1335 -0.3495
16072TIP3   OH269630   0.876   1.127   4.488 -0.4003  0.3335  0.0450
16072TIP3    H169631   0.795   1.097   4.447  0.3546 -1.4142 -0.2539
16072TIP3    H269632   0.920   1.047   4.516  0.1026  1.3396  2.4339
16073TIP3   OH269633   0.077   2.046   3.448  0.1371 -0.1298 -0.0968
16073TIP3    H169634   0.129   1.974   3.484 -1.2006 -0.6265  0.8884
16073TIP3    H269635  -0.013   2.016   3.453 -0.6276  2.1724  1.8289
16074TIP3   OH269636   4.774   4.921  12.781 -0.0417 -0.8181 -0.1794
16074TIP3    H169637   4.789   4.928  12.876  0.6770  0.2202 -0.3518
16074TIP3    H269638   4.856   4.886  12.747 -0.0291 -0.4916 -0.4930
16075TIP3   OH269639   1.978   5.933  15.176  0.4554  0.0795  0.8806
16075TIP3    H169640   1.962   5.839  15.166 -1.3559  0.3685  0.6950
16075TIP3    H269641   1.959   5.970  15.089  0.0035  0.7619  1.2628
16076TIP3   OH269642   1.939   5.333   4.661  0.0462  0.0845 -0.3131
16076TIP3    H169643   2.007   5.316   4.595  1.9763  1.1481  1.2750
16076TIP3    H269644   1.918   5.246   4.696  2.6630 -0.1195  1.0124
16077TIP3   OH269645   4.244   5.666   4.815 -0.1252  0.1216 -0.4818
16077TIP3    H169646   4.316   5.730   4.819  1.3143 -1.3029 -2.1990
16077TIP3    H269647   4.273   5.595   4.873 -1.1703  0.4403  0.4734
16078TIP3   OH269648   6.262   5.706  10.955  0.7633  0.3629 -0.0930
16078TIP3    H169649   6.239   5.625  11.001 -0.2871  1.0379  0.6310
16078TIP3    H269650   6.178   5.749  10.940  1.1900  0.6896 -1.6979
16079TIP3   OH269651   3.235   6.198   1.598 -0.3681 -0.3524 -0.4124
16079TIP3    H169652   3.179   6.235   1.666  0.3174  0.5081 -0.3115
16079TIP3    H269653   3.291   6.270   1.570  0.1226 -0.9864 -1.1090
16080TIP3   OH269654   1.458   1.305  15.332 -0.0865 -0.0268  0.0529
16080TIP3    H169655   1.468   1.285  15.238 -0.7448 -3.2693  0.5207
16080TIP3    H269656   1.543   1.283  15.370  0.0121  0.7706  0.3027
16081TIP3   OH269657   1.617   3.951   2.620 -0.9181  0.1905 -0.1625
16081TIP3    H169658   1.606   3.906   2.703 -2.7296  3.2915  1.4630
16081TIP3    H269659   1.536   3.936   2.573 -0.4868 -0.3386 -0.7541
16082TIP3   OH269660   2.382   3.162   3.420  0.1441  0.4944 -0.3048
16082TIP3    H169661   2.423   3.167   3.333  1.0485 -0.3545  0.0631
16082TIP3    H269662   2.289   3.172   3.403  0.1298 -1.4469 -1.5745
16083TIP3   OH269663   2.226   1.598   2.340 -0.1097  0.4777  0.1130
16083TIP3    H169664   2.174   1.528   2.380  0.2426  1.2428  2.0743
16083TIP3    H269665   2.230   1.576   2.247 -1.3778 -1.2052  0.4074
16084TIP3   OH269666   5.008   5.252   1.500  0.3511 -0.5061 -0.3248
16084TIP3    H169667   4.960   5.254   1.417  1.2471 -1.2394 -0.8835
16084TIP3    H269668   5.023   5.343   1.522  0.8189 -0.3068 -1.4074
16085TIP3   OH269669   1.355   3.760   1.828  0.4137 -0.2354 -0.1288
16085TIP3    H169670   1.388   3.795   1.911  3.3955  0.4071 -1.4487
16085TIP3    H269671   1.277   3.812   1.809 -1.4838 -1.5997  3.0207
16086TIP3   OH269672   4.289   1.170  11.213  0.3078  0.5413 -0.0031
16086TIP3    H169673   4.316   1.084  11.243  2.3325  0.3977 -1.9968
16086TIP3    H269674   4.202   1.156  11.175 -0.3789 -0.1027  1.6964
16087TIP3   OH269675   4.282   1.900   0.323 -0.3653 -0.0919  0.6473
16087TIP3    H169676   4.212   1.872   0.383 -0.3274  1.0077  1.2377
16087TIP3    H269677   4.349   1.937   0.381 -0.0946  0.5008 -0.0368
16088TIP3   OH269678   0.513   1.300  14.744  0.0508  0.2648  0.1943
16088TIP3    H169679   0.460   1.344  14.811  0.1524  1.2081 -0.3292
16088TIP3    H269680   0.587   1.358  14.730  0.6926 -0.5477  0.1656
16089TIP3   OH269681   1.324   3.325   3.116 -0.2661 -0.1955 -0.4341
16089TIP3    H169682   1.330   3.419   3.129 -0.7513 -0.0406 -1.2159
16089TIP3    H269683   1.358   3.311   3.027 -2.0635 -0.4785 -1.1263
16090TIP3   OH269684   0.119   3.805  13.472 -0.0917 -0.0539 -0.0469
16090TIP3    H169685   0.130   3.745  13.398  0.5754  0.1735 -0.1387
16090TIP3    H269686   0.117   3.892  13.433  1.7035  0.1815  0.2951
16091TIP3   OH269687   1.197   6.097   3.116  0.1653 -0.2812 -0.5350
16091TIP3    H169688   1.141   6.029   3.153  0.1521  0.6539  1.2787
16091TIP3    H269689   1.157   6.118   3.032 -0.3471 -1.8590 -0.7197
16092TIP3   OH269690   4.212   3.332   0.516  0.7025  0.0604  0.2365
16092TIP3    H169691   4.186   3.413   0.559  0.8120  0.8435 -1.0953
16092TIP3    H269692   4.216   3.267   0.586 -3.2778  0.2239  0.8351
16093TIP3   OH269693   2.063   1.712  16.187  0.3222  0.4423 -0.0561
16093TIP3    H169694   2.001   1.640  16.197 -0.4557  0.8700 -1.5579
16093TIP3    H269695   2.149   1.670  16.190 -0.1134 -0.8857 -2.7754
16094TIP3   OH269696   1.248   4.591  16.696  0.1990 -0.9233 -0.3571
16094TIP3    H169697   1.308   4.631  16.759 -1.7650  1.7474  0.0076
16094TIP3    H269698   1.161   4.620  16.725 -0.8817 -0.5110 -3.6603
16095TIP3   OH269699   6.622   2.848  12.054 -0.5081 -0.1322  0.0733
16095TIP3    H169700   6.569   2.801  11.991 -0.0103 -1.4647  0.6202
16095TIP3    H269701   6.594   2.814  12.139 -0.2912  0.7282  0.5047
16096TIP3   OH269702   1.819   5.898   1.633 -0.6927  0.4769  0.1424
16096TIP3    H169703   1.815   5.910   1.728  1.4669  1.8147  0.1257
16096TIP3    H269704   1.867   5.974   1.601  1.0362 -1.2834 -1.7117
16097TIP3   OH269705   0.324   4.514  14.809 -0.0629  0.4857  0.0693
16097TIP3    H169706   0.331   4.484  14.900  0.0878  2.5227  0.7802
16097TIP3    H269707   0.411   4.498  14.772 -0.6679 -2.1779 -0.3713
16098TIP3   OH269708   3.179   3.494  12.656  0.1173 -0.0204  0.0986
16098TIP3    H169709   3.241   3.549  12.609 -0.2295  0.2797 -0.0120
16098TIP3    H269710   3.234   3.431  12.704  0.6757  1.8811  2.1447
16099TIP3   OH269711   2.525   0.760  11.246 -0.1383  0.4816 -0.4078
16099TIP3    H169712   2.616   0.777  11.270 -0.4781  0.9739  0.5606
16099TIP3    H269713   2.509   0.818  11.172  0.1659  0.8151 -0.2163
16100TIP3   OH269714   6.243   2.352   4.107 -0.0278  0.5766 -0.3966
16100TIP3    H169715   6.257   2.263   4.138  2.2776  1.3305  0.9348
16100TIP3    H269716   6.168   2.384   4.157  0.7885  0.2341  1.1015
16101TIP3   OH269717   3.235   2.848   3.311  0.0513  0.0011  0.6766
16101TIP3    H169718   3.223   2.941   3.291 -0.7196 -0.0484  0.8658
16101TIP3    H269719   3.183   2.834   3.390  0.3038 -0.5538  0.7454
16102TIP3   OH269720   1.730   3.176   2.459  0.5546  0.4413  0.7055
16102TIP3    H169721   1.694   3.088   2.468  0.8599  0.3062  0.6150
16102TIP3    H269722   1.674   3.230   2.514 -0.7815  0.5167 -0.6665
16103TIP3   OH269723   3.086   3.370   4.485  0.3865 -0.3935 -0.3915
16103TIP3    H169724   3.164   3.321   4.510  0.1651 -0.9064 -0.7016
16103TIP3    H269725   3.112   3.462   4.492  0.7265 -0.5491  0.4220
16104TIP3   OH269726   2.549   0.745  14.181 -0.2426 -0.5173 -0.5515
16104TIP3    H169727   2.511   0.685  14.116 -2.1866  0.0789 -0.0437
16104TIP3    H269728   2.529   0.705  14.265  1.1637 -0.6517 -0.2560
16105TIP3   OH269729   1.474   2.094  12.852  0.0215  0.5399  0.4067
16105TIP3    H169730   1.545   2.118  12.911  2.1658 -0.9388 -1.4012
16105TIP3    H269731   1.507   2.017  12.804 -2.4756  0.2928 -1.1145
16106TIP3   OH269732   6.019   0.449  15.799  0.8913  0.5566  0.1348
16106TIP3    H169733   5.925   0.463  15.784  0.4332 -1.3267  0.8872
16106TIP3    H269734   6.059   0.535  15.783 -0.6919  0.9815 -2.0544
16107TIP3   OH269735   1.373   5.233   5.472 -0.6019  0.2963  0.0926
16107TIP3    H169736   1.311   5.216   5.543  0.1442 -4.3264 -0.0449
16107TIP3    H269737   1.442   5.286   5.511 -1.4228 -0.0743  2.1271
16108TIP3   OH269738   4.415   2.653   1.309 -0.6143  0.3698 -0.3594
16108TIP3    H169739   4.343   2.702   1.349 -0.2491  2.5702 -2.2034
16108TIP3    H269740   4.374   2.600   1.240 -0.5015  1.8208 -1.5835
16109TIP3   OH269741   0.772   6.280  12.112 -0.0648 -0.2261  0.6784
16109TIP3    H169742   0.831   6.267  12.186 -0.2580 -0.0545  0.8637
16109TIP3    H269743   0.822   6.250  12.036  1.1030  1.9714  0.5203
16110TIP3   OH269744   0.934   0.757   1.160 -0.0648  0.2285  0.3502
16110TIP3    H169745   0.896   0.670   1.150 -0.7338  0.5029  0.4541
16110TIP3    H269746   0.914   0.802   1.078  3.7493 -0.9613 -1.4559
16111TIP3   OH269747   5.782   3.139   4.468  0.2830 -0.2958 -0.6119
16111TIP3    H169748   5.772   3.201   4.541  0.5694 -0.9608 -0.0017
16111TIP3    H269749   5.867   3.161   4.430  0.0822  0.1293 -0.8325
16112TIP3   OH269750   0.016   0.456   4.898 -0.7261 -0.1054 -0.0678
16112TIP3    H169751   0.105   0.435   4.929 -0.0763  1.3601 -0.8728
16112TIP3    H269752  -0.032   0.373   4.907  1.0868 -1.3207 -0.9162
16113TIP3   OH269753   1.121   0.203  16.080  0.1740  0.3228  0.2015
16113TIP3    H169754   1.103   0.230  16.170 -1.9171 -0.4752  0.0697
16113TIP3    H269755   1.130   0.285  16.031 -0.6651  0.7798  0.7907
16114TIP3   OH269756   5.544   6.555   4.771 -0.3071 -0.3526  0.5036
16114TIP3    H169757   5.562   6.485   4.707 -0.8442  0.3578 -0.4368
16114TIP3    H269758   5.598   6.531   4.847  2.6680  0.3046 -1.2512
16115TIP3   OH269759   4.754   4.645   3.459 -0.2681  0.4187  0.6267
16115TIP3    H169760   4.728   4.563   3.417 -0.6568  0.4619  0.7790
16115TIP3    H269761   4.839   4.626   3.497  1.4363  1.1452 -2.4904
16116TIP3   OH269762   0.806   1.294  10.876 -0.1761  0.5662  0.1622
16116TIP3    H169763   0.727   1.341  10.901  0.3967  1.3562  0.4889
16116TIP3    H269764   0.776   1.204  10.861 -1.7984  1.4966 -3.0241
16117TIP3   OH269765   2.608   4.715  15.059 -0.0131  0.1719  0.3600
16117TIP3    H169766   2.681   4.661  15.086  0.0077  0.1161  0.1934
16117TIP3    H269767   2.550   4.656  15.011  0.3467  0.4427 -0.4276
16118TIP3   OH269768   4.149   4.775  14.811 -0.5564 -0.0738  0.5044
16118TIP3    H169769   4.093   4.703  14.782 -1.2614  0.8518 -0.5415
16118TIP3    H269770   4.091   4.852  14.811  0.4874  0.7477  0.2839
16119TIP3   OH269771   4.737   4.557   3.146 -0.1382  0.3383  0.0567
16119TIP3    H169772   4.806   4.609   3.188  0.1141 -0.2969  0.4294
16119TIP3    H269773   4.733   4.592   3.057  0.4170  0.6286  0.1375
16120TIP3   OH269774   5.985   2.827   3.396 -0.2220 -0.3187  0.0951
16120TIP3    H169775   5.918   2.783   3.344 -0.1420 -0.5533  0.1883
16120TIP3    H269776   5.985   2.780   3.479 -0.2225 -0.0622  0.2435
16121TIP3   OH269777   4.048   0.270   0.092  0.3408  0.7611  0.2438
16121TIP3    H169778   4.072   0.187   0.052 -3.4804 -0.7654  0.6958
16121TIP3    H269779   4.080   0.336   0.031  0.7866 -1.1509 -1.7408
16122TIP3   OH269780   6.152   4.593   0.084 -0.6072 -0.3814 -0.0430
16122TIP3    H169781   6.142   4.525   0.151 -1.4643  0.3531  0.6163
16122TIP3    H269782   6.115   4.555   0.005  1.5907 -1.7461 -0.4780
16123TIP3   OH269783   4.107   2.684  16.168 -0.2574 -0.3601 -0.0922
16123TIP3    H169784   4.133   2.635  16.091  0.3430 -1.5356  0.8213
16123TIP3    H269785   4.041   2.746  16.137  1.2920  0.4831 -1.8787
16124TIP3   OH269786   2.225   5.984   0.714 -0.3706  0.7813 -0.4714
16124TIP3    H169787   2.276   5.971   0.634 -1.6282  1.6398 -1.4413
16124TIP3    H269788   2.236   6.078   0.734 -2.2683  1.1957 -1.2201
16125TIP3   OH269789   4.397   1.647  15.777  0.0614 -0.5192  0.5085
16125TIP3    H169790   4.478   1.698  15.772  0.7763 -1.4450  2.0572
16125TIP3    H269791   4.343   1.680  15.704  1.8258  0.0908 -0.5763
16126TIP3   OH269792   4.402   1.313  12.854 -0.3217  0.4847 -0.3806
16126TIP3    H169793   4.321   1.342  12.896 -0.3858 -0.5283  0.2416
16126TIP3    H269794   4.471   1.345  12.911 -0.4262 -1.3753  0.9085
16127TIP3   OH269795   2.072   2.310   5.748  0.0312  0.2235 -0.4112
16127TIP3    H169796   2.040   2.391   5.708 -0.8370  0.9015  1.5433
16127TIP3    H269797   2.000   2.280   5.803  1.3559 -0.3040  1.1145
16128TIP3   OH269798   4.591   5.227   3.389 -0.1098 -0.0962 -0.2159
16128TIP3    H169799   4.627   5.240   3.476  0.1192 -0.6871 -0.2164
16128TIP3    H269800   4.517   5.288   3.384 -1.0506 -1.1026  0.9269
16129TIP3   OH269801   3.981   2.247  17.592  0.1408  0.4408  0.4643
16129TIP3    H169802   3.897   2.286  17.569  0.5359  1.1792  0.2267
16129TIP3    H269803   4.006   2.288  17.674  0.4502  0.5179  0.3350
16130TIP3   OH269804   0.101   6.562  17.506 -0.2436  0.4374  0.1200
16130TIP3    H169805   0.135   6.526  17.588 -0.0648  0.1624 -0.0728
16130TIP3    H269806   0.159   6.636  17.487 -2.2723  2.6795  1.9859
16131TIP3   OH269807   0.745   6.551  15.753 -0.6340 -0.4583 -0.0508
16131TIP3    H169808   0.776   6.575  15.666 -0.9433  2.3142  0.5160
16131TIP3    H269809   0.652   6.533  15.741 -0.9092  0.9060 -0.1961
16132TIP3   OH269810   4.760   0.229  13.157 -0.7725  0.0126  0.0677
16132TIP3    H169811   4.693   0.286  13.196 -1.4428 -0.0546 -0.9432
16132TIP3    H269812   4.751   0.243  13.062 -1.9981 -2.9221 -0.3296
16133TIP3   OH269813   5.016   3.569   1.645 -0.4116  0.1798 -0.1559
16133TIP3    H169814   5.034   3.663   1.643 -0.3008  0.2417  1.7376
16133TIP3    H269815   4.927   3.561   1.611 -0.1594  0.8634 -1.0325
16134TIP3   OH269816   1.904   4.800   4.171  0.6074  0.5434 -0.0870
16134TIP3    H169817   1.901   4.776   4.078 -0.2281  0.0793  0.0532
16134TIP3    H269818   1.817   4.778   4.204  0.8825  0.7633  0.7980
16135TIP3   OH269819   5.104   2.520   0.633  0.0993 -0.0372 -0.3748
16135TIP3    H169820   5.059   2.522   0.549  0.7564 -1.6346 -0.8096
16135TIP3    H269821   5.139   2.431   0.639 -0.9475 -0.3656  2.1426
16136TIP3   OH269822   2.584   2.839   4.310 -0.0280 -0.2125 -0.3174
16136TIP3    H169823   2.625   2.912   4.356  0.3453 -1.0309  0.6872
16136TIP3    H269824   2.614   2.761   4.357 -0.4839 -1.0091 -1.3144
16137TIP3   OH269825   1.565   2.514   4.300 -0.0619  0.2696 -0.1295
16137TIP3    H169826   1.537   2.603   4.282  0.3006  0.3193 -0.4369
16137TIP3    H269827   1.609   2.485   4.220 -0.5129 -0.3163 -0.1716
16138TIP3   OH269828   0.333   3.233   4.739 -0.2545  0.2414  0.6855
16138TIP3    H169829   0.242   3.257   4.724 -0.0539 -0.4832 -2.3009
16138TIP3    H269830   0.344   3.239   4.834 -3.3248  0.5654  1.1213
16139TIP3   OH269831   5.314   2.301  16.901  0.7918  0.7979 -0.3487
16139TIP3    H169832   5.270   2.357  16.837 -1.4047 -2.4449 -1.9777
16139TIP3    H269833   5.244   2.269  16.958  1.6413 -1.3389 -0.4092
16140TIP3   OH269834   6.171   1.928   0.742 -0.5541  0.3797 -0.3488
16140TIP3    H169835   6.122   1.960   0.817 -1.1583  0.0672 -0.6006
16140TIP3    H269836   6.127   1.966   0.666  0.4847  1.2686 -0.5274
16141TIP3   OH269837   2.920   3.115  11.471  0.1124 -0.7261  0.0475
16141TIP3    H169838   2.906   3.132  11.377  1.5035  0.2249 -0.0334
16141TIP3    H269839   2.906   3.021  11.481 -3.0222 -0.4235 -0.4978
16142TIP3   OH269840   6.434   1.592   5.768 -0.4321 -0.1027 -0.0049
16142TIP3    H169841   6.529   1.583   5.754 -0.5124  0.1830 -0.7897
16142TIP3    H269842   6.425   1.667   5.826 -0.1695 -0.1913  0.1524
16143TIP3   OH269843   4.368   1.923  17.150  0.0498 -0.2472  0.2925
16143TIP3    H169844   4.335   1.953  17.235  4.0563  0.0608  1.9329
16143TIP3    H269845   4.411   1.839  17.169  0.8419 -0.2847 -1.4726
16144TIP3   OH269846   1.383   0.521   2.098 -0.2798 -0.0358 -0.5410
16144TIP3    H169847   1.413   0.606   2.065  0.7337 -0.3874 -0.5614
16144TIP3    H269848   1.320   0.543   2.166 -1.0719  0.7153 -1.4839
16145TIP3   OH269849   4.001   0.761  11.759  0.3679  0.7042  0.0505
16145TIP3    H169850   3.906   0.762  11.775  0.2157 -0.4132 -0.6669
16145TIP3    H269851   4.036   0.822  11.823 -0.5586 -0.9427  2.2456
16146TIP3   OH269852   3.900   2.483   1.956 -0.2188  0.6562 -0.4102
16146TIP3    H169853   3.877   2.390   1.967 -2.2851  1.0681 -0.7751
16146TIP3    H269854   3.989   2.482   1.920  0.6595 -1.0984  1.5899
16147TIP3   OH269855   2.601   1.648  10.933 -0.5456 -0.2574 -0.8308
16147TIP3    H169856   2.550   1.567  10.941  0.2636 -0.6388  1.5019
16147TIP3    H269857   2.686   1.619  10.899 -0.4764 -0.2980 -0.6258
16148TIP3   OH269858   2.197   1.813   4.917  0.6092 -0.3615 -0.0807
16148TIP3    H169859   2.287   1.784   4.903  0.0137 -2.3989 -0.0615
16148TIP3    H269860   2.148   1.777   4.843 -0.1292  1.2126 -0.4091
16149TIP3   OH269861   0.020   6.353   0.787 -0.4118 -0.1387  0.1213
16149TIP3    H169862   0.061   6.318   0.709  2.6856  0.4936  1.3058
16149TIP3    H269863   0.043   6.446   0.787 -2.4603  0.4286  0.5801
16150TIP3   OH269864   0.997   3.504  15.429  0.4191  0.1797 -0.0976
16150TIP3    H169865   1.037   3.587  15.455  0.8577 -0.1191  0.1974
16150TIP3    H269866   1.069   3.441  15.432  0.3449 -0.0046 -1.3740
16151TIP3   OH269867   2.743   2.088  13.554  0.7012 -0.0263 -0.3524
16151TIP3    H169868   2.785   2.032  13.619  1.3612  2.2797  1.3466
16151TIP3    H269869   2.690   2.149  13.606 -1.0983  0.0952 -2.1850
16152TIP3   OH269870   1.635   2.490   4.721  0.0899 -0.1183 -0.0415
16152TIP3    H169871   1.638   2.427   4.794  0.7261  0.9754  0.9122
16152TIP3    H269872   1.571   2.555   4.748 -0.0236  0.0430 -0.6839
16153TIP3   OH269873   1.184   1.471   2.253  0.5433 -0.3760  0.2039
16153TIP3    H169874   1.244   1.530   2.300  0.6518 -1.3169  1.2841
16153TIP3    H269875   1.099   1.516   2.256  1.1667  0.9969 -1.3898
16154TIP3   OH269876   3.672   3.200  11.892  0.5252 -0.2819  0.1939
16154TIP3    H169877   3.739   3.188  11.960 -0.9953 -0.2133  1.7983
16154TIP3    H269878   3.687   3.128  11.831  0.7753 -1.5523  1.6671
16155TIP3   OH269879   4.755   3.726  13.031 -0.0694 -0.6007  0.3278
16155TIP3    H169880   4.720   3.805  12.990  0.4405 -1.8205 -2.7220
16155TIP3    H269881   4.678   3.670  13.042 -0.2075 -0.2712  1.0934
16156TIP3   OH269882   0.984   4.791   0.268 -0.0384  0.6326  0.7886
16156TIP3    H169883   0.936   4.731   0.212 -0.5402  0.2234  1.6399
16156TIP3    H269884   1.016   4.859   0.209 -0.3963  0.1146 -0.0120
16157TIP3   OH269885   2.935   0.148  15.449 -0.3293 -0.0229  0.1792
16157TIP3    H169886   2.910   0.211  15.381  0.1107 -0.6548 -0.5784
16157TIP3    H269887   2.898   0.065  15.419  2.1536 -0.8936 -0.7256
16158TIP3   OH269888   4.831   4.764   1.382 -0.2868  0.7373  0.1844
16158TIP3    H169889   4.870   4.833   1.435  0.3629 -0.7664  1.7727
16158TIP3    H269890   4.814   4.693   1.444 -1.0065 -0.5010 -1.3572
16159TIP3   OH269891   3.765   5.545  16.074 -0.4920  0.2681  0.3828
16159TIP3    H169892   3.683   5.511  16.037  0.7290 -1.4294 -0.9488
16159TIP3    H269893   3.750   5.639  16.082 -2.4201  0.0612 -0.2320
16160TIP3   OH269894   3.960   6.569   6.175 -0.6974  0.1325 -0.1689
16160TIP3    H169895   3.968   6.479   6.207  0.1784 -0.0860 -0.9383
16160TIP3    H269896   3.867   6.590   6.182 -0.8840 -0.7884  0.1507
16161TIP3   OH269897   5.833   4.577  12.290  0.3128  0.0312 -0.6693
16161TIP3    H169898   5.863   4.655  12.336 -0.5451  0.0706 -0.1492
16161TIP3    H269899   5.785   4.527  12.357 -2.4630  0.9020 -1.8405
16162TIP3   OH269900   2.174   2.343   6.775 -0.1380 -0.0991 -0.5440
16162TIP3    H169901   2.240   2.409   6.751  1.1471 -0.7388  1.0206
16162TIP3    H269902   2.147   2.305   6.692  1.9760 -0.2466 -1.2400
16163TIP3   OH269903   0.747   4.077   3.824 -0.1025 -0.4131 -0.0222
16163TIP3    H169904   0.736   4.089   3.918 -1.8802 -1.6636 -0.0299
16163TIP3    H269905   0.658   4.074   3.789  0.3883  3.4944 -2.3009
16164TIP3   OH269906   3.594   4.716  12.850  0.5713  0.4544 -0.3877
16164TIP3    H169907   3.613   4.810  12.851 -1.6406  1.0163 -2.2990
16164TIP3    H269908   3.582   4.696  12.757  0.9464 -1.7475 -0.0160
16165TIP3   OH269909   4.223   3.039   5.050  0.4564  0.5378 -0.0598
16165TIP3    H169910   4.282   3.063   4.978  0.6699 -0.6826 -0.3094
16165TIP3    H269911   4.139   3.022   5.007  0.6288 -0.3650 -0.0572
16166TIP3   OH269912   2.345   1.176   6.465  0.2905  0.1728  0.8950
16166TIP3    H169913   2.441   1.174   6.456  0.3568 -1.6444  1.6217
16166TIP3    H269914   2.324   1.099   6.518 -1.4425  1.5303  2.3157
16167TIP3   OH269915   1.272   3.589  12.766 -0.4396  0.0346 -0.3307
16167TIP3    H169916   1.212   3.552  12.831 -0.5366  1.8573  0.6946
16167TIP3    H269917   1.270   3.683  12.783  1.3664  0.3174 -1.4533
16168TIP3   OH269918   4.538   6.294   6.137  0.5046 -0.2833 -0.1423
16168TIP3    H169919   4.561   6.384   6.112 -0.8693  0.2635  0.4591
16168TIP3    H269920   4.621   6.246   6.131  1.7438  1.4666  1.4749
16169TIP3   OH269921   5.890   1.337   2.086  0.8617 -0.6569 -0.3382
16169TIP3    H169922   5.814   1.279   2.092 -0.9766  1.7311  1.3823
16169TIP3    H269923   5.905   1.347   1.991 -0.7574 -1.4307 -0.7094
16170TIP3   OH269924   4.720   2.433  13.227  0.1837 -0.0572 -0.0105
16170TIP3    H169925   4.662   2.476  13.290 -0.0199  1.3058 -1.0730
16170TIP3    H269926   4.689   2.343  13.223 -2.3691  0.7854 -1.0553
16171TIP3   OH269927   3.239   2.926   1.625  0.2135  0.5334 -0.3305
16171TIP3    H169928   3.274   2.842   1.594  2.4111  2.2599 -3.0515
16171TIP3    H269929   3.168   2.946   1.564  0.1305  0.9641 -0.0910
16172TIP3   OH269930   3.800   4.452   2.977 -0.3288  0.4769 -0.0261
16172TIP3    H169931   3.856   4.495   2.913  1.5652 -0.2295  1.0701
16172TIP3    H269932   3.807   4.359   2.956 -0.3420  0.3096  0.6909
16173TIP3   OH269933   2.113   4.936   4.539 -0.5199 -0.2036 -0.4935
16173TIP3    H169934   2.086   4.965   4.451  1.3255  1.5453 -0.5443
16173TIP3    H269935   2.190   4.881   4.524  0.0525  0.4356  0.0270
16174TIP3   OH269936   1.440   3.576   0.000  0.5556  0.3462 -0.0470
16174TIP3    H169937   1.450   3.536   0.087 -0.5899 -1.9195 -0.8701
16174TIP3    H269938   1.346   3.581  -0.014  0.6397 -1.8944 -2.1635
16175TIP3   OH269939   0.027   2.646   2.593 -0.1207 -0.0515  0.1937
16175TIP3    H169940   0.012   2.603   2.509 -0.2166  0.6877 -0.1729
16175TIP3    H269941   0.091   2.590   2.637 -1.8234 -1.7737  0.6526
16176TIP3   OH269942   6.616   4.470   0.498  0.0866  0.2208 -0.2320
16176TIP3    H169943   6.691   4.452   0.440  0.6338 -0.0895  0.5500
16176TIP3    H269944   6.603   4.387   0.545  0.0430  0.6490  0.5173
16177TIP3   OH269945   0.603   0.181  13.932  0.1810 -0.1023 -0.1624
16177TIP3    H169946   0.620   0.273  13.950  0.7117 -0.3903  0.9037
16177TIP3    H269947   0.542   0.154  14.000 -0.2117 -0.4733 -0.6481
16178TIP3   OH269948   1.432   6.442  17.626 -0.1680  0.0066 -0.0768
16178TIP3    H169949   1.373   6.516  17.613 -0.3960 -0.3536 -1.1744
16178TIP3    H269950   1.378   6.365  17.607  1.0663 -0.2759 -2.9225
16179TIP3   OH269951   4.221   5.883   2.075 -0.0318 -0.1191  0.4381
16179TIP3    H169952   4.229   5.882   2.170 -0.6731 -0.8582  0.4964
16179TIP3    H269953   4.127   5.896   2.058  0.4084  3.0886 -0.1495
16180TIP3   OH269954   3.489   1.694   3.746 -0.0393 -0.8459  0.0907
16180TIP3    H169955   3.394   1.708   3.755  0.1269  0.6039 -0.1848
16180TIP3    H269956   3.524   1.711   3.834  0.0098 -0.9926  0.0994
16181TIP3   OH269957   6.665   4.047   0.240 -0.3764 -0.2577 -0.2136
16181TIP3    H169958   6.744   4.092   0.210  0.5528 -0.6945  1.4353
16181TIP3    H269959   6.672   3.960   0.203  0.0414 -0.3642  0.1071
16182TIP3   OH269960   3.105   4.871   2.365  0.0109 -0.1456  0.3899
16182TIP3    H169961   3.181   4.813   2.356  2.2271  2.3948  1.2318
16182TIP3    H269962   3.092   4.879   2.459 -0.1290  0.8253  0.3008
16183TIP3   OH269963   2.483   1.555  13.879  0.1818 -0.6202  0.1347
16183TIP3    H169964   2.412   1.594  13.929 -1.1181 -1.8012 -0.7251
16183TIP3    H269965   2.509   1.622  13.816  0.4983  0.1540  1.0659
16184TIP3   OH269966   0.970   3.288  15.710  0.0865 -0.1813 -0.0670
16184TIP3    H169967   0.977   3.198  15.679 -1.0160  0.2366 -1.6461
16184TIP3    H269968   0.934   3.280  15.799 -1.2036 -1.2536 -0.6592
16185TIP3   OH269969   5.584   0.937   0.434  0.2990  0.1226  0.1972
16185TIP3    H169970   5.534   0.858   0.414 -1.1751  0.7674  1.1453
16185TIP3    H269971   5.655   0.907   0.490 -1.0117 -0.3903  1.6571
16186TIP3   OH269972   1.687   3.791  17.198 -0.3203  0.2250  0.4903
16186TIP3    H169973   1.619   3.830  17.252 -0.0159  0.6929  0.5384
16186TIP3    H269974   1.707   3.708  17.241  0.0479  0.6751  1.2071
16187TIP3   OH269975   4.299   1.668   2.032  0.0279 -0.2256 -0.1516
16187TIP3    H169976   4.267   1.595   1.978  0.9036 -0.1080 -0.8425
16187TIP3    H269977   4.261   1.746   1.992 -1.1231 -0.2981  0.7441
16188TIP3   OH269978   6.615   6.331  15.092 -0.4527  0.6827  0.2288
16188TIP3    H169979   6.607   6.240  15.062 -2.1796  0.8427  0.0640
16188TIP3    H269980   6.654   6.377  15.019 -2.9914  0.7284 -1.2225
16189TIP3   OH269981   0.325   0.925   3.382 -0.0300  0.1199 -0.1836
16189TIP3    H169982   0.302   0.962   3.467  1.5061  0.0042  0.3154
16189TIP3    H269983   0.355   1.000   3.331 -0.4004  0.1027 -0.4268
16190TIP3   OH269984   2.326   2.781   3.798 -0.0371  0.5155 -0.0899
16190TIP3    H169985   2.371   2.810   3.878  0.9659 -1.7167  0.2515
16190TIP3    H269986   2.395   2.738   3.747 -0.4815  2.5817 -2.5883
16191TIP3   OH269987   1.202   5.562  17.103  0.4816  0.5732 -0.7211
16191TIP3    H169988   1.137   5.607  17.050  0.6981  2.5150  0.5393
16191TIP3    H269989   1.277   5.549  17.045  0.5070  2.1334 -1.0657
16192TIP3   OH269990   3.256   2.783  12.548  0.1751 -0.0297 -0.2442
16192TIP3    H169991   3.348   2.793  12.522  0.2013 -0.1526 -0.1986
16192TIP3    H269992   3.206   2.819  12.474  0.2532 -0.2072 -0.3844
16193TIP3   OH269993   5.844   5.967  15.668  0.0624 -0.4053  0.4111
16193TIP3    H169994   5.887   6.022  15.603  0.5409 -2.6084 -1.2714
16193TIP3    H269995   5.903   5.892  15.679 -1.0946 -1.1849  1.6903
16194TIP3   OH269996   1.873   6.133   5.116 -0.0794 -0.4713  0.1600
16194TIP3    H169997   1.822   6.065   5.161  0.2117 -1.5814 -1.1315
16194TIP3    H269998   1.859   6.116   5.023 -0.3340  1.5168 -0.2219
16195TIP3   OH269999   3.561   3.053  14.509  1.4168  0.4467 -0.1398
16195TIP3    H170000   3.492   3.090  14.564  0.1163 -2.8782  0.7604
16195TIP3    H270001   3.642   3.091  14.542  0.4173  0.6643  2.2908
16196TIP3   OH270002   3.588   3.027   0.376 -0.4157 -0.1100  0.3216
16196TIP3    H170003   3.536   2.980   0.441  1.1368 -1.4482  0.6438
16196TIP3    H270004   3.636   3.093   0.426  0.1569 -0.5999  0.4288
16197TIP3   OH270005   0.455   5.253   6.759  0.2965  0.0692 -0.2187
16197TIP3    H170006   0.471   5.178   6.817 -1.7287 -0.1886  0.0686
16197TIP3    H270007   0.539   5.299   6.756  1.3086 -1.6475  0.4023
16198TIP3   OH270008   1.863   1.373   0.168  0.3804  0.1358 -0.1557
16198TIP3    H170009   1.936   1.322   0.202 -0.7747 -1.5395 -0.0992
16198TIP3    H270010   1.890   1.464   0.181  2.3604 -0.4323  0.0177
16199TIP3   OH270011   3.655   2.582  14.538 -0.4430  0.3389  0.4526
16199TIP3    H170012   3.577   2.605  14.487  0.1462 -1.2662 -1.2831
16199TIP3    H270013   3.674   2.491  14.513  1.9591  0.6629  0.8393
16200TIP3   OH270014   1.896   4.580   0.574 -0.4290  0.5605  0.8231
16200TIP3    H170015   1.908   4.662   0.622  1.2045 -0.1615  1.7239
16200TIP3    H270016   1.805   4.583   0.545 -0.8568  1.9966  2.1487
16201TIP3   OH270017   5.224   6.364  11.838  0.0273 -0.1043 -0.6036
16201TIP3    H170018   5.286   6.378  11.767  2.4508 -1.3874  1.0904
16201TIP3    H270019   5.197   6.452  11.864  2.3493  0.6570 -0.4798
16202TIP3   OH270020   2.320   2.180  14.799 -0.5407  0.2968  0.3116
16202TIP3    H170021   2.308   2.275  14.798 -0.2235  0.3746  1.6490
16202TIP3    H270022   2.366   2.163  14.882 -0.3928 -0.9965 -0.0226
16203TIP3   OH270023   4.662   4.698  12.951  0.0195  0.4995 -0.5691
16203TIP3    H170024   4.634   4.781  12.990  0.2545  1.1656 -1.7695
16203TIP3    H270025   4.605   4.632  12.991  0.4469  1.0878  1.1012
16204TIP3   OH270026   1.567   5.388   1.540  0.3810  0.1629 -0.4078
16204TIP3    H170027   1.522   5.313   1.500  1.3880 -1.2461  0.9726
16204TIP3    H270028   1.660   5.370   1.527  0.6745  0.4795  1.0753
16205TIP3   OH270029   2.156   2.571  15.155  0.2976  0.4132  0.3956
16205TIP3    H170030   2.104   2.514  15.099  0.4177  1.1229 -0.4471
16205TIP3    H270031   2.152   2.529  15.241  0.0288 -0.6342 -0.1074
16206TIP3   OH270032   3.711   6.062  12.915 -0.0822 -0.5925 -0.9456
16206TIP3    H170033   3.685   5.979  12.875  0.1763 -2.4936  2.4656
16206TIP3    H270034   3.807   6.062  12.910 -0.0984 -0.1703 -1.4281
16207TIP3   OH270035   3.327   1.036  12.853 -0.5209  0.1642  0.5049
16207TIP3    H170036   3.397   1.002  12.909 -0.8729 -1.9327 -0.2379
16207TIP3    H270037   3.361   1.028  12.764 -1.8086 -1.2484  0.1019
16208TIP3   OH270038   5.933   4.381   5.889  0.5642  0.1830 -0.5238
16208TIP3    H170039   5.944   4.457   5.946  0.4759 -1.0488  1.2098
16208TIP3    H270040   6.020   4.341   5.885  0.6462  0.4296 -1.5521
16209TIP3   OH270041   1.444   2.657  15.312  0.5112 -0.2973  0.8376
16209TIP3    H170042   1.368   2.662  15.254  0.3570  0.5282  1.0914
16209TIP3    H270043   1.472   2.748  15.321  2.8280 -0.7247 -0.9541
16210TIP3   OH270044   2.030   4.380   4.344 -0.1981 -0.2724  0.5150
16210TIP3    H170045   2.029   4.475   4.336  0.2657 -0.3187 -0.1966
16210TIP3    H270046   1.938   4.354   4.345 -0.3467  0.0177 -1.5368
16211TIP3   OH270047   0.031   4.014   4.242  0.1288  0.4213 -0.3630
16211TIP3    H170048   0.055   4.105   4.257  0.0936  0.3618  0.0684
16211TIP3    H270049   0.114   3.969   4.230  0.2012  0.3642  0.2843
16212TIP3   OH270050   5.070   0.734   3.019  0.2238 -0.1563 -0.4483
16212TIP3    H170051   5.150   0.786   3.030 -0.1400  0.1426  1.0229
16212TIP3    H270052   5.046   0.746   2.927  1.9095 -0.3262 -0.9503
16213TIP3   OH270053   2.093   2.745  13.092 -0.2192 -0.3309  0.2902
16213TIP3    H170054   2.085   2.775  13.002 -2.1034 -0.3100  0.4272
16213TIP3    H270055   2.053   2.658  13.092  1.7755 -1.2905  0.6728
16214TIP3   OH270056   5.955   0.829   2.410 -0.2418 -0.3626 -0.3641
16214TIP3    H170057   5.918   0.897   2.354  1.5547  0.4703 -0.6331
16214TIP3    H270058   5.985   0.762   2.348  0.9411  0.1471 -0.3727
16215TIP3   OH270059   0.175   4.316  11.589 -0.4608  0.6999 -0.1640
16215TIP3    H170060   0.218   4.399  11.573  0.8009 -0.3009 -2.3499
16215TIP3    H270061   0.241   4.250  11.568 -2.1771 -0.8706 -0.9236
16216TIP3   OH270062   3.693   5.780   3.414 -0.0404 -0.0620 -0.1233
16216TIP3    H170063   3.732   5.864   3.388  1.8583 -0.3406  1.5599
16216TIP3    H270064   3.609   5.805   3.454  1.2844  1.3376  2.0412
16217TIP3   OH270065   0.837   2.761  16.890 -0.0182  0.2768 -0.0585
16217TIP3    H170066   0.874   2.686  16.844 -1.9175 -1.2258  0.7349
16217TIP3    H270067   0.757   2.783  16.842 -0.3071  0.7842  0.6218
16218TIP3   OH270068   0.649   3.403   3.581  0.1660  0.7178  0.2592
16218TIP3    H170069   0.716   3.471   3.592  0.6483  0.1983  0.6223
16218TIP3    H270070   0.567   3.451   3.576  0.3706  1.2852  1.6595
16219TIP3   OH270071   2.459   4.082  16.182 -0.5453  0.1379 -0.0090
16219TIP3    H170072   2.501   4.038  16.108 -2.7172 -1.6389 -0.3036
16219TIP3    H270073   2.517   4.154  16.203  2.0164 -1.4871 -1.0550
16220TIP3   OH270074   4.088   3.424  13.199 -0.3234 -0.2057  0.2135
16220TIP3    H170075   4.015   3.363  13.186  0.4288 -1.0124 -0.3933
16220TIP3    H270076   4.111   3.453  13.110 -0.8319  1.1746  0.5122
16221TIP3   OH270077   2.978   6.238   6.679  0.1205 -0.5555  0.2275
16221TIP3    H170078   2.945   6.174   6.742  0.2839 -0.9908 -0.1250
16221TIP3    H270079   2.902   6.259   6.623  0.0700 -0.4478  0.3364
16222TIP3   OH270080   4.784   4.191  15.975 -0.1121  0.6674  0.0498
16222TIP3    H170081   4.832   4.173  16.057  1.0276 -1.1351 -0.9504
16222TIP3    H270082   4.731   4.113  15.961 -1.2007  1.4566 -0.3683
16223TIP3   OH270083   6.273   5.193   3.978  0.4856  0.0869 -0.0416
16223TIP3    H170084   6.368   5.199   3.970  0.7173 -0.1014  2.0755
16223TIP3    H270085   6.257   5.103   4.008 -0.1734  0.6831  1.4965
16224TIP3   OH270086   2.831   3.743   4.409  0.0099 -0.1196 -0.3913
16224TIP3    H170087   2.819   3.831   4.374  0.5651  0.0919 -0.0500
16224TIP3    H270088   2.827   3.686   4.331 -2.0187  0.0267 -0.4373
16225TIP3   OH270089   5.792   3.003   3.783 -0.1146  0.4349  0.2729
16225TIP3    H170090   5.804   3.097   3.777 -2.6860  0.8705  0.7259
16225TIP3    H270091   5.724   2.983   3.719 -3.2072 -0.2047  3.4304
16226TIP3   OH270092   3.098   0.504  11.644 -0.4702  0.3465  0.0030
16226TIP3    H170093   3.153   0.463  11.577  0.9817  1.6756  0.3185
16226TIP3    H270094   3.068   0.585  11.603 -1.5275  0.0325  0.1414
16227TIP3   OH270095   1.966   2.785   4.352  0.1445 -0.1918  0.3610
16227TIP3    H170096   2.026   2.771   4.279 -1.5457 -1.7304 -0.8353
16227TIP3    H270097   1.951   2.698   4.388 -1.9422 -0.0062  0.0862
16228TIP3   OH270098   5.796   1.481   3.273 -0.9601  0.2385  0.1023
16228TIP3    H170099   5.756   1.564   3.297 -2.2413 -0.0144 -1.1009
16228TIP3    H270100   5.884   1.485   3.312 -1.2054  1.8957  0.5483
16229TIP3   OH270101   3.440   0.027  13.075 -0.4399 -0.0940 -0.1454
16229TIP3    H170102   3.388   0.108  13.068 -1.1814 -0.3344  1.8769
16229TIP3    H270103   3.511   0.050  13.134  0.5027 -0.3966 -1.1386
16230TIP3   OH270104   4.885   3.692   3.154 -0.0074  0.2672 -0.4273
16230TIP3    H170105   4.860   3.699   3.062  0.2021 -2.2779 -0.7596
16230TIP3    H270106   4.805   3.711   3.202 -0.7391 -0.6024 -1.2546
16231TIP3   OH270107   0.543   5.168   0.652  0.4031 -0.0701  0.6597
16231TIP3    H170108   0.636   5.187   0.662  1.0224 -0.6759 -2.6744
16231TIP3    H270109   0.512   5.228   0.584 -1.8936  0.5836  2.1328
16232TIP3   OH270110   6.303   2.109   0.555  0.0185 -0.4485  0.3116
16232TIP3    H170111   6.309   2.018   0.523 -0.8366  0.0197 -1.3050
16232TIP3    H270112   6.245   2.152   0.492 -4.2666 -0.0554  4.0282
16233TIP3   OH270113   2.720   4.013  13.317  0.1049  0.3655  0.0653
16233TIP3    H170114   2.717   4.075  13.244  0.0475 -2.7733 -2.8978
16233TIP3    H270115   2.805   3.969  13.306 -0.9065 -1.7924  0.3408
16234TIP3   OH270116   2.113   6.534   5.443 -0.0261 -0.3793  0.3273
16234TIP3    H170117   2.062   6.525   5.363  1.5762  2.3586 -1.1498
16234TIP3    H270118   2.048   6.551   5.511 -1.2393  1.4582 -1.2002
16235TIP3   OH270119   0.600   0.390   3.803 -0.1252 -0.3818 -0.1234
16235TIP3    H170120   0.691   0.372   3.779 -0.2173 -0.7244 -0.2134
16235TIP3    H270121   0.592   0.356   3.892  0.3602  1.3420  0.6323
16236TIP3   OH270122   4.916   3.768   0.912 -0.2453  0.3483  0.3918
16236TIP3    H170123   4.906   3.689   0.965  0.4499 -0.0119  0.0029
16236TIP3    H270124   5.006   3.764   0.879 -0.7671  0.3544 -1.1235
16237TIP3   OH270125   1.918   2.490  12.401 -0.3615 -0.5499 -0.1536
16237TIP3    H170126   1.891   2.434  12.474 -1.4496 -0.6649 -0.6164
16237TIP3    H270127   1.838   2.539  12.379  0.6328  1.4264  0.4464
16238TIP3   OH270128   0.002   2.348  14.424  0.6463 -0.3476 -0.0601
16238TIP3    H170129   0.052   2.317  14.348 -0.6087 -3.0681  0.1106
16238TIP3    H270130   0.068   2.374  14.488  1.7505  0.0300 -1.3187
16239TIP3   OH270131   1.294   3.436  14.001  0.6186  0.5209  0.1129
16239TIP3    H170132   1.222   3.492  14.029  1.1546  0.8708  0.8232
16239TIP3    H270133   1.336   3.484  13.930  0.8883  0.8819  0.5133
16240TIP3   OH270134   1.338   2.262   1.774  0.1109  0.9332  0.4298
16240TIP3    H170135   1.253   2.223   1.791  0.4726 -0.2242 -0.2903
16240TIP3    H270136   1.325   2.356   1.786 -1.0881  0.7036  0.9944
16241TIP3   OH270137   3.064   1.530   5.961  0.4963  0.2662  0.3854
16241TIP3    H170138   3.028   1.461   6.017  0.0801  0.4197  0.3139
16241TIP3    H270139   3.093   1.598   6.023  0.6150  0.1620  0.4430
16242TIP3   OH270140   1.449   4.011  12.507 -0.3404  0.0405  0.3085
16242TIP3    H170141   1.499   4.092  12.521 -1.6522  1.1971 -1.2462
16242TIP3    H270142   1.373   4.039  12.456 -1.3610 -2.0385  0.5840
16243TIP3   OH270143   5.213   0.495   3.449  0.1549  0.0097  0.1364
16243TIP3    H170144   5.226   0.406   3.481  1.0571 -0.2425 -0.8483
16243TIP3    H270145   5.118   0.503   3.438  0.0624 -0.8374  0.2215
16244TIP3   OH270146   1.643   3.802  16.158 -0.0407  0.2480 -0.1080
16244TIP3    H170147   1.558   3.778  16.122 -0.8391  0.4052  1.5430
16244TIP3    H270148   1.622   3.838  16.245  1.8703 -1.8471  1.3319
16245TIP3   OH270149   1.160   6.641   4.500  0.1476 -0.4918  0.2398
16245TIP3    H170150   1.251   6.629   4.527  0.0651  0.6363  1.1048
16245TIP3    H270151   1.165   6.696   4.421  0.1875  0.8128  1.1177
16246TIP3   OH270152   1.061   1.601   1.416  0.9239 -0.0471 -0.2460
16246TIP3    H170153   0.967   1.611   1.433  0.6896  0.0481 -1.5546
16246TIP3    H270154   1.102   1.669   1.469  0.4264 -1.1457  1.6887
16247TIP3   OH270155   0.074   0.069   2.310 -0.0773 -0.7394  0.2136
16247TIP3    H170156   0.055  -0.007   2.255  1.5292 -1.3778  0.4802
16247TIP3    H270157  -0.007   0.120   2.309 -0.4531 -1.2880 -1.8266
16248TIP3   OH270158   1.588   6.312   3.534  0.2150  0.6365 -0.1369
16248TIP3    H170159   1.580   6.403   3.563  0.3112  0.4634  0.4447
16248TIP3    H270160   1.648   6.272   3.597  0.7751  0.3613 -0.8317
16249TIP3   OH270161   2.148   5.633  11.943  0.7312 -0.1696 -0.0164
16249TIP3    H170162   2.228   5.684  11.932  1.3357 -1.2551 -0.8416
16249TIP3    H270163   2.160   5.556  11.887 -0.4820 -0.8351  0.5897
16250TIP3   OH270164   5.166   3.043  16.044 -0.4955 -0.6935  0.3612
16250TIP3    H170165   5.156   2.951  16.021 -1.3609 -0.6818  0.6622
16250TIP3    H270166   5.228   3.043  16.117 -1.5631 -1.1731  1.2926
16251TIP3   OH270167   3.434   2.958  13.550 -0.2307  0.1438  0.2066
16251TIP3    H170168   3.420   2.886  13.613 -0.9823 -1.5476 -1.7635
16251TIP3    H270169   3.488   3.021  13.598 -1.8178 -0.4044  2.9784
16252TIP3   OH270170   3.266   4.715  13.587 -0.1878 -0.3385 -0.3360
16252TIP3    H170171   3.266   4.630  13.630 -0.8948 -0.9421 -1.4662
16252TIP3    H270172   3.355   4.722  13.550 -0.1900 -0.6833 -0.4148
16253TIP3   OH270173   0.509   1.125  12.944 -0.0860 -0.0580  0.4860
16253TIP3    H170174   0.449   1.061  12.905 -0.2112  0.3884 -0.0710
16253TIP3    H270175   0.561   1.075  13.007 -0.2289 -0.6922  0.1039
16254TIP3   OH270176   3.963   5.207   6.413 -0.4457 -0.1878 -0.7714
16254TIP3    H170177   3.892   5.162   6.459  1.0445 -0.8868  0.9581
16254TIP3    H270178   3.961   5.296   6.447  1.4071 -0.9885  1.7904
16255TIP3   OH270179   1.891   0.776  16.161 -0.9869  0.2877  0.0141
16255TIP3    H170180   1.884   0.721  16.083  0.3091  0.0794  0.0259
16255TIP3    H270181   1.930   0.857  16.129 -0.2775  0.1342  0.4613
16256TIP3   OH270182   1.106   4.621   0.866  0.0060 -0.5241 -0.0076
16256TIP3    H170183   1.149   4.560   0.807 -0.2832 -0.9568  0.2194
16256TIP3    H270184   1.145   4.706   0.847  1.0378 -0.9247  0.2751
16257TIP3   OH270185   1.518   4.346  11.433 -0.4823  0.5452  0.5482
16257TIP3    H170186   1.523   4.441  11.437  0.9371  0.4872  0.6503
16257TIP3    H270187   1.546   4.324  11.344  1.1756  0.1420  1.1431
16258TIP3   OH270188   3.965   5.710   0.444  0.1712 -0.0099  0.0306
16258TIP3    H170189   3.996   5.672   0.363 -1.4211 -0.8041 -0.2498
16258TIP3    H270190   3.882   5.665   0.461 -1.6210  3.0035 -0.0959
16259TIP3   OH270191   3.809   1.361  14.035  0.0851 -0.3263  0.5050
16259TIP3    H170192   3.834   1.286  13.981  0.3076  0.6246 -0.7500
16259TIP3    H270193   3.776   1.322  14.116  1.4527 -1.7399  0.4283
16260TIP3   OH270194   1.876   6.175  17.330 -0.6077 -0.3758  0.2089
16260TIP3    H170195   1.898   6.082  17.332  0.2202 -0.1831  0.4751
16260TIP3    H270196   1.874   6.197  17.237 -1.2712 -0.7562  0.1265
16261TIP3   OH270197   5.100   6.589  17.152 -0.3775 -0.3825 -0.2818
16261TIP3    H170198   5.067   6.533  17.223  1.1204 -1.7434 -0.5918
16261TIP3    H270199   5.022   6.610  17.101 -1.1612 -1.2439  0.4998
16262TIP3   OH270200   5.941   5.214  16.372  0.0826  0.3461  0.2243
16262TIP3    H170201   5.919   5.255  16.455 -0.2386  0.2789  0.1761
16262TIP3    H270202   6.033   5.188  16.380 -0.1688 -0.3891  0.8633
16263TIP3   OH270203   2.336   1.200  12.002  0.3379  0.2349  0.1282
16263TIP3    H170204   2.317   1.216  11.909 -0.0792 -0.6917  0.0361
16263TIP3    H270205   2.253   1.172  12.039  0.6776 -0.1626  0.6025
16264TIP3   OH270206   3.141   0.909   2.377  0.0676  0.0050  0.6995
16264TIP3    H170207   3.135   0.989   2.324  3.1228 -0.2952 -0.3027
16264TIP3    H270208   3.192   0.849   2.323 -1.1742 -2.2575  1.9251
16265TIP3   OH270209   4.430   3.087   5.889  0.2676 -0.0129  0.1102
16265TIP3    H170210   4.424   3.119   5.799  1.8540 -2.9496 -1.2082
16265TIP3    H270211   4.341   3.059   5.910 -0.2351  1.1915 -0.2980
16266TIP3   OH270212   4.338   2.415  13.249  0.3694  0.1647 -0.5212
16266TIP3    H170213   4.363   2.324  13.267 -0.6460 -0.0779 -0.2885
16266TIP3    H270214   4.250   2.409  13.212 -0.4219  1.1591  1.1061
16267TIP3   OH270215   2.660   2.100  16.566 -0.1616 -0.3131  0.8505
16267TIP3    H170216   2.679   2.182  16.611 -1.5909  1.6576 -1.8633
16267TIP3    H270217   2.745   2.072  16.531  0.2614  0.2085  1.4478
16268TIP3   OH270218   3.149   2.900  16.358 -0.0340 -0.3634  0.0962
16268TIP3    H170219   3.142   2.931  16.267  0.4706  1.5149  0.6374
16268TIP3    H270220   3.240   2.871  16.366  0.1528  0.2413  0.2091
16269TIP3   OH270221   6.371   4.881  13.365 -0.1138  0.4428  0.2345
16269TIP3    H170222   6.428   4.804  13.367  1.2492  1.3853 -0.3022
16269TIP3    H270223   6.432   4.955  13.366 -1.4084  1.5608  2.0564
16270TIP3   OH270224   5.362   3.761  17.358  0.1254  0.0399  0.1349
16270TIP3    H170225   5.435   3.804  17.402  0.7473 -0.9304  0.0928
16270TIP3    H270226   5.314   3.832  17.316  0.6117  0.7757  0.7943
16271TIP3   OH270227   0.333   2.337  15.472 -0.3996 -0.4671  0.5336
16271TIP3    H170228   0.293   2.375  15.395 -1.1928 -2.4564 -0.1115
16271TIP3    H270229   0.336   2.408  15.536  1.2957  1.5416 -1.6270
16272TIP3   OH270230   1.138   1.816  15.202 -0.1807 -0.7975 -0.0115
16272TIP3    H170231   1.133   1.906  15.170 -3.4710 -0.6447  0.5840
16272TIP3    H270232   1.135   1.762  15.123  1.0175 -0.4346 -0.3293
16273TIP3   OH270233   2.420   2.530  12.711  0.6357  0.0552 -0.6529
16273TIP3    H170234   2.354   2.520  12.780 -0.5043 -0.0064 -1.7177
16273TIP3    H270235   2.503   2.521  12.757 -0.1001 -2.3342  0.3697
16274TIP3   OH270236   3.990   4.153  15.219  0.6337 -0.0775 -0.3174
16274TIP3    H170237   4.052   4.082  15.237  1.2743  0.6244  0.3099
16274TIP3    H270238   4.023   4.195  15.139 -0.5749 -1.3697 -1.5644
16275TIP3   OH270239   2.089   5.493   4.814 -0.6927 -0.1285  0.0773
16275TIP3    H170240   2.097   5.565   4.752 -2.4366  0.1385  0.1068
16275TIP3    H270241   2.044   5.424   4.765  1.4038 -1.4542 -0.1134
16276TIP3   OH270242   2.211   4.672  16.199 -0.1137 -0.2760  0.0110
16276TIP3    H170243   2.242   4.584  16.216  0.7225 -0.2180 -1.0867
16276TIP3    H270244   2.256   4.727  16.264  0.8302 -0.4175 -0.5076
16277TIP3   OH270245   5.338   5.879   6.584  0.5186  0.2480 -0.5831
16277TIP3    H170246   5.431   5.877   6.560  0.5402  0.6149 -0.5315
16277TIP3    H270247   5.295   5.922   6.510  0.2488 -0.8364 -1.0658
16278TIP3   OH270248   3.741   3.760   0.239  0.6918 -0.2884 -0.6696
16278TIP3    H170249   3.652   3.789   0.261  0.7799  0.2298 -0.9875
16278TIP3    H270250   3.788   3.761   0.323  0.8713  1.1360 -0.7725
16279TIP3   OH270251   5.394   2.211  14.491  0.2751  0.1646  0.0777
16279TIP3    H170252   5.486   2.187  14.492  0.8181  2.1156 -0.2639
16279TIP3    H270253   5.348   2.128  14.477  1.9280 -0.9120  0.7968
16280TIP3   OH270254   1.268   5.594  16.257  0.3092  0.3920  0.4524
16280TIP3    H170255   1.306   5.674  16.221  1.7697 -0.2441  0.5120
16280TIP3    H270256   1.225   5.552  16.183  0.1045  0.8975  0.2793
16281TIP3   OH270257   3.481   1.443   0.604  0.4366  0.4664 -0.2474
16281TIP3    H170258   3.529   1.435   0.522 -0.0408 -1.7618 -0.3610
16281TIP3    H270259   3.389   1.442   0.578  0.2057 -2.2999  0.3462
16282TIP3   OH270260   2.543   4.320   6.189 -0.1785  0.3770  0.7119
16282TIP3    H170261   2.448   4.309   6.175 -0.5997  1.2102  2.6457
16282TIP3    H270262   2.563   4.266   6.265  1.1529 -0.5859 -0.2610
16283TIP3   OH270263   1.327   5.097  12.333  0.0268 -0.1570 -0.5136
16283TIP3    H170264   1.288   5.081  12.247  0.1701 -4.1248 -0.0102
16283TIP3    H270265   1.281   5.038  12.392  0.5178  1.8410  2.0426
16284TIP3   OH270266   4.477   1.160  14.518  0.4148  0.5545 -0.2652
16284TIP3    H170267   4.440   1.073  14.533  0.4543  0.0136 -2.8962
16284TIP3    H270268   4.566   1.154  14.553  0.1862 -0.2257  0.2156
16285TIP3   OH270269   4.507   2.790  13.569  0.2185  0.4820  0.5054
16285TIP3    H170270   4.425   2.802  13.521 -0.6373  1.5910  2.1192
16285TIP3    H270271   4.479   2.778  13.660  1.8139 -0.2652  0.9177
16286TIP3   OH270272   4.704   0.911  16.230 -0.1184 -0.4792 -0.3728
16286TIP3    H170273   4.764   0.902  16.304 -0.6356  2.3640  0.5186
16286TIP3    H270274   4.733   0.990  16.184 -2.5525  0.5065 -0.4087
16287TIP3   OH270275   6.348   0.190   4.009 -0.8505  0.3360  0.0136
16287TIP3    H170276   6.411   0.136   3.961 -2.3751 -1.2189 -0.3585
16287TIP3    H270277   6.354   0.159   4.100 -0.3069  0.9856  0.2123
16288TIP3   OH270278   2.932   5.140  11.377  0.2329 -0.0427 -0.3513
16288TIP3    H170279   2.840   5.119  11.394  0.7856 -1.3477  1.3100
16288TIP3    H270280   2.962   5.070  11.318  0.5055 -0.4456  0.2549
16289TIP3   OH270281   6.673   3.161   0.791 -0.2639  0.3306  0.1739
16289TIP3    H170282   6.755   3.206   0.815 -0.4742  0.8187 -0.0002
16289TIP3    H270283   6.682   3.143   0.697 -0.2424  0.1499  0.2120
16290TIP3   OH270284   1.078   2.622   1.410 -0.2506 -0.0149  0.2714
16290TIP3    H170285   0.988   2.652   1.397 -0.5215 -1.2224 -0.9237
16290TIP3    H270286   1.112   2.609   1.321  1.9641  2.7018  0.5974
16291TIP3   OH270287   2.885   4.589   1.428 -0.1024  0.1368  0.2471
16291TIP3    H170288   2.893   4.542   1.345  2.3183 -0.3972  0.6951
16291TIP3    H270289   2.849   4.674   1.405  0.5591  0.0137 -1.3576
16292TIP3   OH270290   3.146   3.432  11.786  0.1718  0.6399  0.3969
16292TIP3    H170291   3.074   3.372  11.805  0.3226  0.7731  1.4423
16292TIP3    H270292   3.172   3.466  11.872 -0.0804  2.4018 -0.1878
16293TIP3   OH270293   3.219   4.865  17.471 -0.1081  0.3429  0.8194
16293TIP3    H170294   3.310   4.878  17.443 -0.8744  2.0978 -1.0197
16293TIP3    H270295   3.173   4.838  17.392 -1.3156  0.0026  1.6107
16294TIP3   OH270296   6.049   1.698   3.128  0.3188  0.4490 -0.3496
16294TIP3    H170297   6.077   1.611   3.100 -1.0589  0.2826 -1.3209
16294TIP3    H270298   6.007   1.684   3.213  1.7662  0.4816  0.4002
16295TIP3   OH270299   3.055   0.591   6.564 -0.0902 -0.2168 -0.4462
16295TIP3    H170300   2.998   0.648   6.615 -0.5965 -0.1386 -1.0756
16295TIP3    H270301   3.080   0.644   6.488 -2.2466 -1.4402 -2.1368
16296TIP3   OH270302   1.451   2.592  17.021 -0.3759 -0.1582 -0.1907
16296TIP3    H170303   1.516   2.560  17.085  0.3828 -0.1404 -0.9345
16296TIP3    H270304   1.369   2.551  17.048 -0.1188  0.0242  0.9255
16297TIP3   OH270305   0.945   0.831   5.501 -0.2951 -0.2618 -0.0575
16297TIP3    H170306   0.874   0.842   5.437 -1.2287  1.0249  1.1531
16297TIP3    H270307   1.007   0.901   5.481  0.2588 -0.8854 -0.5899
16298TIP3   OH270308   4.298   5.127   5.455 -0.0122 -0.0198  0.2345
16298TIP3    H170309   4.353   5.056   5.487 -0.7453 -0.4526  0.5553
16298TIP3    H270310   4.350   5.206   5.469  1.2470 -0.5645 -1.0824
16299TIP3   OH270311   5.268   0.456  11.567 -0.1162  0.8587 -0.1091
16299TIP3    H170312   5.297   0.411  11.646 -0.6339  0.5375 -0.0947
16299TIP3    H270313   5.300   0.545  11.577 -0.0409  0.7790  0.3898
16300TIP3   OH270314   2.227   4.943  17.390 -0.3632 -0.2216  0.0464
16300TIP3    H170315   2.227   4.880  17.462  0.5855  1.2761  1.4485
16300TIP3    H270316   2.140   4.936  17.351 -0.9818 -0.9357  1.4949
16301TIP3   OH270317   4.406   5.443   4.716 -0.1857 -0.0277 -0.5221
16301TIP3    H170318   4.476   5.480   4.662  1.0982 -1.7554 -0.1280
16301TIP3    H270319   4.326   5.454   4.664  0.3254  1.9996 -0.9776
16302TIP3   OH270320   0.525   6.082  11.121  0.3021 -0.4598 -0.3509
16302TIP3    H170321   0.513   6.037  11.205 -1.0409  1.5662  0.6463
16302TIP3    H270322   0.594   6.146  11.139  0.7318 -0.7127 -1.1019
16303TIP3   OH270323   5.272   3.104   5.393 -0.3381  0.1562  0.2550
16303TIP3    H170324   5.335   3.115   5.322 -1.6715  0.0370 -0.9933
16303TIP3    H270325   5.226   3.023   5.372  0.0404 -0.5365  1.9267
16304TIP3   OH270326   6.199   5.910  11.207 -0.3562  0.3601 -0.0842
16304TIP3    H170327   6.107   5.893  11.190 -0.1630  0.3736 -1.2513
16304TIP3    H270328   6.215   5.997  11.168  0.4235 -0.1901 -1.0424
16305TIP3   OH270329   4.397   2.338  12.941 -0.6391  0.5451  0.2260
16305TIP3    H170330   4.342   2.346  12.863  0.4790 -2.3387 -1.0232
16305TIP3    H270331   4.344   2.288  13.003 -0.1746 -0.6346 -0.2822
16306TIP3   OH270332   3.200   5.355   0.603  1.0725 -0.2944 -0.1805
16306TIP3    H170333   3.212   5.263   0.624  1.5344  0.2109  2.0487
16306TIP3    H270334   3.228   5.363   0.512  3.3039 -1.9436  0.2691
16307TIP3   OH270335   2.529   6.287   4.554  0.5542 -0.2901  0.7054
16307TIP3    H170336   2.597   6.276   4.488  0.2245 -1.9281  0.5916
16307TIP3    H270337   2.454   6.321   4.506 -0.2457 -3.0455 -0.1999
16308TIP3   OH270338   3.484   3.253   1.927  0.2497  0.7185  0.3496
16308TIP3    H170339   3.489   3.267   2.022 -0.9777  1.4695  0.3236
16308TIP3    H270340   3.405   3.202   1.914  1.2076 -0.6961 -0.1703
16309TIP3   OH270341   2.753   4.254  13.173  0.0279  0.4029 -0.1605
16309TIP3    H170342   2.658   4.252  13.166  0.1511 -0.6946 -3.0287
16309TIP3    H270343   2.777   4.345  13.152 -0.3689  0.9069  1.4453
16310TIP3   OH270344   2.270   3.004  13.280  0.5033 -0.1805  0.2976
16310TIP3    H170345   2.253   2.915  13.310  1.7792 -0.5446  0.0232
16310TIP3    H270346   2.290   3.054  13.359 -1.8898  0.3254  0.6609
16311TIP3   OH270347   5.900   2.333   5.192 -0.5302  0.1726 -0.0944
16311TIP3    H170348   5.990   2.307   5.215 -1.2036 -1.9428  0.4003
16311TIP3    H270349   5.866   2.373   5.272 -0.8877 -1.5901  0.6841
16312TIP3   OH270350   0.552   1.899   6.221  0.5019 -0.0475 -1.2072
16312TIP3    H170351   0.520   1.821   6.175 -0.8640  0.6321 -1.4681
16312TIP3    H270352   0.569   1.868   6.310  0.4183 -0.7461 -1.4204
16313TIP3   OH270353   1.296   1.351   3.975 -0.4438  0.2086  0.5737
16313TIP3    H170354   1.381   1.389   3.995  0.3088  0.5248 -2.6831
16313TIP3    H270355   1.298   1.264   4.016  2.5447 -0.8292 -1.4322
16314TIP3   OH270356   2.638   4.216   2.476  0.1441  0.0348 -0.3894
16314TIP3    H170357   2.663   4.306   2.458 -0.1211 -0.0463 -1.1683
16314TIP3    H270358   2.575   4.223   2.548 -1.2113  0.6330 -1.5802
16315TIP3   OH270359   4.449   2.810  13.856 -0.4179  0.4961  0.5399
16315TIP3    H170360   4.505   2.886  13.840  0.0383 -0.0712 -0.6297
16315TIP3    H270361   4.484   2.772  13.937  0.9507  0.1317 -0.1802
16316TIP3   OH270362   0.571   3.852  11.799 -0.4367  0.1144 -0.1870
16316TIP3    H170363   0.475   3.850  11.796 -0.4856  1.1440  0.1897
16316TIP3    H270364   0.592   3.863  11.891  0.0986 -1.2704 -0.1220
16317TIP3   OH270365   0.813   5.234   3.137 -0.3875  0.2739  0.1828
16317TIP3    H170366   0.842   5.257   3.048  1.5247  1.1009  0.9748
16317TIP3    H270367   0.748   5.165   3.124 -0.3215  0.5404 -1.8619
16318TIP3   OH270368   4.847   5.181  16.501 -0.7406  0.2784  0.2266
16318TIP3    H170369   4.785   5.119  16.463  0.8270 -1.7888  0.8384
16318TIP3    H270370   4.915   5.126  16.539 -0.9585  2.2668  3.9075
16319TIP3   OH270371   3.604   6.013  17.546 -0.6454 -0.3278  0.2870
16319TIP3    H170372   3.536   6.011  17.479  0.8731  0.4367 -1.3465
16319TIP3    H270373   3.571   6.074  17.613 -1.0748  0.9862 -1.0731
16320TIP3   OH270374   4.651   1.410  16.253 -0.3248 -0.5302 -0.5582
16320TIP3    H170375   4.739   1.373  16.253 -1.0582 -2.4456  1.1200
16320TIP3    H270376   4.658   1.488  16.308 -0.1684 -2.2003  1.9408
16321TIP3   OH270377   1.733   6.019  11.000  0.4085  0.0429 -0.0661
16321TIP3    H170378   1.747   5.954  10.931 -0.0443  0.4764 -0.5748
16321TIP3    H270379   1.768   6.100  10.964 -2.0116  0.8416 -0.8136
16322TIP3   OH270380   3.822   5.227  17.624  1.0008 -0.5413 -0.3891
16322TIP3    H170381   3.880   5.209  17.550  0.9465 -0.7650 -0.3767
16322TIP3    H270382   3.779   5.309  17.601  0.0500 -1.2449 -1.1771
16323TIP3   OH270383   2.201   3.400   1.492  0.1964 -0.0913 -0.5261
16323TIP3    H170384   2.112   3.416   1.461  0.6141 -0.0706 -1.7406
16323TIP3    H270385   2.190   3.337   1.563 -0.9023  0.9339  0.2613
16324TIP3   OH270386   5.612   2.333  13.391 -0.0984 -0.7641 -0.5517
16324TIP3    H170387   5.701   2.299  13.389  0.1825 -0.3948  2.0814
16324TIP3    H270388   5.556   2.255  13.389  0.3494 -1.0963 -0.2830
16325TIP3   OH270389   3.512   5.856  16.120  0.2603  0.1263 -0.0046
16325TIP3    H170390   3.605   5.837  16.110  0.7947  2.3575  0.0028
16325TIP3    H270391   3.476   5.845  16.032  0.2987 -1.6154  0.1623
16326TIP3   OH270392   1.278   3.505  17.217  0.1641  0.0334  0.4716
16326TIP3    H170393   1.366   3.478  17.190  0.4083  0.7839  0.5078
16326TIP3    H270394   1.241   3.549  17.140 -0.1350 -0.1701  0.4962
16327TIP3   OH270395   1.596   5.307   4.025  0.5493  0.7275  0.4448
16327TIP3    H170396   1.653   5.369   3.979  0.8905  0.3108  0.2971
16327TIP3    H270397   1.535   5.276   3.959  1.2126 -0.0773  0.1919
16328TIP3   OH270398   0.101   0.345  16.574 -0.0766 -0.8957 -1.2500
16328TIP3    H170399   0.163   0.382  16.511  1.7262 -1.8518 -0.1347
16328TIP3    H270400   0.133   0.375  16.659 -1.1683 -1.4086 -0.6429
16329TIP3   OH270401   5.573   0.222  15.214  0.0736 -0.3060  0.6017
16329TIP3    H170402   5.518   0.169  15.271  0.9944  0.9029  2.7473
16329TIP3    H270403   5.512   0.266  15.156 -0.9739 -1.0661  1.0840
16330TIP3   OH270404   4.887   2.315   3.628  0.0044  0.2699  0.2660
16330TIP3    H170405   4.932   2.319   3.544 -0.6718 -0.9008 -0.1688
16330TIP3    H270406   4.958   2.319   3.693  0.8247 -1.9162 -0.4115
16331TIP3   OH270407   0.732   1.690  14.550  0.1550 -0.2624  0.3792
16331TIP3    H170408   0.748   1.780  14.578 -0.2175 -0.2615  0.5880
16331TIP3    H270409   0.641   1.690  14.522  0.5579 -0.2089 -1.0355
16332TIP3   OH270410   0.359   3.314   2.583 -0.5287  0.2222  0.6263
16332TIP3    H170411   0.274   3.302   2.541  0.5893 -0.6265 -1.5466
16332TIP3    H270412   0.395   3.393   2.543  0.5739 -0.6053 -0.0836
16333TIP3   OH270413   2.767   5.197   3.009 -0.5455 -0.0295 -0.6784
16333TIP3    H170414   2.684   5.239   2.985 -1.4564 -1.1106  0.4173
16333TIP3    H270415   2.775   5.124   2.948 -0.1937  0.3094 -1.0385
16334TIP3   OH270416   0.212   3.751  12.219 -0.1890 -0.0600 -0.7312
16334TIP3    H170417   0.158   3.680  12.184  1.1605 -1.1253 -0.7657
16334TIP3    H270418   0.154   3.827  12.220 -1.6148 -1.0929 -0.9309
16335TIP3   OH270419   5.328   1.917  13.746 -1.0475  0.4963 -0.5188
16335TIP3    H170420   5.244   1.872  13.739 -0.9356  0.1881  0.0131
16335TIP3    H270421   5.350   1.941  13.657 -0.9534 -0.8206 -0.8783
16336TIP3   OH270422   0.562   2.475   2.281  0.4974  0.2827 -0.0164
16336TIP3    H170423   0.625   2.409   2.309  1.3873  0.8073 -0.7213
16336TIP3    H270424   0.532   2.515   2.362  0.8708 -0.1581  0.3444
16337TIP3   OH270425   5.327   6.012  13.644  0.7917  0.8125 -0.1848
16337TIP3    H170426   5.312   6.038  13.553  1.0398  0.3040 -0.3754
16337TIP3    H270427   5.239   5.990  13.676  0.5723  1.8535 -0.0150
16338TIP3   OH270428   3.163   3.513  14.756  0.3271  0.0285  1.1943
16338TIP3    H170429   3.084   3.555  14.721 -0.0126  1.0712  3.0672
16338TIP3    H270430   3.199   3.579  14.816  4.3862  0.9081 -1.8183
16339TIP3   OH270431   5.309   1.112  15.592  0.3141 -0.1517  0.0773
16339TIP3    H170432   5.379   1.054  15.561  1.0215  0.8072 -0.1647
16339TIP3    H270433   5.283   1.161  15.514  0.5265  0.6740  0.5230
16340TIP3   OH270434   0.134   5.603   1.592 -0.5543 -0.3600 -0.2736
16340TIP3    H170435   0.093   5.579   1.508  0.3731 -0.5805 -0.6828
16340TIP3    H270436   0.110   5.694   1.605 -0.9872 -0.4187 -0.6091
16341TIP3   OH270437   0.191   4.428   3.841  0.0452  0.1734  0.6106
16341TIP3    H170438   0.097   4.425   3.819  0.1257 -0.2123  0.3097
16341TIP3    H270439   0.196   4.386   3.927  0.2721 -2.2789 -0.5440
16342TIP3   OH270440   3.200   3.162   5.508 -0.1254 -0.3440  0.3796
16342TIP3    H170441   3.245   3.220   5.569 -0.1637 -0.6854  0.7368
16342TIP3    H270442   3.111   3.154   5.544 -0.9038  1.3829 -1.0255
16343TIP3   OH270443   3.654   0.092  13.238 -0.0205  0.3817  0.0616
16343TIP3    H170444   3.727   0.045  13.198  0.3157 -2.5543  3.6553
16343TIP3    H270445   3.695   0.163  13.287  0.2436 -0.2063  0.6909
16344TIP3   OH270446   3.441   5.972  12.986  0.1834  0.0221 -0.0402
16344TIP3    H170447   3.351   6.004  12.995  0.2261  0.7538 -1.7319
16344TIP3    H270448   3.491   6.021  13.051 -0.5486 -0.0560  0.5983
16345TIP3   OH270449   3.836   3.461  11.763 -0.2438  0.2575  0.0705
16345TIP3    H170450   3.783   3.515  11.821  0.1935  1.3952 -0.5687
16345TIP3    H270451   3.780   3.443  11.688 -1.4453 -2.6776  1.5271
16346TIP3   OH270452   1.983   1.115  16.656 -0.1247  0.1329  0.2726
16346TIP3    H170453   2.073   1.114  16.624 -0.2479  1.1340 -0.1098
16346TIP3    H270454   1.964   1.023  16.676  0.8248 -0.1445 -0.0655
16347TIP3   OH270455   4.284   6.477   5.829  0.2443 -0.5922  0.5340
16347TIP3    H170456   4.265   6.389   5.861 -0.7412 -0.0533  1.4970
16347TIP3    H270457   4.223   6.533   5.876 -0.0538  0.4538 -1.0307
16348TIP3   OH270458   2.150   4.310  12.043  0.4744 -0.1447  0.1443
16348TIP3    H170459   2.078   4.329  12.104  0.5663  0.3493  0.1033
16348TIP3    H270460   2.168   4.217  12.056 -1.1193 -0.6492 -0.8456
16349TIP3   OH270461   3.065   4.122  15.576 -0.1658 -0.3494 -0.4096
16349TIP3    H170462   3.040   4.035  15.605 -0.8716 -0.2727 -0.7551
16349TIP3    H270463   3.024   4.182  15.639 -0.2564 -0.2486 -0.5624
16350TIP3   OH270464   4.269   1.877   2.361  0.2068  0.1933 -0.7840
16350TIP3    H170465   4.362   1.859   2.344  0.4187  0.6192 -0.1208
16350TIP3    H270466   4.269   1.963   2.403 -0.3270 -0.5743  0.8617
16351TIP3   OH270467   1.964   0.944  17.215 -0.1618 -0.1166  0.7358
16351TIP3    H170468   2.039   0.909  17.263  0.1417 -1.5585 -0.6741
16351TIP3    H270469   1.925   0.867  17.174 -2.0738  0.6900  0.9490
16352TIP3   OH270470   0.359   4.338   3.559  0.0459 -0.0595  0.3258
16352TIP3    H170471   0.351   4.340   3.655 -4.5788 -0.6052  0.1873
16352TIP3    H270472   0.351   4.429   3.532 -2.5580 -0.1676  0.4698
16353TIP3   OH270473   6.302   4.342  14.247 -0.0106  0.3965 -0.4088
16353TIP3    H170474   6.206   4.351  14.250 -0.1855 -0.9021 -1.2244
16353TIP3    H270475   6.322   4.279  14.317  0.0851 -0.3143 -1.0586
16354TIP3   OH270476   0.645   4.810   4.262  0.0516  0.4422  0.5226
16354TIP3    H170477   0.605   4.815   4.175  0.5178  0.3887  0.3033
16354TIP3    H270478   0.620   4.892   4.305 -0.6659  0.2109  0.5517
16355TIP3   OH270479   2.298   2.036  13.908  0.0584 -0.3803  1.0964
16355TIP3    H170480   2.224   2.020  13.966 -0.9401  0.7196  0.1562
16355TIP3    H270481   2.346   2.108  13.950 -1.0853  0.9352  0.2212
16356TIP3   OH270482   2.513   4.809   2.796  0.4607  0.2529  0.0400
16356TIP3    H170483   2.503   4.754   2.874  0.2367 -1.7920 -1.3574
16356TIP3    H270484   2.426   4.848   2.783 -0.8993 -2.9352 -1.6143
16357TIP3   OH270485   5.492   5.530   2.073 -0.1473 -0.0078 -0.3930
16357TIP3    H170486   5.446   5.447   2.064  0.7007 -0.6481  0.9219
16357TIP3    H270487   5.553   5.532   2.000  0.7344 -1.1652  0.2855
16358TIP3   OH270488   1.198   0.143   2.505  0.3653 -0.0843 -0.2485
16358TIP3    H170489   1.204   0.060   2.552  0.0601 -0.6559 -1.1962
16358TIP3    H270490   1.141   0.197   2.560  0.9734 -0.3173  0.6305
16359TIP3   OH270491   5.821   3.486   2.606 -0.0146  0.0688  0.1497
16359TIP3    H170492   5.868   3.477   2.689 -0.1770  0.9866  0.3601
16359TIP3    H270493   5.760   3.413   2.604 -0.1403  0.1427  0.9366
16360TIP3   OH270494   6.276   2.795   2.185  0.0754  0.3927 -0.5174
16360TIP3    H170495   6.226   2.716   2.163 -0.2791  0.4346  0.1207
16360TIP3    H270496   6.219   2.867   2.158 -0.4518  0.4475  0.6999
16361TIP3   OH270497   0.135   2.643   5.419 -0.1589  0.2297 -0.1939
16361TIP3    H170498   0.206   2.707   5.425 -0.3780  0.3893  1.0993
16361TIP3    H270499   0.156   2.591   5.342  0.8509  0.8747 -0.3793
16362TIP3   OH270500   3.121   1.851  15.979 -0.1235  0.0234  0.8993
16362TIP3    H170501   3.066   1.773  15.972  0.2087 -0.3100  1.8383
16362TIP3    H270502   3.059   1.921  16.002 -0.6868  0.4329 -1.5318
16363TIP3   OH270503   2.821   0.108   3.498  0.3569 -0.0093 -0.5620
16363TIP3    H170504   2.765   0.058   3.438 -2.3353  0.7559  1.1329
16363TIP3    H270505   2.810   0.199   3.471  1.6138  0.0772 -0.8165
16364TIP3   OH270506   2.800   2.927   1.998  0.5359 -0.7483  0.0359
16364TIP3    H170507   2.828   2.896   2.084  1.3867 -0.5150 -0.1493
16364TIP3    H270508   2.880   2.932   1.947  0.5486  2.1459  0.1522
16365TIP3   OH270509   5.188   3.774   1.938 -0.1476  0.1762  0.0091
16365TIP3    H170510   5.197   3.811   1.850 -0.8558 -0.6015 -0.4062
16365TIP3    H270511   5.276   3.744   1.960  0.4302  2.0269  0.3433
16366TIP3   OH270512   0.561   1.790   5.176  0.0447  0.6474 -0.3521
16366TIP3    H170513   0.551   1.718   5.238  0.4198  0.2043 -0.7922
16366TIP3    H270514   0.482   1.843   5.187  0.0702  0.5246  0.4287
16367TIP3   OH270515   2.562   0.928   0.213  0.4711 -0.4462  0.0557
16367TIP3    H170516   2.624   0.859   0.188  1.8362  0.5504  0.5166
16367TIP3    H270517   2.542   0.973   0.131  1.1563 -0.1550  0.0432
16368TIP3   OH270518   0.984   4.257  16.651  0.4909 -0.3083 -0.3099
16368TIP3    H170519   0.948   4.173  16.620  1.7734 -0.7118 -0.7827
16368TIP3    H270520   0.923   4.286  16.719 -0.1928 -1.4274 -0.4207
16369TIP3   OH270521   0.931   6.341  16.365 -0.2364 -0.7185 -0.1167
16369TIP3    H170522   0.972   6.409  16.311  0.9579 -3.1097 -2.4843
16369TIP3    H270523   0.977   6.346  16.449  0.2519  0.9672 -0.4497
16370TIP3   OH270524   5.214   6.132   0.451 -0.2186 -0.3596  0.1111
16370TIP3    H170525   5.229   6.208   0.506 -0.4889 -1.5097  1.8662
16370TIP3    H270526   5.302   6.103   0.425 -0.0716 -0.0065  0.2166
16371TIP3   OH270527   4.000   2.858   4.102 -0.1352  0.6520 -0.1136
16371TIP3    H170528   4.011   2.773   4.145  1.5814  0.2105 -1.3225
16371TIP3    H270529   4.083   2.903   4.118 -0.7058  1.7649 -0.2279
16372TIP3   OH270530   6.310   2.731  12.711  0.4920  0.4273 -0.0439
16372TIP3    H170531   6.228   2.734  12.661  1.4123  0.4068 -1.6188
16372TIP3    H270532   6.345   2.820  12.705 -0.6412  1.2101  2.9093
16373TIP3   OH270533   5.339   3.340   5.192  0.1765 -0.1411  0.8275
16373TIP3    H170534   5.313   3.340   5.284 -0.5603 -0.3807  0.6265
16373TIP3    H270535   5.344   3.432   5.169  0.4647 -0.0781  1.1361
16374TIP3   OH270536   0.981   0.470  14.680  0.1712  0.7759 -0.1409
16374TIP3    H170537   0.972   0.423  14.597  0.7150  0.1877  0.1237
16374TIP3    H270538   0.938   0.554  14.665  0.4236  0.7494 -1.0858
16375TIP3   OH270539   5.559   6.397  11.053 -0.5704  0.3707  0.6002
16375TIP3    H170540   5.540   6.449  10.975 -0.5827 -0.5448 -0.0201
16375TIP3    H270541   5.628   6.446  11.098 -0.4566  0.8312 -0.0560
16376TIP3   OH270542   1.548   0.066  11.620 -0.0435  0.6077  0.1285
16376TIP3    H170543   1.527  -0.003  11.557  0.6738  0.2073  0.3210
16376TIP3    H270544   1.626   0.109  11.585 -0.5011  1.3525 -0.0058
16377TIP3   OH270545   1.270   3.968  17.191  0.2416 -0.0048 -0.6020
16377TIP3    H170546   1.220   3.911  17.249  2.1682 -0.5350  0.6207
16377TIP3    H270547   1.247   4.056  17.220 -0.7786 -0.1990 -0.7778
16378TIP3   OH270548   0.106   2.022   2.782 -0.7204 -0.2944  0.4416
16378TIP3    H170549   0.058   1.941   2.766 -0.5495 -0.3375  0.1332
16378TIP3    H270550   0.046   2.077   2.833 -1.3078 -0.1304 -0.4101
16379TIP3   OH270551   0.037   2.533   4.825 -0.2800 -0.2809  0.0569
16379TIP3    H170552   0.041   2.582   4.743  1.6906 -0.3220  0.0601
16379TIP3    H270553  -0.051   2.497   4.828 -0.3750 -0.3651 -2.0975
16380TIP3   OH270554   1.153   1.318   5.654 -0.6806 -0.0783  0.0114
16380TIP3    H170555   1.177   1.372   5.579 -0.7128  1.0840  0.8183
16380TIP3    H270556   1.079   1.265   5.622 -1.4155  1.1903 -0.4495
16381TIP3   OH270557   5.562   3.578  15.868  0.2798  0.2063 -0.0741
16381TIP3    H170558   5.586   3.585  15.961  0.2888  1.0150 -0.1292
16381TIP3    H270559   5.494   3.644  15.857  0.1110 -0.0523 -0.5967
16382TIP3   OH270560   5.479   2.934   1.236 -0.4550  0.5099  0.7420
16382TIP3    H170561   5.453   3.005   1.294  1.8900  0.7740  1.5708
16382TIP3    H270562   5.517   2.977   1.160 -0.1053  0.1393  0.7044
16383TIP3   OH270563   1.574   2.943   2.467  0.1837 -0.2512  0.6005
16383TIP3    H170564   1.561   2.921   2.375  1.0000  0.1547  0.3760
16383TIP3    H270565   1.487   2.936   2.506 -0.0918 -0.8726 -0.0991
16384TIP3   OH270566   4.206   4.119   2.501  0.3263  0.4926  0.9548
16384TIP3    H170567   4.276   4.143   2.439 -2.2720  1.6195 -1.7771
16384TIP3    H270568   4.231   4.033   2.533  1.5138 -0.5217 -2.3089
16385TIP3   OH270569   1.840   1.465   3.057 -0.6833 -0.1294 -0.2231
16385TIP3    H170570   1.802   1.509   3.133  0.1818  0.5994 -0.2008
16385TIP3    H270571   1.903   1.403   3.094 -0.6355 -0.1452 -0.3303
16386TIP3   OH270572   4.120   0.024   3.022  0.4364 -0.1395 -0.2358
16386TIP3    H170573   4.048   0.028   2.958 -0.0048 -0.9692  0.2041
16386TIP3    H270574   4.190   0.076   2.981 -0.9045  1.9566 -0.0060
16387TIP3   OH270575   6.668   1.636   3.316  0.4536 -0.4485 -0.4890
16387TIP3    H170576   6.652   1.724   3.352 -0.2638 -0.5053 -0.6703
16387TIP3    H270577   6.581   1.599   3.302  0.7302 -0.6829 -1.6740
16388TIP3   OH270578   3.306   5.597   6.587 -0.5612 -0.3836 -0.2208
16388TIP3    H170579   3.233   5.635   6.635  0.2660 -1.2500  1.8220
16388TIP3    H270580   3.317   5.509   6.624 -1.1525 -1.9554 -3.4136
16389TIP3   OH270581   2.647   3.245  15.325 -0.3584  0.2222  0.6084
16389TIP3    H170582   2.603   3.272  15.406 -0.0533  1.9030  0.2550
16389TIP3    H270583   2.690   3.325  15.294 -0.2458 -0.4575 -1.0698
16390TIP3   OH270584   0.769   5.108  16.096  0.4665 -0.6798  0.5522
16390TIP3    H170585   0.737   5.107  16.186 -0.9598 -1.1090  0.0823
16390TIP3    H270586   0.822   5.187  16.090 -0.5549  0.1016  1.4059
16391TIP3   OH270587   5.360   4.154   2.969  0.3581  0.3710 -0.0595
16391TIP3    H170588   5.302   4.230   2.965 -2.1919 -1.3963  0.1712
16391TIP3    H270589   5.372   4.138   3.063 -0.8630 -0.6680 -0.0550
16392TIP3   OH270590   2.988   5.788  12.541  0.3512 -0.3595  0.2796
16392TIP3    H170591   3.045   5.821  12.611  1.4833  0.7604 -1.1042
16392TIP3    H270592   3.029   5.819  12.461 -2.3949  0.7096 -0.7972
16393TIP3   OH270593   4.557   4.302  11.478  0.8247  0.1216  0.4818
16393TIP3    H170594   4.525   4.391  11.466 -2.7301 -1.0078  0.5732
16393TIP3    H270595   4.551   4.286  11.572 -1.2276 -1.0355  0.1988
16394TIP3   OH270596   5.961   2.306   3.878 -0.3868 -0.4103  0.6414
16394TIP3    H170597   5.995   2.388   3.913 -0.3806 -0.2185  0.1915
16394TIP3    H270598   5.981   2.310   3.784  0.2298 -1.2267  0.7265
16395TIP3   OH270599   1.899   4.396  16.383 -0.0804  0.0031 -0.0486
16395TIP3    H170600   1.818   4.388  16.332 -0.0474  1.7260 -0.4274
16395TIP3    H270601   1.929   4.306  16.395 -0.3988 -0.5154 -2.5917
16396TIP3   OH270602   1.915   2.951   3.143 -0.1967  0.0321  0.1858
16396TIP3    H170603   2.006   2.923   3.152 -0.3706 -1.2618 -1.6344
16396TIP3    H270604   1.919   3.029   3.089 -0.0506  1.3013  1.9219
16397TIP3   OH270605   5.837   4.074   2.204  0.3153 -0.3039  0.3714
16397TIP3    H170606   5.910   4.118   2.248 -0.3157  0.8037  0.3539
16397TIP3    H270607   5.803   4.013   2.270  0.3293  0.2424  0.8904
16398TIP3   OH270608   5.572   4.182  12.141 -1.1109 -0.4978  0.5142
16398TIP3    H170609   5.601   4.094  12.164  0.2858 -1.3307 -3.6402
16398TIP3    H270610   5.649   4.223  12.102 -2.2011  2.0175  0.8023
16399TIP3   OH270611   0.680   1.964   2.410  0.1516 -0.1505 -0.6309
16399TIP3    H170612   0.598   1.921   2.435 -0.4817  2.1707  1.6192
16399TIP3    H270613   0.655   2.025   2.341 -0.1959  0.9532  0.4313
16400TIP3   OH270614   5.334   1.378   0.360  0.0423 -0.2926  0.1221
16400TIP3    H170615   5.356   1.292   0.396 -2.5936 -1.2555 -0.3072
16400TIP3    H270616   5.335   1.365   0.265 -1.2828 -0.1689  0.0629
16401TIP3   OH270617   1.606   0.803   4.979  0.3150  0.1463 -0.2625
16401TIP3    H170618   1.628   0.780   4.889 -0.6858 -1.5406 -0.1120
16401TIP3    H270619   1.681   0.853   5.011  0.9339  0.2435 -1.8277
16402TIP3   OH270620   6.709   5.631  16.979  0.3251 -0.0542 -0.3227
16402TIP3    H170621   6.664   5.556  16.941  1.7679 -1.8887  1.3821
16402TIP3    H270622   6.784   5.646  16.921  1.0950 -1.2059  0.3291
16403TIP3   OH270623   0.150   3.659  13.735  0.1936  0.6373 -0.1423
16403TIP3    H170624   0.173   3.726  13.670 -1.5875  1.4003 -0.0399
16403TIP3    H270625   0.107   3.590  13.683 -0.2435  0.7388  0.0866
16404TIP3   OH270626   2.281   6.648   5.280  0.2054  0.3823  0.4607
16404TIP3    H170627   2.228   6.622   5.355  1.1327  0.3735  1.1389
16404TIP3    H270628   2.294   6.742   5.291  0.9394  0.2630  0.7311
16405TIP3   OH270629   0.555   3.566  11.740  0.1489 -0.0079 -0.0226
16405TIP3    H170630   0.608   3.645  11.755 -0.7604  0.6004  0.0389
16405TIP3    H270631   0.530   3.538  11.828  0.1797 -0.1639 -0.0642
16406TIP3   OH270632   6.267   4.537   1.622  0.3438 -0.1646  0.4085
16406TIP3    H170633   6.270   4.585   1.539  0.6145  0.5655  0.8262
16406TIP3    H270634   6.180   4.557   1.658 -0.1618 -1.2938 -0.1598
16407TIP3   OH270635   5.445   2.417  11.587 -0.2496  0.5378 -0.4051
16407TIP3    H170636   5.423   2.352  11.653  1.8627 -1.5410 -1.6122
16407TIP3    H270637   5.505   2.477  11.631 -1.7495  1.4012  0.5454
16408TIP3   OH270638   5.405   5.080   2.657 -0.5192  0.2587  0.3669
16408TIP3    H170639   5.387   5.104   2.748  0.2014  1.8174  0.1260
16408TIP3    H270640   5.436   4.989   2.662 -2.5579 -0.4370  1.4124
16409TIP3   OH270641   2.901   4.504  13.787  0.0475 -0.0053  0.0236
16409TIP3    H170642   2.926   4.509  13.695  1.6004  0.1747  0.4325
16409TIP3    H270643   2.912   4.412  13.810  2.1175  0.3581  0.6526
16410TIP3   OH270644   2.527   0.172   0.068  0.4902 -0.6796  0.0251
16410TIP3    H170645   2.483   0.092   0.095 -1.2778  0.2240 -0.0580
16410TIP3    H270646   2.463   0.242   0.085  2.3206  0.8625  1.0807
16411TIP3   OH270647   4.450   6.599   0.632 -0.5426 -1.1014 -0.7323
16411TIP3    H170648   4.475   6.663   0.698 -1.1149 -1.1096 -0.4999
16411TIP3    H270649   4.465   6.643   0.549  1.2575 -1.4901 -0.6453
16412TIP3   OH270650   3.035   0.053   3.937 -0.3308  0.0110 -0.3804
16412TIP3    H170651   3.003  -0.030   3.972  1.8997  0.1223  2.2783
16412TIP3    H270652   2.959   0.112   3.941 -1.2356 -1.1648  0.3440
16413TIP3   OH270653   6.052   5.884   1.553  0.0546  0.1970 -0.2110
16413TIP3    H170654   6.062   5.964   1.605  0.4340  0.1403 -0.1909
16413TIP3    H270655   6.075   5.814   1.613 -2.7108 -0.1626  0.5470
16414TIP3   OH270656   5.636   2.203  16.309 -0.3783  0.3795 -0.0341
16414TIP3    H170657   5.634   2.296  16.287 -0.8949  0.4619  0.3267
16414TIP3    H270658   5.658   2.201  16.402 -1.8008  0.2215  0.3193
16415TIP3   OH270659   4.668   2.725   1.278 -0.4608  0.2807 -1.0058
16415TIP3    H170660   4.577   2.710   1.302 -0.5632 -1.5540 -2.3789
16415TIP3    H270661   4.664   2.762   1.190  0.1354  0.2785 -1.0379
16416TIP3   OH270662   0.133   0.617  14.633  0.2633 -0.3935  0.8204
16416TIP3    H170663   0.105   0.708  14.623 -1.2719 -1.0523 -1.4978
16416TIP3    H270664   0.223   0.624  14.667  0.3691  1.9875  0.2489
16417TIP3   OH270665   1.550   4.507  15.555 -0.4339  0.0035 -0.1505
16417TIP3    H170666   1.610   4.550  15.495 -2.5665  0.5281 -2.0263
16417TIP3    H270667   1.606   4.448  15.607  1.5041 -0.5864 -2.7217
16418TIP3   OH270668   5.885   5.000  12.660  0.1890 -0.4498 -0.0477
16418TIP3    H170669   5.905   5.076  12.714 -0.6189 -0.9156  0.9368
16418TIP3    H270670   5.834   4.943  12.717  0.5591 -1.6164 -0.8552
16419TIP3   OH270671   4.241   0.584   5.974  0.4522 -0.4711  0.1313
16419TIP3    H170672   4.213   0.493   5.967 -1.0104 -0.1404  1.1626
16419TIP3    H270673   4.160   0.635   5.966  1.3258  0.8107 -1.2434
16420TIP3   OH270674   0.112   0.314   2.692 -0.7695  0.2049  0.3674
16420TIP3    H170675   0.062   0.370   2.752 -1.4733 -1.9453  1.9380
16420TIP3    H270676   0.062   0.232   2.690  1.3006 -1.1100 -0.1077
16421TIP3   OH270677   6.110   6.226   4.919  0.1430 -0.3605  0.6596
16421TIP3    H170678   6.199   6.258   4.932  0.9760 -2.8970  1.8380
16421TIP3    H270679   6.069   6.233   5.006 -1.2082  1.6803 -0.0614
16422TIP3   OH270680   6.383   2.992  12.792  0.0660  0.2446  0.0421
16422TIP3    H170681   6.297   3.034  12.789 -0.1611 -0.2283 -0.5088
16422TIP3    H270682   6.443   3.055  12.752 -0.3632 -0.1422 -1.2660
16423TIP3   OH270683   4.302   3.782  11.709 -0.0867 -0.1294 -0.2085
16423TIP3    H170684   4.383   3.738  11.687 -1.5869 -3.2394 -0.0132
16423TIP3    H270685   4.233   3.719  11.689 -2.6402  2.7462 -1.4710
16424TIP3   OH270686   2.990   2.520  11.549 -0.1250 -0.0130  0.6116
16424TIP3    H170687   2.932   2.533  11.624  0.1342 -1.5920  1.1066
16424TIP3    H270688   2.936   2.474  11.484  0.1677 -0.2330  0.5238
16425TIP3   OH270689   1.339   2.782   0.206 -0.0230 -0.2125  0.5331
16425TIP3    H170690   1.380   2.702   0.174  2.0358  0.7417  0.5957
16425TIP3    H270691   1.385   2.802   0.288 -1.2664  0.4622  1.1115
16426TIP3   OH270692   1.505   4.328   5.140 -0.1038 -0.0069 -0.1827
16426TIP3    H170693   1.434   4.389   5.159  0.2670 -0.1577  2.0116
16426TIP3    H270694   1.552   4.368   5.067 -1.4031  0.9747 -0.5283
16427TIP3   OH270695   0.017   1.519   2.028 -0.2806 -0.3126  0.4053
16427TIP3    H170696  -0.017   1.458   1.963  0.9132 -0.4676 -0.1057
16427TIP3    H270697  -0.011   1.606   1.997 -0.8709 -0.4987  0.4219
16428TIP3   OH270698   5.572   2.835   5.036  0.4853  0.2953  0.3185
16428TIP3    H170699   5.505   2.778   4.996  0.6352  0.5610 -0.3337
16428TIP3    H270700   5.650   2.780   5.042 -0.2245 -0.5725  2.7009
16429TIP3   OH270701   6.024   2.069  16.743 -0.2401  0.4956 -0.2642
16429TIP3    H170702   5.965   2.025  16.682 -0.8798  0.2983  0.4814
16429TIP3    H270703   5.967   2.099  16.814  0.6649 -0.4995  0.9277
16430TIP3   OH270704   5.746   2.986  11.520 -0.6888  0.5525 -0.4174
16430TIP3    H170705   5.703   2.971  11.435  2.1159  0.7733 -1.9964
16430TIP3    H270706   5.759   3.081  11.523 -1.2197  0.6069  0.5334
16431TIP3   OH270707   2.800   0.505   6.014 -0.3030  0.0012  0.1588
16431TIP3    H170708   2.748   0.426   6.032 -0.1281 -0.1180  0.1436
16431TIP3    H270709   2.834   0.531   6.099 -1.2592  0.6994  0.3439
16432TIP3   OH270710   2.920   4.722   5.837  0.0733  0.2260 -0.5321
16432TIP3    H170711   2.841   4.768   5.809 -0.3546 -0.8557 -1.1652
16432TIP3    H270712   2.911   4.714   5.932 -2.4006 -2.9899 -0.8633
16433TIP3   OH270713   5.494   2.089  12.250 -0.2761  0.5718  0.0133
16433TIP3    H170714   5.583   2.092  12.286  0.0497 -0.2695 -0.6640
16433TIP3    H270715   5.476   1.995  12.241 -2.2202  0.6203  2.4404
16434TIP3   OH270716   4.120   3.840   5.698  0.3834  0.5569 -0.1763
16434TIP3    H170717   4.102   3.746   5.707  0.5205  0.4355 -1.0943
16434TIP3    H270718   4.144   3.851   5.606 -1.4916  1.7991 -0.5655
16435TIP3   OH270719   0.000   5.297  11.107 -0.2978  0.2497 -0.5620
16435TIP3    H170720  -0.044   5.290  11.022 -1.4410 -1.2934  0.0900
16435TIP3    H270721  -0.065   5.336  11.164  0.3762  1.0304 -0.3057
16436TIP3   OH270722   3.117   3.410  13.421 -0.0061  0.1095  0.0236
16436TIP3    H170723   3.030   3.424  13.458  0.5405 -0.9102  1.8193
16436TIP3    H270724   3.154   3.497  13.410 -0.7426  0.4910  0.5288
16437TIP3   OH270725   5.769   1.661  15.167 -0.1881 -0.0666 -0.5253
16437TIP3    H170726   5.710   1.662  15.243 -0.5812 -2.0421 -0.7515
16437TIP3    H270727   5.727   1.603  15.104  0.8092  0.4472 -1.7140
16438TIP3   OH270728   6.413   2.198  12.719  0.6762 -0.1147  0.0435
16438TIP3    H170729   6.492   2.251  12.709 -0.1096  1.1172  0.2002
16438TIP3    H270730   6.355   2.251  12.775 -0.5796 -0.6384 -0.7231
16439TIP3   OH270731   5.380   1.840   1.560  0.0537  0.3957  0.1100
16439TIP3    H170732   5.463   1.834   1.513  0.1426  0.2198  0.2863
16439TIP3    H270733   5.405   1.843   1.652 -0.0714  1.8461  0.1108
16440TIP3   OH270734   6.228   2.752   4.431 -0.7323  0.8143 -0.0458
16440TIP3    H170735   6.214   2.718   4.520  1.9703  1.3090  0.6546
16440TIP3    H270736   6.296   2.696   4.394  0.1250  2.2976 -0.7817
16441TIP3   OH270737   5.790   0.396   1.542  0.0355  0.0924 -0.2663
16441TIP3    H170738   5.720   0.347   1.586  1.4557 -0.2876  1.6981
16441TIP3    H270739   5.751   0.481   1.521 -1.9005 -1.1217 -2.0226
16442TIP3   OH270740   0.756   3.787  12.398 -0.5636 -0.5403  0.0834
16442TIP3    H170741   0.717   3.874  12.413  0.1951 -0.1242 -0.3038
16442TIP3    H270742   0.770   3.784  12.303  1.1568 -0.3167  0.3082
16443TIP3   OH270743   4.664   2.623   0.435  0.2181 -0.3039  0.0896
16443TIP3    H170744   4.752   2.590   0.417 -0.1770 -0.9982 -0.6467
16443TIP3    H270745   4.656   2.701   0.380  0.0565 -0.7674 -0.5653
16444TIP3   OH270746   6.689   1.583  11.046  0.3251 -0.2095  0.0201
16444TIP3    H170747   6.700   1.674  11.074  0.4060 -0.7269  1.8313
16444TIP3    H270748   6.596   1.566  11.054  0.2644 -0.2118 -0.6246
16445TIP3   OH270749   0.295   0.549  12.389 -0.0955  0.2023  0.7768
16445TIP3    H170750   0.256   0.559  12.475  0.1281 -0.0099  0.9054
16445TIP3    H270751   0.325   0.637  12.366 -0.1559  0.2597  0.9177
16446TIP3   OH270752   5.639   5.263  16.506 -0.2699  0.0610 -0.0905
16446TIP3    H170753   5.628   5.292  16.597 -2.4749  0.8931 -0.5599
16446TIP3    H270754   5.679   5.176  16.513  1.2122  0.8102  1.5826
16447TIP3   OH270755   5.065   4.216  16.419 -0.3025 -0.0650  0.0097
16447TIP3    H170756   5.153   4.249  16.436 -0.7699  0.9715  0.5282
16447TIP3    H270757   5.014   4.242  16.496 -1.5777  1.3386 -1.2235
16448TIP3   OH270758   2.278   6.298  15.421 -0.0759 -0.0935 -0.3059
16448TIP3    H170759   2.259   6.366  15.356 -0.5503 -0.4500 -0.5431
16448TIP3    H270760   2.222   6.224  15.396  1.5362 -1.1488 -0.9778
16449TIP3   OH270761   4.317   3.868   5.876 -0.8562  0.8966 -0.2678
16449TIP3    H170762   4.344   3.781   5.905  0.0623  0.6501 -1.7730
16449TIP3    H270763   4.293   3.857   5.784  0.7511  2.4905 -0.9413
16450TIP3   OH270764   5.374   1.863   4.338  0.0252  0.0073  0.2490
16450TIP3    H170765   5.443   1.926   4.313  1.7783 -1.1238  1.9772
16450TIP3    H270766   5.408   1.778   4.311 -0.4580 -0.6345  1.5842
16451TIP3   OH270767   0.576   5.369  15.993  0.3982  0.0429 -0.1414
16451TIP3    H170768   0.568   5.284  15.949 -2.2867 -0.1546  0.5619
16451TIP3    H270769   0.557   5.433  15.924  1.6772  0.0793 -0.4922
16452TIP3   OH270770   2.547   5.693   3.585  0.6621 -0.4668 -0.3269
16452TIP3    H170771   2.528   5.603   3.559  0.5170 -0.9861  1.4540
16452TIP3    H270772   2.614   5.685   3.653  1.0335  0.8078 -0.5142
16453TIP3   OH270773   4.219   4.738  16.881 -0.5809 -0.0786  0.1861
16453TIP3    H170774   4.230   4.745  16.786  3.1132  1.4295  0.5564
16453TIP3    H270775   4.248   4.823  16.914  1.2645 -1.6153  2.8111
16454TIP3   OH270776   1.333   6.396   0.656 -0.4190  0.5207  0.3695
16454TIP3    H170777   1.410   6.344   0.633 -0.6378 -0.0970  1.0270
16454TIP3    H270778   1.337   6.471   0.596 -0.5656 -0.6613 -1.1876
16455TIP3   OH270779   2.164   6.049   4.645 -0.3037 -0.4504  0.1056
16455TIP3    H170780   2.078   6.018   4.674 -0.5298  0.0181 -0.0518
16455TIP3    H270781   2.227   5.995   4.693 -0.6848 -0.7324  0.2926
16456TIP3   OH270782   1.490   6.320  12.949  0.2484 -0.1239  0.5164
16456TIP3    H170783   1.462   6.338  13.038  1.4423  1.6521  0.5745
16456TIP3    H270784   1.413   6.282  12.907 -0.5470 -0.3215  2.0790
16457TIP3   OH270785   0.713   0.202   4.432 -0.0514 -0.2064  0.0635
16457TIP3    H170786   0.755   0.267   4.488 -0.0586 -0.9850  1.0042
16457TIP3    H270787   0.752   0.119   4.458 -2.7065 -1.0952  1.6123
16458TIP3   OH270788   1.173   0.918  16.535 -0.2654 -0.0141  0.5576
16458TIP3    H170789   1.239   0.987  16.543  0.4555 -0.7957  1.7515
16458TIP3    H270790   1.221   0.837  16.550 -1.5070 -0.5983  1.6017
16459TIP3   OH270791   4.612   3.666   0.417 -0.1883  0.7699  0.0337
16459TIP3    H170792   4.557   3.744   0.420 -0.2430  0.7296  0.0935
16459TIP3    H270793   4.554   3.598   0.380  0.1429  0.9908 -0.9254
16460TIP3   OH270794   0.356   2.126  15.097 -0.0278 -1.0517  0.2860
16460TIP3    H170795   0.273   2.134  15.143  0.1208  0.9291  0.2782
16460TIP3    H270796   0.334   2.141  15.005  0.2174 -1.3943  0.1693
16461TIP3   OH270797   1.856   4.139   1.308 -0.3860  0.2983  0.3545
16461TIP3    H170798   1.891   4.163   1.222  1.8158  1.8916  1.5938
16461TIP3    H270799   1.913   4.184   1.371 -1.1386 -1.8107  2.7099
16462TIP3   OH270800   6.556   5.792  16.384 -0.3391  0.7124  0.4982
16462TIP3    H170801   6.507   5.723  16.428 -0.4041  0.9658  0.8217
16462TIP3    H270802   6.615   5.745  16.325 -0.9447  0.4073  0.1260
16463TIP3   OH270803   3.428   0.701  16.109  0.8493  0.3065  0.0538
16463TIP3    H170804   3.435   0.702  16.205  2.5243  0.0396 -0.0212
16463TIP3    H270805   3.490   0.633  16.082  2.2322  2.0320 -1.3238
16464TIP3   OH270806   2.953   5.062  14.774 -0.4298  0.3052 -0.4128
16464TIP3    H170807   3.017   5.042  14.706 -1.9227  0.5874 -1.9468
16464TIP3    H270808   2.949   5.158  14.776 -0.8732  0.2855 -0.3767
16465TIP3   OH270809   1.474   4.962   2.669 -0.3402 -0.1792  0.0265
16465TIP3    H170810   1.398   4.943   2.724  0.8595 -0.8961  1.5244
16465TIP3    H270811   1.490   5.056   2.682  1.7176 -0.8249  3.4971
16466TIP3   OH270812   0.483   4.767  16.276  0.2723 -0.6460 -0.1044
16466TIP3    H170813   0.546   4.725  16.217  1.8932  1.0082  0.3762
16466TIP3    H270814   0.504   4.731  16.362  0.7392  0.0937  0.0946
16467TIP3   OH270815   0.863   6.631   1.848 -0.2457 -0.0310 -0.0275
16467TIP3    H170816   0.904   6.551   1.880 -0.3937  0.1287  0.5795
16467TIP3    H270817   0.917   6.658   1.774  0.2340 -0.2941  0.2211
16468TIP3   OH270818   4.987   6.299  15.632 -0.0888 -0.2254 -0.1905
16468TIP3    H170819   5.080   6.298  15.610 -0.5158  0.7505 -2.3065
16468TIP3    H270820   4.972   6.387  15.667 -0.0249 -0.7803  1.3300
16469TIP3   OH270821   4.356   0.638  13.292  0.4225  0.1558  0.0572
16469TIP3    H170822   4.397   0.657  13.208  0.9504 -0.2276  0.2193
16469TIP3    H270823   4.338   0.723  13.330 -0.0513  0.3368 -0.5498
16470TIP3   OH270824   4.423   4.612  13.126  0.0500  0.5128 -0.0824
16470TIP3    H170825   4.430   4.697  13.169 -0.1152  0.9916 -0.9801
16470TIP3    H270826   4.355   4.624  13.060  0.6904 -0.0404 -0.8592
16471TIP3   OH270827   2.729   5.696  12.445  0.1028  0.4643 -0.0018
16471TIP3    H170828   2.687   5.704  12.359  1.1511  0.4489 -0.5304
16471TIP3    H270829   2.805   5.753  12.439  0.6326 -0.1681  0.6336
16472TIP3   OH270830   4.867   3.593  15.651 -0.6177  0.2595 -0.3558
16472TIP3    H170831   4.922   3.521  15.621 -1.4611 -0.2126 -0.8372
16472TIP3    H270832   4.885   3.665  15.590 -0.7434  0.0075 -0.6945
16473TIP3   OH270833   3.892   0.068  12.823  0.1205 -0.2179  0.0502
16473TIP3    H170834   3.922   0.158  12.813 -2.3353  0.6639  0.0464
16473TIP3    H270835   3.909   0.028  12.737  0.6118  0.4158 -0.1602
16474TIP3   OH270836   1.309   3.967   4.185  0.7436 -0.1212  0.3352
16474TIP3    H170837   1.232   3.976   4.128  0.6362  0.7429  0.6108
16474TIP3    H270838   1.294   3.885   4.233  0.7762 -0.8081 -0.7690
16475TIP3   OH270839   2.394   0.449   1.416  0.5330 -0.5789 -0.1440
16475TIP3    H170840   2.361   0.430   1.503  1.5168  0.5620  0.5123
16475TIP3    H270841   2.423   0.365   1.381 -0.6486 -1.1727  0.2826
16476TIP3   OH270842   0.347   1.414  12.513  0.8935 -0.5029  0.4734
16476TIP3    H170843   0.373   1.505  12.526 -0.6729 -0.2509  2.2905
16476TIP3    H270844   0.272   1.419  12.454 -0.4599 -0.3768  2.1403
16477TIP3   OH270845   2.858   4.291  14.873  0.3336 -0.3231 -0.0538
16477TIP3    H170846   2.801   4.285  14.950  0.5595  0.4532  0.1851
16477TIP3    H270847   2.872   4.385  14.861  1.6777 -0.5042 -0.0230
16478TIP3   OH270848   3.163   5.421  15.038 -0.0986  0.4302  0.0787
16478TIP3    H170849   3.076   5.451  15.016 -0.6674 -2.0129 -1.4237
16478TIP3    H270850   3.148   5.346  15.096  0.8047 -1.3724 -1.8773
16479TIP3   OH270851   4.348   5.390  14.451 -0.2837  0.5792  0.1307
16479TIP3    H170852   4.350   5.404  14.546 -0.0489  0.0553  0.2039
16479TIP3    H270853   4.267   5.343  14.435  0.4667 -0.8149  0.2852
16480TIP3   OH270854   6.661   3.274  10.996  0.5461 -0.3466  0.1089
16480TIP3    H170855   6.589   3.256  10.936  1.0654  0.2698 -0.7128
16480TIP3    H270856   6.739   3.277  10.941  0.6818  3.3575  0.2329
16481TIP3   OH270857   5.078   3.493   5.257  1.0995 -0.1104  0.1168
16481TIP3    H170858   5.045   3.465   5.172 -1.5006 -0.2732  1.0793
16481TIP3    H270859   5.057   3.587   5.261 -0.0752 -0.3940  1.0851
16482TIP3   OH270860   6.707   6.300  11.434  0.8211  0.2243 -0.1737
16482TIP3    H170861   6.782   6.304  11.375  0.6228 -1.8475 -0.6354
16482TIP3    H270862   6.634   6.274  11.378 -0.0641  1.2677  0.4462
16483TIP3   OH270863   3.131   2.088   2.390 -0.5326  0.0763  0.1603
16483TIP3    H170864   3.181   2.099   2.308 -1.1453  0.1669 -0.2064
16483TIP3    H270865   3.194   2.108   2.459  1.1327 -3.5954 -0.0717
16484TIP3   OH270866   3.310   2.002  17.329  0.5314 -0.2542 -0.7463
16484TIP3    H170867   3.222   1.973  17.303 -0.8297  0.6932  2.3623
16484TIP3    H270868   3.307   2.097  17.320  1.3231 -0.2280 -0.7625
16485TIP3   OH270869   1.067   1.764   1.091 -0.1524  0.0060 -0.7267
16485TIP3    H170870   1.005   1.692   1.095 -0.6890  0.4483 -0.8665
16485TIP3    H270871   1.124   1.743   1.018  1.8432 -1.9452  1.2412
16486TIP3   OH270872   4.662   4.551  17.340 -0.3787 -0.2245 -0.1359
16486TIP3    H170873   4.752   4.584  17.346  0.0504 -1.5198  1.0214
16486TIP3    H270874   4.672   4.459  17.315 -1.4319 -0.1944 -0.7237
16487TIP3   OH270875   2.379   5.792  12.469 -0.4125 -0.0536  0.4113
16487TIP3    H170876   2.392   5.868  12.525  0.5962  0.6021 -0.6645
16487TIP3    H270877   2.298   5.752  12.501 -0.0377  0.4701  2.0970
16488TIP3   OH270878   0.057   4.244  13.842 -0.5286 -0.0761  0.6058
16488TIP3    H170879   0.059   4.181  13.770  0.1755 -1.3407  1.6795
16488TIP3    H270880   0.032   4.327  13.801 -1.0240 -0.9424 -0.9295
16489TIP3   OH270881   6.191   3.882   4.652  0.0652 -0.6633 -0.0994
16489TIP3    H170882   6.096   3.898   4.654  0.2844  0.7439  1.1001
16489TIP3    H270883   6.214   3.886   4.560 -1.2597 -2.6324 -0.5858
16490TIP3   OH270884   0.532   6.687   5.890  0.8060 -0.3976 -0.3305
16490TIP3    H170885   0.592   6.616   5.867  0.4981 -0.2249 -1.7481
16490TIP3    H270886   0.490   6.710   5.807 -0.9765 -0.2931  0.5731
16491TIP3   OH270887   5.203   2.639  13.933  0.2838 -0.7733  0.1274
16491TIP3    H170888   5.191   2.694  14.010  1.6487 -0.8117  0.3863
16491TIP3    H270889   5.115   2.630  13.896 -0.3900 -0.7433  1.6660
16492TIP3   OH270890   2.210   0.572  13.345 -0.0265  0.8898 -0.1958
16492TIP3    H170891   2.231   0.602  13.433 -0.4336 -0.1855  0.2792
16492TIP3    H270892   2.224   0.477  13.347  0.6489  0.9239 -1.4920
16493TIP3   OH270893   4.717   4.745  13.632 -0.3343  0.7564  0.5604
16493TIP3    H170894   4.796   4.798  13.643  0.1292  0.0880  0.5330
16493TIP3    H270895   4.645   4.805  13.651  0.1034  1.7676 -0.8179
16494TIP3   OH270896   1.090   5.166  13.761  0.5366 -0.1518 -0.2916
16494TIP3    H170897   1.159   5.109  13.728  0.0105 -1.0741  0.1515
16494TIP3    H270898   1.029   5.176  13.688 -0.1252 -1.3925  0.0578
16495TIP3   OH270899   0.437   2.293   7.059  0.2312  0.2059 -0.1544
16495TIP3    H170900   0.521   2.249   7.046  0.9225  0.6159  2.3961
16495TIP3    H270901   0.373   2.222   7.065  0.8492 -0.2935  0.7138
16496TIP3   OH270902   4.686   6.267  13.933  0.1315 -0.2087 -0.1698
16496TIP3    H170903   4.752   6.293  13.869  1.0276  0.4032  0.9591
16496TIP3    H270904   4.697   6.328  14.006 -1.7104 -0.0739  0.0562
16497TIP3   OH270905   3.860   1.294  11.807  0.5416 -0.1401  0.5052
16497TIP3    H170906   3.871   1.362  11.874  0.2902  0.3628  0.0418
16497TIP3    H270907   3.846   1.214  11.857  1.7667 -0.0246  1.0768
16498TIP3   OH270908   6.011   3.342   5.990  0.6307  0.8159 -0.4935
16498TIP3    H170909   5.920   3.318   6.010 -0.1538  4.1433  0.5964
16498TIP3    H270910   6.063   3.289   6.050 -0.8318  1.0086  1.0268
16499TIP3   OH270911   4.643   4.403  15.723 -0.0226  0.7896  0.4965
16499TIP3    H170912   4.611   4.450  15.799 -0.9822 -0.7964  1.1131
16499TIP3    H270913   4.570   4.404  15.661 -0.7548 -1.3534  1.2273
16500TIP3   OH270914   6.438   4.917   0.612 -0.1848 -0.3303  0.3778
16500TIP3    H170915   6.526   4.948   0.590 -0.1701  0.7638  1.8119
16500TIP3    H270916   6.445   4.821   0.608  0.0695 -0.2821 -3.0397
16501TIP3   OH270917   1.860   4.177   5.443  0.1435  0.5898 -0.4400
16501TIP3    H170918   1.839   4.270   5.453  0.7513  0.7436 -0.5583
16501TIP3    H270919   1.946   4.167   5.482  0.4815  0.2613 -1.2383
16502TIP3   OH270920   0.183   3.788  14.644  0.5262  0.1968  0.2373
16502TIP3    H170921   0.188   3.694  14.662  0.7207 -0.2002 -1.6468
16502TIP3    H270922   0.233   3.829  14.714  2.4448 -1.3000 -0.1724
16503TIP3   OH270923   0.009   0.665  16.176  0.1564  0.4768  0.3857
16503TIP3    H170924  -0.056   0.609  16.133 -0.3787  0.9270  0.6065
16503TIP3    H270925   0.092   0.619  16.162 -0.2464 -0.2581  0.3737
16504TIP3   OH270926   4.754   1.850  17.146 -0.1521 -0.1415  0.0883
16504TIP3    H170927   4.714   1.890  17.223 -1.2099  1.4666 -1.2305
16504TIP3    H270928   4.682   1.835  17.086  1.0070  2.2936 -2.1390
16505TIP3   OH270929   6.606   2.385  16.398 -1.0314  0.2544  0.0144
16505TIP3    H170930   6.561   2.302  16.409  1.6788 -1.4614 -0.9080
16505TIP3    H270931   6.650   2.400  16.481  0.1729 -0.3763 -0.4831
16506TIP3   OH270932   0.819   4.034   6.820 -0.0084  0.7545  0.3645
16506TIP3    H170933   0.790   4.125   6.811 -0.1619  0.4568 -3.5468
16506TIP3    H270934   0.753   3.994   6.877 -0.5121  2.7838  1.3307
16507TIP3   OH270935   5.621   3.540  12.466 -0.0973 -0.3854 -0.0156
16507TIP3    H170936   5.570   3.460  12.461  1.7948 -1.5936 -1.8559
16507TIP3    H270937   5.570   3.598  12.523 -3.2542 -1.5872 -1.3815
16508TIP3   OH270938   1.343   4.694  15.389 -0.1076 -0.0001 -0.8596
16508TIP3    H170939   1.399   4.701  15.467  0.9953  0.1754 -1.6409
16508TIP3    H270940   1.377   4.761  15.330 -1.4401  0.3926 -1.1977
16509TIP3   OH270941   2.290   5.635  16.081 -0.3552 -0.2251  0.1514
16509TIP3    H170942   2.297   5.671  16.170 -2.5927 -1.0024  0.7212
16509TIP3    H270943   2.206   5.668  16.049  1.3466  1.7674 -2.5598
16510TIP3   OH270944   1.389   0.351   1.798 -0.2139 -0.3230  0.1931
16510TIP3    H170945   1.336   0.275   1.772 -1.4437 -0.5787  3.1137
16510TIP3    H270946   1.347   0.425   1.754 -0.6350 -0.9783 -0.5472
16511TIP3   OH270947   5.736   6.440  14.838 -0.2405  0.4285  0.2363
16511TIP3    H170948   5.790   6.405  14.909 -2.2369 -1.4702  0.9356
16511TIP3    H270949   5.768   6.396  14.760  0.7206  1.1058  0.2223
16512TIP3   OH270950   3.761   5.591   6.058  0.5993  0.0747 -0.7300
16512TIP3    H170951   3.750   5.511   6.007 -0.1569 -0.5832  0.4180
16512TIP3    H270952   3.757   5.562   6.150  2.2276  1.1822 -0.2662
16513TIP3   OH270953   6.078   4.456  15.062 -0.0364  0.8199  0.2390
16513TIP3    H170954   6.162   4.496  15.038 -0.6189  2.2464  0.4465
16513TIP3    H270955   6.032   4.444  14.979 -0.2315  1.4963  0.2397
16514TIP3   OH270956   2.992   1.559  11.009  0.0393 -0.5566  0.2313
16514TIP3    H170957   3.044   1.498  11.061  1.6055 -0.0712 -0.7358
16514TIP3    H270958   3.020   1.645  11.037 -0.3518 -0.2800 -0.2034
16515TIP3   OH270959   1.383   1.862   4.122 -0.5725  0.0342  0.1465
16515TIP3    H170960   1.450   1.927   4.141 -1.5517  1.2058 -0.3188
16515TIP3    H270961   1.325   1.864   4.199 -1.8734  1.3758 -0.8164
16516TIP3   OH270962   1.578   6.374   1.192  0.2804  0.1813 -0.1346
16516TIP3    H170963   1.600   6.446   1.251 -1.1628 -0.0846  0.7672
16516TIP3    H270964   1.633   6.301   1.222 -2.0457 -0.6599  2.4959
16517TIP3   OH270965   1.394   1.119  16.271 -0.3087  0.1847  0.1811
16517TIP3    H170966   1.464   1.086  16.327 -0.3553  2.4785  1.7156
16517TIP3    H270967   1.408   1.214  16.269 -0.9970  0.3365 -2.8204
16518TIP3   OH270968   1.937   1.058   4.454  0.4429  0.5854 -0.1465
16518TIP3    H170969   1.966   0.968   4.441  1.8023  1.0956 -0.7606
16518TIP3    H270970   1.939   1.071   4.549  3.2573  0.8977 -0.1872
16519TIP3   OH270971   4.408   2.851  12.471 -0.6570 -0.2324  0.1521
16519TIP3    H170972   4.393   2.758  12.456 -0.4170 -0.2073 -0.2625
16519TIP3    H270973   4.483   2.855  12.529 -1.7020 -0.3369  1.5536
16520TIP3   OH270974   4.388   3.818  13.452  0.1523 -0.0290  0.3539
16520TIP3    H170975   4.369   3.912  13.455 -0.8329 -0.2217  0.2614
16520TIP3    H270976   4.408   3.795  13.543 -2.8128 -0.3675  0.9974
16521TIP3   OH270977   1.028   0.543  16.425 -0.4451  0.3200 -0.4638
16521TIP3    H170978   0.954   0.575  16.478  1.1050  0.3127  1.8571
16521TIP3    H270979   1.022   0.447  16.433  0.6157  0.3361  1.0370
16522TIP3   OH270980   2.530   4.357   5.744  0.2370 -0.6619  0.1629
16522TIP3    H170981   2.590   4.427   5.770  1.1269 -0.5954 -1.8859
16522TIP3    H270982   2.445   4.402   5.734  0.7454  0.1117 -0.8890
16523TIP3   OH270983   3.995   3.690  15.336  0.1172  0.1251 -0.6890
16523TIP3    H170984   3.992   3.786  15.343  0.4461  0.1445 -0.8055
16523TIP3    H270985   4.062   3.664  15.398 -1.2510 -0.1826  0.7265
16524TIP3   OH270986   0.366   6.522  11.629 -0.0963 -0.4103 -0.3388
16524TIP3    H170987   0.294   6.459  11.640  0.1690 -0.4861  1.0761
16524TIP3    H270988   0.332   6.585  11.566 -2.1786  0.6509  1.6960
16525TIP3   OH270989   4.020   0.169  15.775  0.6367 -0.1709  0.6609
16525TIP3    H170990   4.021   0.087  15.824 -0.2468 -0.6297 -0.0655
16525TIP3    H270991   3.928   0.183  15.752  0.9415  0.3508 -0.3144
16526TIP3   OH270992   0.545   6.186   0.642  0.7281  0.1020  0.5545
16526TIP3    H170993   0.512   6.255   0.699 -0.5600  0.9662 -1.1458
16526TIP3    H270994   0.576   6.232   0.564  1.5913 -1.1048  0.1479
16527TIP3   OH270995   2.835   1.438  14.567 -0.3706  0.0479 -0.7237
16527TIP3    H170996   2.878   1.477  14.644 -1.1155  0.9086 -0.7153
16527TIP3    H270997   2.886   1.360  14.548  1.1286  0.9583 -0.6502
16528TIP3   OH270998   3.435   0.931  15.976 -0.2761  0.0315 -0.0861
16528TIP3    H170999   3.459   0.872  16.048 -0.2699  0.2006  0.0512
16528TIP3    H271000   3.367   0.987  16.012 -0.1557  0.2271 -0.1599
16529TIP3   OH271001   5.782   5.011  15.720 -0.3417  0.2915  0.4206
16529TIP3    H171002   5.872   5.040  15.727 -0.8449  1.7576  1.1813
16529TIP3    H271003   5.770   4.990  15.627 -0.2374  3.7054 -0.4778
16530TIP3   OH271004   5.245   5.362   4.477  0.4549  0.1462  0.1521
16530TIP3    H171005   5.308   5.313   4.425  1.7782 -0.0350  1.8195
16530TIP3    H271006   5.283   5.450   4.483  0.2933  0.1793  0.7444
16531TIP3   OH271007   2.213   4.101   1.224  0.5026  0.4034  0.2552
16531TIP3    H171008   2.217   4.019   1.273  0.9551 -0.0816 -0.5670
16531TIP3    H271009   2.162   4.160   1.280 -0.9802 -0.8386  0.2938
16532TIP3   OH271010   2.191   0.306  12.438  0.6225 -0.0617 -0.0768
16532TIP3    H171011   2.159   0.244  12.373 -1.5833  0.2785  0.5790
16532TIP3    H271012   2.270   0.266  12.473  1.2449 -0.7719 -2.1483
16533TIP3   OH271013   3.502   1.917   2.086  0.4243 -0.1754 -0.0554
16533TIP3    H171014   3.521   1.862   2.010  1.1194 -0.0580  0.0235
16533TIP3    H271015   3.531   2.005   2.060  0.4311 -0.0865  0.2524
16534TIP3   OH271016   2.829   3.709   1.319 -0.2145  0.3447 -0.3152
16534TIP3    H171017   2.747   3.703   1.369 -0.0340 -2.1946 -0.1543
16534TIP3    H271018   2.879   3.777   1.363 -1.1592  0.0620  1.2941
16535TIP3   OH271019   4.249   4.324   6.548  0.4645  0.7759 -0.2518
16535TIP3    H171020   4.213   4.411   6.561 -1.1338  0.3648 -1.5501
16535TIP3    H271021   4.235   4.278   6.631 -0.9653  1.0049 -0.3480
16536TIP3   OH271022   3.054   4.022  16.917  0.1082 -0.2026 -0.0897
16536TIP3    H171023   3.098   3.954  16.967  0.4347 -0.5193 -0.7946
16536TIP3    H271024   3.032   3.981  16.834 -0.0530  0.4303 -0.3685
16537TIP3   OH271025   3.819   3.275  15.493 -0.2900 -0.1931 -0.2136
16537TIP3    H171026   3.876   3.280  15.570 -1.6329  0.0903  0.8053
16537TIP3    H271027   3.879   3.262  15.420  0.9874 -1.3079  0.9551
16538TIP3   OH271028   2.512   0.384  16.158  0.0762  0.1618  0.0535
16538TIP3    H171029   2.536   0.375  16.066  1.3134  0.1864  0.3557
16538TIP3    H271030   2.574   0.328  16.204  0.8400  1.7403  1.0349
16539TIP3   OH271031   1.677   0.436   3.692 -0.1084 -0.0875  0.0680
16539TIP3    H171032   1.610   0.443   3.761  0.6940 -0.9719  0.9724
16539TIP3    H271033   1.638   0.377   3.628  1.0756 -3.6243  2.3055
16540TIP3   OH271034   0.438   1.022  17.106  0.0482  0.8626 -0.4393
16540TIP3    H171035   0.413   1.030  17.014  0.6623  1.1016 -0.5941
16540TIP3    H271036   0.369   1.067  17.154 -1.6198 -1.3924 -0.5587
16541TIP3   OH271037   0.112   1.358  13.927  0.0158 -0.1504  0.0408
16541TIP3    H171038   0.113   1.446  13.965 -0.9457  0.3107 -0.9439
16541TIP3    H271039   0.120   1.299  14.003 -1.2866  0.7523  0.9204
16542TIP3   OH271040   3.271   3.881  15.834 -0.1488 -0.0890  0.8061
16542TIP3    H171041   3.332   3.831  15.779  0.5250  1.5335  0.0163
16542TIP3    H271042   3.185   3.843  15.816  0.5204 -2.0588  1.5146
16543TIP3   OH271043   3.287   0.343   0.307 -0.8305 -0.2153  0.2281
16543TIP3    H171044   3.274   0.426   0.353  1.9860 -0.1894  1.1448
16543TIP3    H271045   3.260   0.360   0.217  0.3297  1.9013  0.2430
16544TIP3   OH271046   3.407   1.140   1.490 -0.4100 -0.1469  0.2046
16544TIP3    H171047   3.390   1.217   1.544 -2.2467  1.4058 -2.3838
16544TIP3    H271048   3.453   1.174   1.413 -1.9510 -1.4484 -1.3587
16545TIP3   OH271049   5.787   5.805  15.313  0.6857  0.0911 -0.2437
16545TIP3    H171050   5.818   5.734  15.257  0.6194 -0.0526 -0.0975
16545TIP3    H271051   5.865   5.860  15.327  0.7465  0.0252 -0.3193
16546TIP3   OH271052   5.593   5.551  14.708 -0.0331  0.0879  0.5695
16546TIP3    H171053   5.518   5.537  14.651 -0.0714 -0.9378  0.8486
16546TIP3    H271054   5.667   5.564  14.648  0.2083 -2.4737  0.2131
16547TIP3   OH271055   0.875   5.008   0.804 -0.3301  0.1469  0.0874
16547TIP3    H171056   0.841   5.098   0.802  0.8250  0.5896 -1.1736
16547TIP3    H271057   0.840   4.968   0.724 -0.3905 -0.3466  0.3632
16548TIP3   OH271058   6.405   2.313   5.553 -0.0282 -0.3430 -0.1344
16548TIP3    H171059   6.409   2.253   5.479  0.9538 -1.2754  0.6427
16548TIP3    H271060   6.365   2.263   5.624 -1.8482  0.8407 -0.2664
16549TIP3   OH271061   2.982   2.985   1.550  0.2024 -0.1084  0.4555
16549TIP3    H171062   2.924   3.059   1.566  0.3175  0.4241 -1.3236
16549TIP3    H271063   3.012   2.997   1.460  1.4192 -1.5120  0.6262
16550TIP3   OH271064   5.900   0.510   4.507  0.0124  0.3447 -0.0816
16550TIP3    H171065   5.931   0.581   4.451 -3.3895  1.6218 -0.5619
16550TIP3    H271066   5.874   0.441   4.446 -0.5270  0.3571  0.1337
16551TIP3   OH271067   1.290   0.030   6.370 -0.3320 -0.0411  0.2404
16551TIP3    H171068   1.278   0.006   6.462 -0.4144  1.0784  0.5345
16551TIP3    H271069   1.334   0.115   6.372 -3.4033  1.7323 -0.6523
16552TIP3   OH271070   1.641   2.345  11.148 -0.0160 -0.0573 -0.4096
16552TIP3    H171071   1.696   2.421  11.167  1.7893 -0.6894 -2.5771
16552TIP3    H271072   1.703   2.276  11.123 -1.7213 -1.2561 -1.6001
16553TIP3   OH271073   5.460   2.671   5.920 -0.2206 -0.1760 -0.1118
16553TIP3    H171074   5.408   2.684   5.841 -1.1504  1.8803  0.7680
16553TIP3    H271075   5.492   2.759   5.942 -0.1930 -0.6525  1.9065
16554TIP3   OH271076   6.166   4.151   0.970 -0.1183  0.0674  0.1267
16554TIP3    H171077   6.077   4.186   0.970 -0.2652 -0.2447  1.5607
16554TIP3    H271078   6.222   4.229   0.972 -0.3986  0.2669  0.4917
16555TIP3   OH271079   6.565   2.776   3.766 -0.0416  0.3293 -0.1523
16555TIP3    H171080   6.632   2.717   3.801  0.3660  0.5304 -0.5717
16555TIP3    H271081   6.545   2.741   3.680 -2.5729 -1.3873  1.0136
16556TIP3   OH271082   0.368   2.710   2.864 -0.1161 -0.2739  0.1875
16556TIP3    H171083   0.322   2.781   2.911 -0.5189 -0.0530 -0.5352
16556TIP3    H271084   0.415   2.664   2.933 -1.8410 -0.8463  1.0524
16557TIP3   OH271085   1.733   5.981  12.700 -0.0397 -0.0108  0.4081
16557TIP3    H171086   1.724   5.988  12.605  0.1519 -0.5671  0.3424
16557TIP3    H271087   1.673   5.910  12.724  0.9532 -0.8218  0.5176
16558TIP3   OH271088   3.332   5.386  15.322 -0.0653  0.0127  0.3780
16558TIP3    H171089   3.414   5.405  15.276 -1.0735  0.3986 -1.3467
16558TIP3    H271090   3.311   5.296  15.296 -0.1479 -0.1184  0.8955
16559TIP3   OH271091   6.324   3.276  15.661 -0.3534 -0.3687 -0.0980
16559TIP3    H171092   6.406   3.261  15.614  0.3794  3.5693 -0.4367
16559TIP3    H271093   6.350   3.286  15.752 -0.7791 -1.2059  0.1188
16560TIP3   OH271094   1.020   1.834  11.629 -0.3208 -0.0369  0.1882
16560TIP3    H171095   0.997   1.745  11.602 -0.9576 -0.2493  1.3644
16560TIP3    H271096   0.984   1.843  11.717  0.8611  0.9493  0.6078
16561TIP3   OH271097   1.299   6.358  15.391  0.1633 -0.1717  0.0270
16561TIP3    H171098   1.357   6.400  15.454 -0.5711  1.0619 -0.0874
16561TIP3    H271099   1.214   6.355  15.435  0.3840 -2.4972  0.4284
16562TIP3   OH271100   2.734   3.740   5.872 -0.4292  0.5490 -0.3353
16562TIP3    H171101   2.703   3.684   5.943 -0.1293  1.0471  0.1996
16562TIP3    H271102   2.706   3.828   5.898  1.1575  0.9828  0.0320
16563TIP3   OH271103   4.048   3.381   2.568  0.0987 -0.0201 -0.6077
16563TIP3    H171104   4.129   3.397   2.521 -0.3250  0.6074 -1.1469
16563TIP3    H271105   4.075   3.367   2.659  0.9277 -1.3267 -1.0385
16564TIP3   OH271106   5.621   4.853  12.725 -0.0051  0.1129  0.0025
16564TIP3    H171107   5.543   4.819  12.769  0.7021 -2.7988 -0.7128
16564TIP3    H271108   5.691   4.794  12.754  1.8201  2.2311  0.1054
16565TIP3   OH271109   2.521   0.670   4.199 -0.7304 -0.5467 -0.2007
16565TIP3    H171110   2.501   0.579   4.175 -1.2747 -0.0623 -1.7185
16565TIP3    H271111   2.471   0.685   4.279 -1.9455 -1.1130 -0.8209
16566TIP3   OH271112   3.318   1.573  17.451  0.9625  0.1165 -0.8695
16566TIP3    H171113   3.253   1.616  17.395 -0.5112 -1.2736 -0.2939
16566TIP3    H271114   3.372   1.523  17.390  1.1141  0.7787 -1.2937
16567TIP3   OH271115   2.487   2.831  12.642 -0.5731 -0.2714 -0.0511
16567TIP3    H171116   2.474   2.923  12.666 -0.6214 -0.1944 -0.3669
16567TIP3    H271117   2.435   2.782  12.705 -0.5435 -0.0806  0.1210
16568TIP3   OH271118   2.072   2.847  11.084  0.3733  0.6594  0.1250
16568TIP3    H171119   2.084   2.942  11.081  0.3770  0.6960  1.0432
16568TIP3    H271120   1.989   2.831  11.038 -1.0580  1.4017  2.3013
16569TIP3   OH271121   6.173   0.358  13.738 -0.1654  0.8617 -0.6847
16569TIP3    H171122   6.154   0.431  13.679 -1.6265  1.8035  0.8825
16569TIP3    H271123   6.098   0.354  13.797  1.6618  0.6272  1.7976
16570TIP3   OH271124   5.168   3.280   0.187 -0.3078  0.2464  0.1752
16570TIP3    H171125   5.079   3.289   0.153 -0.5235  0.1998  0.7103
16570TIP3    H271126   5.177   3.351   0.251  0.0121  0.2051  0.1817
16571TIP3   OH271127   4.635   3.268   4.056 -0.0318  0.6850 -0.2976
16571TIP3    H171128   4.624   3.246   3.963  1.5167 -0.1152 -0.3326
16571TIP3    H271129   4.724   3.302   4.061 -0.1246  0.7718  0.8910
16572TIP3   OH271130   4.719   0.448   5.423  0.5530 -0.1263  0.3118
16572TIP3    H171131   4.806   0.487   5.427  0.6776 -0.4974  1.7323
16572TIP3    H271132   4.734   0.355   5.408  0.3743 -0.0789 -0.1642
16573TIP3   OH271133   5.890   3.459  15.650 -0.5400  0.4036 -0.0429
16573TIP3    H171134   5.922   3.448  15.740 -1.1897  0.2988  0.1802
16573TIP3    H271135   5.908   3.551  15.630 -0.6631  0.5063  0.3071
16574TIP3   OH271136   6.145   4.238   5.994 -0.1255 -0.0496 -0.2173
16574TIP3    H171137   6.227   4.194   5.972 -0.7238 -1.0608 -0.5179
16574TIP3    H271138   6.123   4.204   6.081  0.2518  0.9513  0.2767
16575TIP3   OH271139   0.550   4.638   2.251 -0.6384 -0.4030 -0.3203
16575TIP3    H171140   0.612   4.709   2.239 -0.3139 -0.2298  1.9514
16575TIP3    H271141   0.598   4.559   2.227  0.7299 -0.3334  1.9599
16576TIP3   OH271142   0.758   2.957   4.529  0.1399 -0.5248  0.3625
16576TIP3    H171143   0.726   2.904   4.456  1.1237 -0.4554 -0.1377
16576TIP3    H271144   0.854   2.951   4.523  0.4177  2.6773 -0.8034
16577TIP3   OH271145   6.226   1.920  12.035 -0.0940 -0.7481  0.0454
16577TIP3    H171146   6.180   1.911  12.118 -0.5354  0.0933 -0.0966
16577TIP3    H271147   6.169   1.877  11.971 -1.5154  1.6280 -0.3977
16578TIP3   OH271148   2.658   1.624   5.681 -0.0630  0.6548 -0.0905
16578TIP3    H171149   2.729   1.589   5.735 -0.9341 -0.0021  0.6623
16578TIP3    H271150   2.694   1.626   5.593  0.4865 -0.8693  0.0633
16579TIP3   OH271151   3.337   3.278   0.461  0.9156 -0.1471  0.1609
16579TIP3    H171152   3.366   3.278   0.369 -0.2257 -1.1636 -0.2216
16579TIP3    H271153   3.417   3.295   0.511  1.2808  2.2008 -1.0720
16580TIP3   OH271154   5.352   4.268  13.240  0.6858  0.4663 -0.1563
16580TIP3    H171155   5.263   4.244  13.214  0.7213 -0.5895  0.5927
16580TIP3    H271156   5.390   4.308  13.162  0.1392 -0.7334 -1.0808
16581TIP3   OH271157   4.136   1.630   2.462 -0.1182 -0.1434  0.8218
16581TIP3    H171158   4.092   1.670   2.537  0.0012  1.1173  0.2441
16581TIP3    H271159   4.179   1.703   2.418  0.1785 -0.9346 -0.2289
16582TIP3   OH271160   3.845   1.702  13.544 -0.5020 -0.5203  0.1081
16582TIP3    H171161   3.913   1.769  13.556 -0.7252 -0.4224  0.8751
16582TIP3    H271162   3.774   1.729  13.603 -0.1628 -2.0038  1.2346
16583TIP3   OH271163   3.048   1.148  16.353  0.3290  0.0858 -0.1171
16583TIP3    H171164   3.114   1.085  16.382  1.5485 -0.7272 -4.1180
16583TIP3    H271165   2.978   1.094  16.316 -0.9977  1.0599  0.8637
16584TIP3   OH271166   0.682   1.743   2.653  0.1627 -0.4018 -0.2099
16584TIP3    H171167   0.664   1.793   2.732  1.2839 -0.7828  0.3133
16584TIP3    H271168   0.615   1.771   2.591  0.7592  1.8100  0.0422
16585TIP3   OH271169   3.403   2.278   2.895  0.0406  0.5384 -0.5264
16585TIP3    H171170   3.434   2.355   2.846 -1.9649  0.3358 -2.2513
16585TIP3    H271171   3.343   2.314   2.959 -0.4666  0.4744 -0.9599
16586TIP3   OH271172   5.043   5.019   5.976  0.1139 -0.4977 -0.1044
16586TIP3    H171173   5.050   4.935   5.932  1.4025 -0.8168  0.6638
16586TIP3    H271174   5.106   5.014   6.048  2.0558  2.0043 -1.4621
16587TIP3   OH271175   2.533   1.241   1.733  0.0526 -0.1367 -0.0727
16587TIP3    H171176   2.444   1.248   1.770 -0.1387  0.8537 -0.6794
16587TIP3    H271177   2.569   1.163   1.774 -1.7633 -1.6542 -1.2054
16588TIP3   OH271178   4.931   3.941  17.084  0.1678  0.2978 -0.4517
16588TIP3    H171179   4.887   4.026  17.080  1.7988  1.2903  1.2350
16588TIP3    H271180   4.863   3.881  17.116 -0.5252  1.3681  0.1534
16589TIP3   OH271181   3.930   3.869   3.728 -0.4104 -0.0221 -0.3836
16589TIP3    H171182   3.997   3.876   3.796 -0.5714 -1.1118 -0.0987
16589TIP3    H271183   3.977   3.884   3.646  0.1246 -0.4699 -0.1636
16590TIP3   OH271184   4.778   0.257  15.252  0.7180 -0.4344  0.2277
16590TIP3    H171185   4.848   0.309  15.213  1.3243 -1.1670  0.2996
16590TIP3    H271186   4.742   0.313  15.320  2.3981 -0.6494  1.3711
16591TIP3   OH271187   3.110   1.794  14.507  0.9254  0.4026  0.5439
16591TIP3    H171188   3.130   1.756  14.422 -0.5657  0.7087  0.0231
16591TIP3    H271189   3.156   1.879  14.507  1.8281 -0.0768  0.5124
16592TIP3   OH271190   2.267   1.038   4.680  0.2552 -0.2536  0.1288
16592TIP3    H171191   2.347   1.087   4.658  0.4901  0.2293  1.9334
16592TIP3    H271192   2.281   0.951   4.642  1.3998  0.0006 -0.0689
16593TIP3   OH271193   5.121   6.648  16.523  0.4021  0.0000 -0.2899
16593TIP3    H171194   5.164   6.611  16.446  1.4370  0.2997  0.1354
16593TIP3    H271195   5.186   6.641  16.593 -0.7399 -0.8679  0.7462
16594TIP3   OH271196   2.286   1.306  13.961 -1.1188  0.4821  0.4013
16594TIP3    H171197   2.311   1.300  14.053  1.3106 -0.6024 -0.2611
16594TIP3    H271198   2.303   1.397  13.937  2.9289 -0.2309 -0.0883
16595TIP3   OH271199   6.042   0.450  17.336  0.7735  0.4214 -0.2438
16595TIP3    H171200   6.007   0.496  17.413  0.8132  0.1363 -0.0549
16595TIP3    H271201   6.017   0.358  17.350 -0.2701  0.5430 -1.1593
16596TIP3   OH271202   4.714   5.751   4.630  0.4051 -0.0969 -0.6734
16596TIP3    H171203   4.744   5.842   4.633 -1.0660  0.3936  1.9013
16596TIP3    H271204   4.647   5.751   4.561  1.9816  0.1433 -2.3097
16597TIP3   OH271205   2.407   4.257   6.595  0.2615  0.5131 -0.8082
16597TIP3    H171206   2.483   4.312   6.613  0.2468  0.4834 -0.6490
16597TIP3    H271207   2.443   4.168   6.593  0.3386  0.5571 -1.3874
16598TIP3   OH271208   5.450   3.555  14.875 -0.0137 -0.5161 -0.0629
16598TIP3    H171209   5.463   3.585  14.785  1.6279 -0.3654  0.2015
16598TIP3    H271210   5.493   3.470  14.878 -1.0090 -1.0216  0.3092
16599TIP3   OH271211   4.490   1.773  13.377  0.5642 -0.1465  0.0769
16599TIP3    H171212   4.543   1.704  13.418 -0.0244 -1.1510 -0.8025
16599TIP3    H271213   4.504   1.761  13.283 -0.3898  0.2517 -0.1239
16600TIP3   OH271214   4.304   6.402   4.352  0.1249  0.6968 -0.0008
16600TIP3    H171215   4.322   6.340   4.422  0.2780 -0.6334 -1.1823
16600TIP3    H271216   4.350   6.366   4.276 -1.6650  1.0297 -1.2882
16601TIP3   OH271217   0.681   2.279  17.619 -0.0516  0.1303  0.4400
16601TIP3    H171218   0.702   2.192  17.652  1.3330  0.7789  1.3479
16601TIP3    H271219   0.596   2.299  17.659  0.1248 -0.3696  1.0958
16602TIP3   OH271220   0.689   5.858  14.298 -0.3193  0.3112 -0.1438
16602TIP3    H171221   0.781   5.832  14.289 -0.6528 -0.4282 -1.7087
16602TIP3    H271222   0.670   5.907  14.218 -0.9100  1.7071  0.8121
16603TIP3   OH271223   5.272   5.736   2.379  0.1417  0.0621  0.4396
16603TIP3    H171224   5.315   5.813   2.342  0.4014 -0.7807 -1.1124
16603TIP3    H271225   5.178   5.752   2.365  0.1469  0.3862  0.7480
16604TIP3   OH271226   4.690   4.598   3.944  0.4372 -1.2033 -0.2143
16604TIP3    H171227   4.649   4.584   4.030  1.5059 -0.4276  0.4415
16604TIP3    H271228   4.722   4.511   3.919 -0.6248 -1.6089 -0.2438
16605TIP3   OH271229   1.846   0.579   5.696  0.6124  0.3643  0.1867
16605TIP3    H171230   1.755   0.590   5.670  1.0629  3.2898 -0.5637
16605TIP3    H271231   1.844   0.513   5.766 -1.7925 -0.9792 -1.0386
16606TIP3   OH271232   0.147   1.450   0.888 -0.4621 -0.4041  0.3969
16606TIP3    H171233   0.176   1.538   0.864  0.5755 -0.8115  0.0799
16606TIP3    H271234   0.052   1.451   0.876 -0.2292  0.0413 -1.7399
16607TIP3   OH271235   4.313   1.161   2.307 -0.6209  0.1180  0.3276
16607TIP3    H171236   4.405   1.143   2.284  0.1262  0.3989  2.8522
16607TIP3    H271237   4.310   1.255   2.322 -1.7793  0.3961 -1.3643
16608TIP3   OH271238   5.917   3.342  12.848  0.1090  0.1766  0.0368
16608TIP3    H171239   5.969   3.388  12.782  2.3912 -1.3914  0.6315
16608TIP3    H271240   5.857   3.287  12.797  0.1810  0.7435 -0.6835
16609TIP3   OH271241   1.646   3.006  17.432 -0.6463  1.1407 -0.0663
16609TIP3    H171242   1.715   3.012  17.498 -0.9026 -1.7479  0.6030
16609TIP3    H271243   1.573   3.058  17.468 -1.2528 -1.3400  2.6968
16610TIP3   OH271244   6.578   0.462  12.391 -0.3076 -0.1099 -0.6320
16610TIP3    H171245   6.555   0.380  12.434 -2.1751 -0.2122 -1.7106
16610TIP3    H271246   6.652   0.441  12.334  0.0558 -0.7190  0.0509
16611TIP3   OH271247   5.872   3.786   0.730 -0.3944  0.4877 -0.1500
16611TIP3    H171248   5.913   3.757   0.648 -0.5816 -0.1148 -0.0375
16611TIP3    H271249   5.781   3.802   0.707 -0.4255  0.4100 -0.0805
16612TIP3   OH271250   3.643   0.319  14.513 -0.0572  0.5529  0.2411
16612TIP3    H171251   3.725   0.331  14.561  0.1254 -0.7815  0.2836
16612TIP3    H271252   3.617   0.229  14.530 -0.8072  0.5241 -0.9169
16613TIP3   OH271253   4.956   4.921  14.302 -0.0481 -0.1403  0.1618
16613TIP3    H171254   4.979   4.890  14.390 -0.9447 -1.0688  0.0896
16613TIP3    H271255   4.860   4.918  14.301 -0.1250  1.4666 -0.2911
16614TIP3   OH271256   5.926   3.089  16.705  0.3831  0.0445  0.1001
16614TIP3    H171257   5.892   3.103  16.617  0.7640 -0.5194 -0.1418
16614TIP3    H271258   5.945   2.996  16.709  3.1078  0.4998 -0.2326
16615TIP3   OH271259   6.324   2.028  12.450 -1.2105 -0.6895  0.1408
16615TIP3    H171260   6.337   2.083  12.373 -2.5589 -0.9981 -0.3372
16615TIP3    H271261   6.237   1.990  12.438 -0.3534 -2.9061  0.4595
16616TIP3   OH271262   1.743   1.213   2.163 -0.2847 -0.0071 -0.0972
16616TIP3    H171263   1.750   1.254   2.077  0.5879 -1.9022 -0.9811
16616TIP3    H271264   1.657   1.172   2.163  0.1481 -0.9526 -0.5434
16617TIP3   OH271265   6.653   0.908   5.529 -0.2340  0.1466  0.3485
16617TIP3    H171266   6.720   0.841   5.527 -0.8155 -0.4273 -0.8727
16617TIP3    H271267   6.672   0.959   5.608 -0.0941 -1.7457  1.5848
16618TIP3   OH271268   5.686   2.305  17.297 -0.6075  0.0385  0.1918
16618TIP3    H171269   5.624   2.375  17.319 -1.2132 -0.8469  1.4596
16618TIP3    H271270   5.639   2.224  17.319  0.4144 -0.7205 -0.3582
16619TIP3   OH271271   0.692   6.143  12.845  0.1065 -0.1710 -0.3068
16619TIP3    H171272   0.603   6.170  12.868  0.0332 -1.0726  0.5618
16619TIP3    H271273   0.723   6.209  12.783 -1.2569  0.0036 -0.8175
16620TIP3   OH271274   1.010   2.576   3.042 -0.2928 -0.3715 -0.1829
16620TIP3    H171275   1.104   2.576   3.061 -0.1847  1.5751 -0.4262
16620TIP3    H271276   0.969   2.559   3.126  0.2807 -0.0086  0.1807
16621TIP3   OH271277   4.127   6.306   0.805 -0.5951 -0.0507 -0.0887
16621TIP3    H171278   4.083   6.228   0.774 -1.5075  0.6264 -0.5432
16621TIP3    H271279   4.058   6.360   0.844 -0.1436  0.9174 -0.5709
16622TIP3   OH271280   5.577   2.201  17.582 -0.7309  0.2010  0.0754
16622TIP3    H171281   5.502   2.155  17.620 -0.1911 -1.0449 -0.3385
16622TIP3    H271282   5.564   2.194  17.488  0.8401 -1.6968 -0.0640
16623TIP3   OH271283   1.413   1.683  16.473 -0.4111 -0.0262  0.3759
16623TIP3    H171284   1.419   1.627  16.395  2.6913 -2.7478  2.3005
16623TIP3    H271285   1.320   1.680  16.497 -1.0180 -1.1604 -1.7937
16624TIP3   OH271286   5.953   3.162   2.236  0.2634  0.2716 -0.6420
16624TIP3    H171287   5.874   3.209   2.208 -1.6755 -1.2872  1.7120
16624TIP3    H271288   5.975   3.200   2.321  2.0850  0.6414 -1.2389
16625TIP3   OH271289   4.319   0.028  17.017 -0.0482  0.5350 -0.0087
16625TIP3    H171290   4.312   0.052  16.925 -0.3393 -1.2805 -0.4872
16625TIP3    H271291   4.229   0.025  17.048  0.0315  0.8166  0.2606
16626TIP3   OH271292   4.419   5.983  16.106 -0.0248  0.1714  0.3443
16626TIP3    H171293   4.421   5.898  16.151  0.3357 -0.2371 -0.4195
16626TIP3    H271294   4.343   5.978  16.048  0.8839 -0.2691 -0.8656
16627TIP3   OH271295   3.133   3.860   0.196  0.6039  0.4780 -0.3100
16627TIP3    H171296   3.116   3.835   0.287  0.7880 -0.6273 -0.5677
16627TIP3    H271297   3.196   3.795   0.164 -0.6530 -0.1276 -1.7008
16628TIP3   OH271298   0.594   5.109  12.986  0.1412 -0.8141  0.4841
16628TIP3    H171299   0.544   5.028  12.981  0.5644 -1.0337 -0.3626
16628TIP3    H271300   0.603   5.138  12.895 -1.6591  1.2269  0.8809
16629TIP3   OH271301   4.928   4.932   5.748 -1.3356  0.6594  0.3566
16629TIP3    H171302   4.934   4.977   5.664  0.6206 -0.0480  0.0630
16629TIP3    H271303   4.967   4.993   5.811  0.2437 -0.1020  0.1551
16630TIP3   OH271304   6.381   0.763  17.180  0.6612  0.2424 -0.2376
16630TIP3    H171305   6.384   0.832  17.114  0.3293 -0.3974 -0.9415
16630TIP3    H271306   6.471   0.731  17.185  0.1517 -2.0115 -2.9353
16631TIP3   OH271307   5.417   1.144  13.241  0.6993 -0.0861  0.7403
16631TIP3    H171308   5.339   1.095  13.215 -0.8266  1.6696  1.7695
16631TIP3    H271309   5.447   1.102  13.322 -1.0510  1.0476  2.0388
16632TIP3   OH271310   0.442   6.235  15.416 -0.3703 -0.1332 -0.1232
16632TIP3    H171311   0.410   6.266  15.500 -1.0677  0.1644 -0.4867
16632TIP3    H271312   0.363   6.212  15.367  0.0306 -0.4428 -0.6401
16633TIP3   OH271313   3.091   5.586  16.822  0.1081 -0.1232 -0.0247
16633TIP3    H171314   3.126   5.578  16.910  0.5067 -0.8923 -0.2517
16633TIP3    H271315   3.167   5.578  16.764 -0.3351 -1.1854 -0.4901
16634TIP3   OH271316   4.509   5.070  13.976  0.3528  0.0858  0.5425
16634TIP3    H171317   4.425   5.087  13.933  0.2222  1.6124  1.3183
16634TIP3    H271318   4.485   5.019  14.054  0.2633 -0.3195  0.2507
16635TIP3   OH271319   3.793   6.596  11.757  0.4158  0.5028 -0.1881
16635TIP3    H171320   3.825   6.531  11.695  1.5452  0.2260  0.6574
16635TIP3    H271321   3.764   6.545  11.832  0.9496  0.9437  0.3275
16636TIP3   OH271322   4.010   1.305  16.052 -0.5665  0.0894 -0.3501
16636TIP3    H171323   3.960   1.332  15.975 -1.8983 -0.3793  0.3278
16636TIP3    H271324   4.022   1.211  16.042 -1.0482 -0.0340  0.1760
16637TIP3   OH271325   3.164   2.989   0.510 -0.9406  0.2666 -0.0697
16637TIP3    H171326   3.259   2.989   0.495 -0.7593  1.0791  0.9198
16637TIP3    H271327   3.136   3.076   0.482 -1.3401  0.1551 -0.0197
16638TIP3   OH271328   5.712   5.476   5.235  0.5902  0.2286  0.6325
16638TIP3    H171329   5.674   5.468   5.322  0.0591  0.2794  0.4050
16638TIP3    H271330   5.646   5.439   5.177  0.3650  1.4217  0.1079
16639TIP3   OH271331   0.436   6.020  15.179  0.4584  0.0739 -0.0885
16639TIP3    H171332   0.498   6.017  15.106 -0.0069  0.7512 -0.5157
16639TIP3    H271333   0.484   6.065  15.249  0.6558  0.0699 -0.2199
16640TIP3   OH271334   6.482   0.363  11.955  0.2092  0.6878  0.0193
16640TIP3    H171335   6.557   0.349  11.898  0.4901 -1.1364  0.7574
16640TIP3    H271336   6.416   0.404  11.899  0.9678  0.2508 -1.2327
16641TIP3   OH271337   0.320   5.414   3.157  0.1159  0.2359  0.1240
16641TIP3    H171338   0.337   5.346   3.223  1.2622  1.4102  1.0838
16641TIP3    H271339   0.294   5.490   3.208 -3.3160  0.0148 -1.0268
16642TIP3   OH271340   2.233   0.964   0.665  0.3186 -0.2965  0.3368
16642TIP3    H171341   2.299   0.944   0.599 -0.0070  0.0756 -0.1129
16642TIP3    H271342   2.254   0.907   0.739  0.2822 -1.2188 -0.3491
16643TIP3   OH271343   3.128   3.123   2.111 -0.3805  0.0327  0.0879
16643TIP3    H171344   3.092   3.066   2.179  0.8521  0.4801  1.1368
16643TIP3    H271345   3.095   3.085   2.029 -1.9103 -0.4928  0.9057
16644TIP3   OH271346   1.409   1.634   2.365  0.1073  0.1749  0.4298
16644TIP3    H171347   1.487   1.579   2.351 -0.3021 -0.3083  0.0161
16644TIP3    H271348   1.422   1.671   2.452  1.0694  0.5466  0.1405
16645TIP3   OH271349   3.307   1.317   2.546  0.3193  0.5214  0.4220
16645TIP3    H171350   3.247   1.284   2.612 -1.0125  0.1386 -0.9240
16645TIP3    H271351   3.252   1.369   2.488  0.9730 -0.9283 -1.6120
16646TIP3   OH271352   1.161   6.155  16.206 -0.0702 -0.0068  0.2194
16646TIP3    H171353   1.095   6.205  16.159 -0.2464 -0.0906  0.3730
16646TIP3    H271354   1.223   6.221  16.239 -0.0149  0.0610 -0.0186
16647TIP3   OH271355   5.778   3.238   3.176 -0.4555 -0.2922 -0.7526
16647TIP3    H171356   5.780   3.334   3.167  2.5859 -0.0647  0.9267
16647TIP3    H271357   5.715   3.223   3.247  0.5298  0.7118  0.3903
16648TIP3   OH271358   1.322   6.578   0.940  0.3797 -0.6655 -0.0933
16648TIP3    H171359   1.411   6.558   0.911 -0.1286 -1.1311 -1.3897
16648TIP3    H271360   1.334   6.646   1.007  1.5450  1.7374 -2.5552
16649TIP3   OH271361   6.143   3.726  17.324 -0.4420  0.1586 -0.2549
16649TIP3    H171362   6.111   3.718  17.234  1.0838 -0.0434 -0.8041
16649TIP3    H271363   6.218   3.667  17.328  2.1167  3.1623 -0.0983
16650TIP3   OH271364   2.535   3.282  13.572 -0.4161  0.7873 -0.7809
16650TIP3    H171365   2.604   3.229  13.533  1.5284  1.5524  1.3368
16650TIP3    H271366   2.460   3.223  13.580 -0.7359  0.4017 -4.7491
16651TIP3   OH271367   0.287   6.697   3.461 -0.2450 -0.7652 -0.2947
16651TIP3    H171368   0.260   6.724   3.373 -0.3073 -0.6742 -0.2481
16651TIP3    H271369   0.288   6.778   3.512 -0.4765 -0.8576 -0.1417
16652TIP3   OH271370   0.510   3.682   6.654 -0.4663 -0.2135  0.4132
16652TIP3    H171371   0.537   3.774   6.656  0.1056 -0.3747  0.4142
16652TIP3    H271372   0.585   3.637   6.614 -1.9057 -0.2929 -2.4429
16653TIP3   OH271373   1.633   1.047  13.756 -0.3613 -0.5015 -0.6416
16653TIP3    H171374   1.591   1.043  13.670 -1.6883 -0.6827 -0.0004
16653TIP3    H271375   1.561   1.059  13.818  0.6681  0.8001  0.3592
16654TIP3   OH271376   0.962   5.699  13.006 -0.6694 -0.0614  0.0072
16654TIP3    H171377   0.896   5.763  12.979 -1.1055 -0.3364  0.4026
16654TIP3    H271378   0.912   5.617  13.017 -0.0912 -0.5290 -0.7103
16655TIP3   OH271379   6.309   4.808   3.029  0.1762  0.1064 -0.0746
16655TIP3    H171380   6.224   4.850   3.046  0.0786 -0.6507  1.4581
16655TIP3    H271381   6.295   4.716   3.053  1.2225 -0.1850 -0.5527
16656TIP3   OH271382   2.376   1.647   5.818  0.0858 -0.0776 -0.2137
16656TIP3    H171383   2.427   1.672   5.741  1.5509  2.0887  1.3564
16656TIP3    H271384   2.296   1.700   5.812 -0.6789 -1.2691 -1.1206
16657TIP3   OH271385   5.004   4.211   2.510  0.3149 -0.3136  0.0315
16657TIP3    H171386   5.077   4.265   2.541  0.5494  0.4857 -1.7583
16657TIP3    H271387   5.004   4.135   2.567 -1.7485  2.6484  4.5457
16658TIP3   OH271388   2.401   0.948   0.426  0.1341  0.5656  0.2866
16658TIP3    H171389   2.453   0.951   0.346  0.5681 -0.7929  0.4892
16658TIP3    H271390   2.326   0.892   0.404 -0.2768  1.0005  0.5445
16659TIP3   OH271391   1.202   3.967   2.936 -1.2938 -0.4411  0.6408
16659TIP3    H171392   1.114   4.000   2.920 -0.8511  0.2200 -0.5468
16659TIP3    H271393   1.226   4.003   3.021 -1.7122  0.3705  0.4192
16660TIP3   OH271394   3.814   3.096   4.018 -0.4825 -0.8527 -0.0277
16660TIP3    H171395   3.866   3.041   4.076  0.8335 -0.8449 -1.1434
16660TIP3    H271396   3.747   3.135   4.074  1.8025  0.5567  1.8646
16661TIP3   OH271397   0.320   6.012   0.621 -0.0162  0.4487  0.4200
16661TIP3    H171398   0.327   5.963   0.703  0.9071 -0.9419 -0.4547
16661TIP3    H271399   0.371   6.091   0.636  1.4366 -0.4929  0.7249
16662TIP3   OH271400   5.371   5.956   5.558 -0.4354 -0.3318  0.0394
16662TIP3    H171401   5.459   5.993   5.564 -1.2954  1.9490 -0.0845
16662TIP3    H271402   5.362   5.904   5.638  2.0011 -3.1741 -1.3508
16663TIP3   OH271403   3.849   6.265   3.134  0.0134  0.3459 -0.1232
16663TIP3    H171404   3.863   6.359   3.145 -1.0581  0.5552 -0.4314
16663TIP3    H271405   3.758   6.251   3.161  0.4743 -0.7800  0.9338
16664TIP3   OH271406   6.131   5.686   2.223 -0.9199  0.3752 -0.3457
16664TIP3    H171407   6.176   5.645   2.150 -0.9975  1.0397 -0.7727
16664TIP3    H271408   6.077   5.754   2.183  1.3880  2.8833  0.5736
16665TIP3   OH271409   6.067   4.175  11.803  0.5674  0.3738  0.6680
16665TIP3    H171410   6.044   4.258  11.760  1.2427  0.2694  0.0979
16665TIP3    H271411   6.068   4.111  11.732 -0.2419 -0.1961  1.1489
16666TIP3   OH271412   2.538   4.420  12.619  0.7540  0.1627  0.3812
16666TIP3    H171413   2.467   4.390  12.677  1.0509 -0.4239  0.4483
16666TIP3    H271414   2.534   4.515  12.624 -0.8585  0.1797 -0.6138
16667TIP3   OH271415   6.036   3.771   2.593  0.4731 -0.9741  0.6401
16667TIP3    H171416   6.059   3.747   2.504  1.6036  2.3384 -0.0866
16667TIP3    H271417   6.096   3.721   2.648  1.8324 -0.8104 -0.6451
16668TIP3   OH271418   4.776   3.383   6.286  0.4751  0.4114  0.3784
16668TIP3    H171419   4.822   3.438   6.224 -0.2061 -0.1137 -0.6294
16668TIP3    H271420   4.735   3.444   6.347 -0.7199  1.0849 -1.0380
16669TIP3   OH271421   1.226   2.687  14.181 -0.0765 -0.3775  0.2136
16669TIP3    H171422   1.176   2.610  14.156  0.4157 -1.0655  1.2790
16669TIP3    H271423   1.293   2.695  14.113 -0.4286 -0.5896 -0.1624
16670TIP3   OH271424   5.821   4.954   4.098 -0.1537  0.2921  0.1730
16670TIP3    H171425   5.843   4.897   4.171  0.9309 -1.1282 -1.2095
16670TIP3    H271426   5.765   4.901   4.041 -1.1838  1.4551  0.0478
16671TIP3   OH271427   3.744   1.743  17.161 -0.2414  0.2111 -0.5498
16671TIP3    H171428   3.651   1.751  17.139 -0.7247  1.8206  1.6462
16671TIP3    H271429   3.781   1.691  17.091 -2.8159 -0.5286 -1.4817
16672TIP3   OH271430   4.433   4.691  14.231 -0.3666 -0.4351 -0.1577
16672TIP3    H171431   4.423   4.657  14.320  1.2048  0.6899  0.5006
16672TIP3    H271432   4.407   4.783  14.237  0.6099 -0.1154 -0.6407
16673TIP3   OH271433   4.656   5.912   2.172 -0.0722  0.2538  0.3310
16673TIP3    H171434   4.617   5.847   2.114 -2.9619  1.3670  0.8428
16673TIP3    H271435   4.702   5.861   2.239  2.2399 -1.0617 -2.0628
16674TIP3   OH271436   5.542   0.477   1.290  0.0428  0.1415 -0.5998
16674TIP3    H171437   5.470   0.428   1.251 -0.1531  0.8493 -1.1357
16674TIP3    H271438   5.528   0.469   1.385 -0.2598 -0.4165 -0.6881
16675TIP3   OH271439   3.956   6.001   0.128  0.3462 -0.0532  0.3104
16675TIP3    H171440   3.903   5.928   0.098 -0.7982  1.1412 -0.6874
16675TIP3    H271441   3.945   6.068   0.061  0.6790  1.3406  1.5895
16676TIP3   OH271442   1.575   2.417  12.187  0.6288 -0.1591  0.3648
16676TIP3    H171443   1.600   2.485  12.250  0.9960 -0.9815  1.1302
16676TIP3    H271444   1.498   2.376  12.226 -2.1257  2.3175 -1.9344
16677TIP3   OH271445   0.976   1.491   1.680 -0.3411 -0.7611  0.0612
16677TIP3    H171446   0.901   1.512   1.625 -1.3285 -0.7860  1.3537
16677TIP3    H271447   0.982   1.396   1.679  0.1556 -0.7307 -0.6412
16678TIP3   OH271448   6.161   1.742  13.341  0.1756  0.3548 -0.5453
16678TIP3    H171449   6.157   1.759  13.436  1.0741  0.2214 -0.4757
16678TIP3    H271450   6.161   1.647  13.334 -1.7377  0.3427 -0.7848
16679TIP3   OH271451   1.677   3.472  13.238  0.4783  0.3346  0.7732
16679TIP3    H171452   1.653   3.412  13.167 -0.2501 -0.9602  2.0744
16679TIP3    H271453   1.773   3.468  13.241  0.5801  1.0369 -0.6407
16680TIP3   OH271454   4.100   4.578   3.056  0.4008 -0.5683  0.5935
16680TIP3    H171455   4.064   4.657   3.016  3.1473 -0.2644 -1.5493
16680TIP3    H271456   4.039   4.509   3.032 -1.1145  0.5814  1.0015
16681TIP3   OH271457   5.206   0.703   1.030 -0.5976  0.5012 -0.1525
16681TIP3    H171458   5.249   0.712   0.944  2.8308  0.3494  1.3992
16681TIP3    H271459   5.114   0.725   1.013 -0.0927  0.3851 -3.8575
16682TIP3   OH271460   1.622   0.617   0.287  0.2693  0.4406 -0.4681
16682TIP3    H171461   1.621   0.522   0.301 -0.5184  0.6164  0.8100
16682TIP3    H271462   1.707   0.645   0.321  1.1953  0.0257 -2.3084
16683TIP3   OH271463   0.750   6.310  11.467 -0.5706  0.0205 -0.2018
16683TIP3    H171464   0.744   6.406  11.476  0.4408  0.0741  0.0934
16683TIP3    H271465   0.675   6.277  11.515 -3.2300  0.7397 -3.5138
16684TIP3   OH271466   5.062   1.393   2.941  0.0523  0.5585  0.4333
16684TIP3    H171467   5.101   1.377   3.027  0.6790  0.8041  0.2023
16684TIP3    H271468   5.126   1.358   2.879 -0.4736  0.2339  0.0690
16685TIP3   OH271469   0.336   0.769   4.957 -0.3489 -0.4461  0.1467
16685TIP3    H171470   0.304   0.704   5.019 -2.1186 -1.1471 -1.3881
16685TIP3    H271471   0.263   0.830   4.946  0.9303  1.2745  0.8143
16686TIP3   OH271472   0.208   2.800   6.444  0.1066  0.0189 -0.3734
16686TIP3    H171473   0.290   2.833   6.407  0.1922  0.4268  0.1642
16686TIP3    H271474   0.229   2.781   6.535 -0.2489 -0.4324 -0.3873
16687TIP3   OH271475   1.666   6.379   3.135  0.0372  0.5548 -0.1289
16687TIP3    H171476   1.578   6.341   3.134  1.2631 -2.6311 -0.4957
16687TIP3    H271477   1.693   6.378   3.043  1.2276 -0.6946  0.2001
16688TIP3   OH271478   2.436   5.202  15.031  0.1497  0.4271  0.7747
16688TIP3    H171479   2.512   5.149  15.005 -0.0186 -0.2915  1.7193
16688TIP3    H271480   2.362   5.158  14.989  0.0671  0.1899  1.1672
16689TIP3   OH271481   0.514   4.475  17.401 -0.6210 -0.3484 -0.2416
16689TIP3    H171482   0.586   4.464  17.338  0.6065  2.6104  0.4455
16689TIP3    H271483   0.465   4.550  17.367 -1.5132 -0.3775  0.9421
16690TIP3   OH271484   0.346   4.599   4.162 -0.4023 -0.0439 -0.1479
16690TIP3    H171485   0.341   4.543   4.240 -1.8339  0.0031 -0.1899
16690TIP3    H271486   0.382   4.681   4.195  3.6166 -1.4768 -0.4075
16691TIP3   OH271487   4.473   0.437   3.392 -0.5300 -0.1427 -0.4266
16691TIP3    H171488   4.561   0.464   3.365 -0.8046  1.2902  0.0624
16691TIP3    H271489   4.431   0.409   3.311 -0.0836  0.4804 -0.8825
16692TIP3   OH271490   6.635   3.478   5.526 -0.2240 -0.3910  0.0163
16692TIP3    H171491   6.599   3.459   5.612 -0.8891 -1.0981 -0.4138
16692TIP3    H271492   6.559   3.483   5.468  0.1394  0.9410 -0.3879
16693TIP3   OH271493   0.978   2.950  15.559  0.1514  0.1280  0.4991
16693TIP3    H171494   0.927   2.941  15.639  1.4854 -0.0701  1.3700
16693TIP3    H271495   1.064   2.913  15.581  0.4500 -0.2434 -1.1315
16694TIP3   OH271496   3.867   4.842  11.544 -0.4119 -0.1468  0.4221
16694TIP3    H171497   3.800   4.806  11.485 -0.5499 -0.6129  0.8536
16694TIP3    H271498   3.880   4.773  11.610 -0.0948  0.2750  0.8052
16695TIP3   OH271499   4.210   4.439  13.887  0.2688 -0.0277  0.4516
16695TIP3    H171500   4.209   4.386  13.808 -1.2024 -0.4713  0.7238
16695TIP3    H271501   4.150   4.394  13.947  0.7025  0.7423  1.5148
16696TIP3   OH271502   5.328   0.596   0.791 -0.1859 -0.0524 -0.0723
16696TIP3    H171503   5.361   0.527   0.733 -0.5276 -1.5486  1.4484
16696TIP3    H271504   5.233   0.593   0.779 -0.1555  0.8513 -0.7064
16697TIP3   OH271505   1.903   0.468   3.524  0.3389 -0.5544 -0.1659
16697TIP3    H171506   1.820   0.444   3.565  0.6744  0.2052  1.0331
16697TIP3    H271507   1.887   0.555   3.488  0.3967 -0.7191 -0.5875
16698TIP3   OH271508   1.279   4.654  14.755 -0.9273  0.6452  0.4060
16698TIP3    H171509   1.226   4.580  14.786 -1.2056  0.9009  0.5364
16698TIP3    H271510   1.317   4.691  14.834 -0.6105  0.5115  0.3209
16699TIP3   OH271511   5.532   0.313   0.167  0.0772  0.7469 -0.0174
16699TIP3    H171512   5.510   0.404   0.148  1.4055  1.0087 -0.4137
16699TIP3    H271513   5.628   0.311   0.166  0.0697 -0.6194  0.1749
16700TIP3   OH271514   4.139   6.189  12.473  0.4945  0.2178  0.6378
16700TIP3    H171515   4.195   6.257  12.436  0.1403  0.3895  0.4091
16700TIP3    H271516   4.106   6.141  12.396  0.8103 -0.2658  0.8002
16701TIP3   OH271517   2.058   6.142  12.994 -0.0779 -0.7181 -0.9672
16701TIP3    H171518   2.077   6.120  13.085 -3.4994 -0.1816 -0.0002
16701TIP3    H271519   2.025   6.060  12.956  2.0140 -1.1436 -2.0530
16702TIP3   OH271520   1.641   1.437  13.867 -0.1826  0.4860  0.1533
16702TIP3    H171521   1.550   1.411  13.880 -0.7156  0.5542 -2.7017
16702TIP3    H271522   1.662   1.406  13.779  1.7416  2.6939 -0.2684
16703TIP3   OH271523   4.307   0.614   5.262  0.3350 -0.1045 -0.6920
16703TIP3    H171524   4.261   0.579   5.185 -0.0788  2.4472 -1.7005
16703TIP3    H271525   4.246   0.678   5.299  1.7078  0.8391  0.0123
16704TIP3   OH271526   3.819   1.826   1.392 -0.3106  0.3277  0.0982
16704TIP3    H171527   3.752   1.895   1.393  0.3334  1.0304 -1.2907
16704TIP3    H271528   3.880   1.850   1.462  0.2310  1.5655 -0.7509
16705TIP3   OH271529   2.369   1.614  11.480 -0.0413  0.1519 -0.4315
16705TIP3    H171530   2.297   1.632  11.541 -0.0279 -0.8451 -0.1016
16705TIP3    H271531   2.403   1.701  11.457 -1.1108  0.6233 -0.3183
16706TIP3   OH271532   3.178   2.956  11.994  0.3164 -0.0012 -0.2207
16706TIP3    H171533   3.268   2.958  12.028  0.7540  1.6353 -1.3504
16706TIP3    H271534   3.188   2.968  11.899 -1.0782 -0.1893 -0.4153
16707TIP3   OH271535   1.701   0.072  16.897  0.0044  0.1374  0.0190
16707TIP3    H171536   1.751   0.154  16.895  1.0092 -0.4718 -1.5161
16707TIP3    H271537   1.681   0.054  16.805 -2.2946 -0.1335  0.5027
16708TIP3   OH271538   2.674   5.984  15.605  0.0057 -0.4274  0.3268
16708TIP3    H171539   2.713   6.062  15.566 -0.8169  0.3501  0.9979
16708TIP3    H271540   2.730   5.964  15.680  0.8245 -1.1280 -0.4583
16709TIP3   OH271541   0.578   3.693   5.860 -0.1002  0.0762 -0.3699
16709TIP3    H171542   0.511   3.635   5.824 -2.4568  2.0076  0.5972
16709TIP3    H271543   0.597   3.657   5.946  0.1979 -0.5376 -0.6865
16710TIP3   OH271544   5.877   4.125   5.582 -0.2908  0.5399  0.0507
16710TIP3    H171545   5.804   4.121   5.644  0.3238  1.3181  0.8489
16710TIP3    H271546   5.951   4.090   5.631  0.3612  1.7966  0.0087
16711TIP3   OH271547   4.285   2.981  16.783  0.3823  0.3209  0.1945
16711TIP3    H171548   4.364   2.938  16.816 -0.7480 -0.9266  1.3928
16711TIP3    H271549   4.287   3.068  16.822 -0.1461 -0.6147  2.4416
16712TIP3   OH271550   0.333   5.929  12.923  0.0895  0.0722 -1.1991
16712TIP3    H171551   0.392   5.857  12.946  2.3748  1.6143 -1.8238
16712TIP3    H271552   0.385   6.008  12.940 -1.9216  1.5510 -1.5888
16713TIP3   OH271553   3.729   1.984   0.917  0.4076  0.5314 -0.2883
16713TIP3    H171554   3.782   1.948   0.988 -1.2314 -1.2673  0.1180
16713TIP3    H271555   3.707   2.072   0.946 -0.8303 -0.3944  1.8669
16714TIP3   OH271556   4.096   6.429  12.630  0.4722 -0.2247 -0.3455
16714TIP3    H171557   4.176   6.477  12.651  0.0495  0.1809  0.4249
16714TIP3    H271558   4.125   6.351  12.584  1.2820  0.0881 -0.3802
16715TIP3   OH271559   6.059   1.589  15.862 -0.1314 -0.3069  0.1243
16715TIP3    H171560   6.128   1.594  15.795  0.7239  0.2658  1.0258
16715TIP3    H271561   6.008   1.513  15.836  1.2040 -1.1279 -0.2373
16716TIP3   OH271562   6.227   5.517  15.495  0.1133 -0.5312  0.0670
16716TIP3    H171563   6.164   5.448  15.515  0.9494 -1.1684  0.5460
16716TIP3    H271564   6.312   5.473  15.493  0.4031 -0.0349 -2.3682
16717TIP3   OH271565   6.145   1.978  15.475  0.0882  0.2558 -0.0274
16717TIP3    H171566   6.211   1.976  15.545  0.5003  1.8998 -0.3162
16717TIP3    H271567   6.160   1.898  15.425  1.1145  0.0440  0.5884
16718TIP3   OH271568   3.236   3.236   5.777  0.1434 -0.4351  0.1795
16718TIP3    H171569   3.255   3.144   5.799  1.3204 -0.3573 -0.3950
16718TIP3    H271570   3.297   3.286   5.831  0.1111 -0.0370 -0.1504
16719TIP3   OH271571   5.411   6.147   4.141  0.4746  0.4204  0.4556
16719TIP3    H171572   5.442   6.059   4.119  0.4174  0.3723  0.5693
16719TIP3    H271573   5.474   6.180   4.204 -0.4219 -0.1905  1.7180
16720TIP3   OH271574   0.128   0.028   0.442  0.6783 -0.5692 -0.2729
16720TIP3    H171575   0.067  -0.045   0.430  0.3956 -0.2395 -0.9265
16720TIP3    H271576   0.081   0.104   0.407  0.6663  0.0727  1.0942
16721TIP3   OH271577   3.771   0.287   5.748 -0.1207  0.1138 -0.2084
16721TIP3    H171578   3.790   0.194   5.756  0.5567  0.2874  0.3548
16721TIP3    H271579   3.711   0.306   5.820 -1.9106 -0.2802 -1.5383
16722TIP3   OH271580   3.719   3.917  12.683  0.4088  0.0408 -0.2926
16722TIP3    H171581   3.646   3.951  12.735 -1.1593 -1.3155 -1.4690
16722TIP3    H271582   3.793   3.913  12.743 -0.9710 -0.2134  1.4606
16723TIP3   OH271583   0.569   5.686   5.284  0.1780  0.6842 -1.0144
16723TIP3    H171584   0.576   5.782   5.284 -0.5133  0.7476 -0.0544
16723TIP3    H271585   0.475   5.668   5.292  0.3301 -0.0800 -0.8465
16724TIP3   OH271586   3.103   3.869  12.912  0.1344 -0.4090 -0.1418
16724TIP3    H171587   3.029   3.928  12.917 -0.0359 -0.5662 -0.7278
16724TIP3    H271588   3.150   3.882  12.994 -0.2455  0.0778  0.0011
16725TIP3   OH271589   3.244   3.656  11.064 -0.3518  0.2180 -0.0587
16725TIP3    H171590   3.207   3.742  11.043  0.7312  1.3224  2.1752
16725TIP3    H271591   3.337   3.665  11.044  0.0058  0.0450  1.4113
16726TIP3   OH271592   5.238   1.653   5.413  0.0772 -0.5183  0.8071
16726TIP3    H171593   5.296   1.707   5.466 -1.6137  1.2991  0.9281
16726TIP3    H271594   5.200   1.591   5.474  0.1385 -0.1810  1.1909
16727TIP3   OH271595   5.916   2.434   2.820  0.0724 -0.2110 -0.1613
16727TIP3    H171596   5.906   2.500   2.888  0.8589  1.2245 -1.3789
16727TIP3    H271597   5.958   2.360   2.864  2.2721  1.3674  0.5715
16728TIP3   OH271598   2.116   0.165  10.736  0.5068 -0.4307 -0.1575
16728TIP3    H171599   2.075   0.213  10.807  1.0111 -0.1198 -0.0714
16728TIP3    H271600   2.208   0.190  10.740  0.4822 -0.1045 -1.1590
16729TIP3   OH271601   3.969   3.340   0.347  0.2809  0.1228  0.5649
16729TIP3    H171602   3.934   3.256   0.318  1.8763 -0.4854  0.2698
16729TIP3    H271603   4.056   3.318   0.382  0.2859  1.5082  1.4807
16730TIP3   OH271604   5.687   3.519   6.684 -0.6902 -0.6985  0.0635
16730TIP3    H171605   5.623   3.461   6.726  1.5216 -1.6270  2.4436
16730TIP3    H271606   5.744   3.460   6.635  0.4184 -0.3447  0.8958
16731TIP3   OH271607   6.390   2.434   6.421 -0.1321 -0.2449 -0.2403
16731TIP3    H171608   6.324   2.378   6.380 -0.3677 -0.5428  0.5262
16731TIP3    H271609   6.459   2.374   6.449 -0.4275 -0.1767  0.6689
16732TIP3   OH271610   6.213   2.403  16.336 -0.9126 -0.0010 -0.4555
16732TIP3    H171611   6.238   2.429  16.425 -1.6237  0.8985 -0.5029
16732TIP3    H271612   6.157   2.327  16.348 -0.9272  0.0585 -0.1367
16733TIP3   OH271613   5.707   4.728   5.499  0.0075  0.1381 -0.1341
16733TIP3    H171614   5.728   4.644   5.458  1.6372  0.5837 -0.2921
16733TIP3    H271615   5.673   4.705   5.585  1.1766 -0.6806  0.1348
16734TIP3   OH271616   5.638   6.140  11.099  0.8863 -0.0159 -0.3880
16734TIP3    H171617   5.700   6.161  11.169  0.3858 -0.0565  0.0696
16734TIP3    H271618   5.589   6.222  11.086 -1.6482 -1.0177  1.9714
16735TIP3   OH271619   4.077   5.034  13.359 -0.7544 -0.3124 -0.5654
16735TIP3    H171620   4.125   5.023  13.441  2.6725  1.4122 -2.1343
16735TIP3    H271621   4.066   5.129  13.350  0.0627 -0.3583 -2.6156
16736TIP3   OH271622   4.146   0.717  11.143  0.2485 -0.1723 -0.2352
16736TIP3    H171623   4.052   0.714  11.158  0.1692 -0.8738 -0.8203
16736TIP3    H271624   4.162   0.653  11.073  1.1108  0.1854 -0.3869
16737TIP3   OH271625   4.667   0.373  13.845 -0.1680 -0.0505  0.0117
16737TIP3    H171626   4.690   0.452  13.894 -0.6453  0.6684 -0.8722
16737TIP3    H271627   4.608   0.325  13.903  1.5634 -0.6939  1.2920
16738TIP3   OH271628   1.267   1.204  14.178 -0.4767  0.5697  0.9757
16738TIP3    H171629   1.221   1.138  14.126 -1.5382  0.5211  1.9476
16738TIP3    H271630   1.263   1.172  14.268  0.6894  1.0190  1.2097
16739TIP3   OH271631   0.706   2.123  12.271 -0.4582  0.0405  0.5755
16739TIP3    H171632   0.733   2.032  12.257 -0.1313  0.0596  1.0453
16739TIP3    H271633   0.749   2.148  12.353  0.5400  1.0387 -0.2192
16740TIP3   OH271634   3.973   0.601   5.335 -0.1597  0.0867  0.1102
16740TIP3    H171635   3.938   0.606   5.246  0.6944 -4.7984 -0.7644
16740TIP3    H271636   3.895   0.594   5.391 -0.6622  0.9816 -0.4521
16741TIP3   OH271637   6.650   2.260   0.912 -0.1443  0.0920  0.1145
16741TIP3    H171638   6.615   2.231   0.997  0.3477 -2.1345 -0.3610
16741TIP3    H271639   6.700   2.339   0.932  0.8739 -0.9704  2.1339
16742TIP3   OH271640   3.187   0.925   1.359 -0.2072 -0.0791  0.1353
16742TIP3    H171641   3.275   0.943   1.327  0.6949 -0.5993  2.1465
16742TIP3    H271642   3.139   1.007   1.345  1.2474  0.9660  1.0099
16743TIP3   OH271643   6.619   4.006  11.408 -0.0850 -0.0503  0.2068
16743TIP3    H171644   6.543   3.955  11.378 -1.3224  2.1565 -0.6136
16743TIP3    H271645   6.613   4.004  11.503 -2.4133  1.7053  0.1803
16744TIP3   OH271646   2.547   0.314   2.974 -0.0126  0.1329 -0.2542
16744TIP3    H171647   2.520   0.361   2.895  1.4642  0.8633 -0.3643
16744TIP3    H271648   2.634   0.350   2.994  2.3306 -4.0440 -1.6658
16745TIP3   OH271649   2.072   6.234   1.336  0.3574 -0.3982 -0.1794
16745TIP3    H171650   2.160   6.211   1.306  1.0417  0.6500  0.9314
16745TIP3    H271651   2.062   6.326   1.313  0.7656  0.3554  2.3106
16746TIP3   OH271652   0.716   5.326  13.505 -0.2573  0.0150 -0.2518
16746TIP3    H171653   0.641   5.385  13.515 -1.2102 -0.8846 -1.6586
16746TIP3    H271654   0.749   5.346  13.417  0.7656 -0.0388  0.1161
16747TIP3   OH271655   2.022   6.605   2.564  0.6928 -0.1638  0.0087
16747TIP3    H171656   1.978   6.571   2.641 -0.8183 -1.0310 -1.1910
16747TIP3    H271657   2.103   6.554   2.558  0.1859 -1.0202  0.2813
16748TIP3   OH271658   4.664   2.606  16.291 -0.0270 -0.2740 -0.6659
16748TIP3    H171659   4.629   2.674  16.349  0.1326 -1.4258  0.8298
16748TIP3    H271660   4.597   2.595  16.224 -0.9699 -0.0386  0.2162
16749TIP3   OH271661   5.430   5.356   3.103 -0.3485 -1.0647 -0.7189
16749TIP3    H171662   5.396   5.435   3.146 -1.9758 -0.8397 -2.2989
16749TIP3    H271663   5.525   5.367   3.105 -0.4785  0.1164  0.5917
16750TIP3   OH271664   3.656   5.765  13.933 -0.5983 -0.0297 -0.6991
16750TIP3    H171665   3.565   5.745  13.957 -0.5902 -1.2199 -1.5746
16750TIP3    H271666   3.696   5.679  13.919  0.7376  0.4751 -0.0978
16751TIP3   OH271667   0.735   2.026   5.835 -0.0858  0.5593 -0.2693
16751TIP3    H171668   0.692   2.041   5.751  1.3309  0.8524 -0.9809
16751TIP3    H271669   0.668   2.043   5.901 -1.0318  0.9955 -1.3292
16752TIP3   OH271670   6.201   5.174  16.419  0.1821 -0.1843 -0.4609
16752TIP3    H171671   6.233   5.093  16.379  0.2450 -0.5080  0.2335
16752TIP3    H271672   6.245   5.178  16.504  1.2275  1.2636 -1.0172
16753TIP3   OH271673   4.846   3.666   2.852 -0.2585 -0.3626 -0.6726
16753TIP3    H171674   4.822   3.707   2.769 -1.2792 -1.2419 -0.8285
16753TIP3    H271675   4.763   3.645   2.894  0.2268  0.5883  0.8682
16754TIP3   OH271676   3.916   0.264  14.593 -0.6467  0.0822  0.0092
16754TIP3    H171677   3.985   0.211  14.634 -0.3181  0.1424 -0.4539
16754TIP3    H271678   3.963   0.335  14.550 -1.0928  0.8057  0.6939
16755TIP3   OH271679   6.013   2.564  14.027 -0.2454  0.3309 -0.0221
16755TIP3    H171680   5.966   2.495  13.979 -0.1609  0.3929 -0.1942
16755TIP3    H271681   5.975   2.646  13.996  0.4871  0.4199 -0.7275
16756TIP3   OH271682   4.319   1.678   3.815  0.2446 -0.1343  0.2936
16756TIP3    H171683   4.262   1.753   3.799 -0.4862 -0.8541 -0.6312
16756TIP3    H271684   4.395   1.714   3.861 -1.0078  0.8293  1.7206
16757TIP3   OH271685   0.694   1.316  11.685  0.0336  0.2803  0.5648
16757TIP3    H171686   0.619   1.264  11.712 -1.4570  1.8810 -0.3265
16757TIP3    H271687   0.712   1.288  11.595  0.3726  0.0500  0.7027
16758TIP3   OH271688   1.215   1.637   0.858  0.1962 -0.2528 -0.2875
16758TIP3    H171689   1.177   1.567   0.911 -0.5007  0.8564  0.7253
16758TIP3    H271690   1.309   1.624   0.865  0.0741 -1.3273 -0.4518
16759TIP3   OH271691   2.530   2.952   1.871 -0.3575  0.6123 -0.1588
16759TIP3    H171692   2.619   2.947   1.905  0.4513 -1.3446 -2.3212
16759TIP3    H271693   2.540   2.985   1.781 -1.8182  0.3566 -0.4481
16760TIP3   OH271694   1.607   3.493   6.059  0.1736 -0.1434 -0.4229
16760TIP3    H171695   1.604   3.408   6.014  0.4628 -0.8244  0.8185
16760TIP3    H271696   1.594   3.473   6.151 -0.0080  1.1994 -0.1277
16761TIP3   OH271697   5.558   6.393   0.264 -0.5071 -0.2947 -0.2663
16761TIP3    H171698   5.592   6.482   0.276 -0.3558 -0.5749  1.7368
16761TIP3    H271699   5.517   6.372   0.348 -0.9207 -1.9701 -0.8532
16762TIP3   OH271700   2.138   1.286  14.344  0.0552  0.3158  0.0310
16762TIP3    H171701   2.156   1.205  14.297 -1.9640  0.3250 -0.8548
16762TIP3    H271702   2.127   1.352  14.276 -0.0143  0.9829  0.6677
16763TIP3   OH271703   2.399   6.502   3.040  0.2100 -0.1818  0.2946
16763TIP3    H171704   2.401   6.588   2.997 -0.7613  0.4275  1.3981
16763TIP3    H271705   2.379   6.522   3.131 -0.7047 -1.6392  0.4346
16764TIP3   OH271706   4.615   5.667   2.586  0.5257 -0.2760 -0.1140
16764TIP3    H171707   4.612   5.583   2.632  1.4272  0.1557  0.7634
16764TIP3    H271708   4.655   5.727   2.648  0.8512  0.5634 -1.1060
16765TIP3   OH271709   4.619   0.962  14.781  0.4477  0.0481  0.4289
16765TIP3    H171710   4.587   0.887  14.829  1.9227  2.0441  5.0522
16765TIP3    H271711   4.704   0.934  14.747  1.1346 -0.3912  2.3789
16766TIP3   OH271712   3.049   1.153   1.921  0.4726 -0.1981 -0.2129
16766TIP3    H171713   2.975   1.100   1.951  0.9963 -0.4745  0.6183
16766TIP3    H271714   3.092   1.099   1.855  0.6359 -0.5450  0.1759
16767TIP3   OH271715   6.054   2.549  12.752  0.4544 -0.1349  0.1008
16767TIP3    H171716   6.011   2.631  12.778  1.4647 -0.0481  1.6551
16767TIP3    H271717   6.033   2.489  12.824  1.1528 -0.7174 -0.1795
16768TIP3   OH271718   4.986   5.773  17.514 -0.0272 -0.0941 -0.1163
16768TIP3    H171719   5.050   5.754  17.445  1.8434 -0.1361  1.5461
16768TIP3    H271720   5.028   5.745  17.595 -2.9269 -1.9130  0.9242
16769TIP3   OH271721   0.352   2.064   4.291 -0.2835 -0.0896 -0.5425
16769TIP3    H171722   0.419   2.114   4.337 -1.4325 -0.0065  1.1568
16769TIP3    H271723   0.352   2.100   4.202  1.3588  0.4248 -0.3664
16770TIP3   OH271724   3.183   1.558  14.634  0.5946 -0.5710 -0.6256
16770TIP3    H171725   3.151   1.646  14.613  0.4614 -0.2972  0.6648
16770TIP3    H271726   3.213   1.523  14.550 -0.5363  0.2154 -1.3878
16771TIP3   OH271727   1.090   0.246  16.344 -0.0119 -0.1638 -0.0338
16771TIP3    H171728   1.172   0.197  16.350 -0.7067 -1.5722 -1.2490
16771TIP3    H271729   1.044   0.226  16.426  0.0621 -0.9335 -0.1714
16772TIP3   OH271730   1.581   0.858   3.976 -0.0520 -0.0267  0.0704
16772TIP3    H171731   1.672   0.885   3.963 -0.6813  2.6982  0.6322
16772TIP3    H271732   1.579   0.819   4.063  0.5079  0.3210  0.2413
16773TIP3   OH271733   5.537   0.204   5.823 -0.1081 -0.0294 -0.8462
16773TIP3    H171734   5.461   0.173   5.871 -1.2273  2.1468 -1.0710
16773TIP3    H271735   5.503   0.224   5.736  0.6570  1.1615 -0.8919
16774TIP3   OH271736   6.012   2.324   1.276 -0.2834  0.2193 -0.1732
16774TIP3    H171737   5.947   2.253   1.274 -0.5422  0.3897  1.1960
16774TIP3    H271738   5.962   2.402   1.297  0.3048  0.4337  0.4600
16775TIP3   OH271739   2.756   4.658  10.926  0.4437  0.1452  0.0468
16775TIP3    H171740   2.720   4.744  10.902  1.2934 -0.0055 -1.8780
16775TIP3    H271741   2.849   4.665  10.909  0.2255 -1.8550 -2.4072
16776TIP3   OH271742   0.765   0.578   2.728  0.0749 -0.3147 -0.2147
16776TIP3    H171743   0.746   0.663   2.689 -0.4728 -0.7447 -0.9166
16776TIP3    H271744   0.743   0.589   2.821 -4.0435 -0.7861 -0.9305
16777TIP3   OH271745   6.350   0.686   5.890  0.0480  0.4892  0.3554
16777TIP3    H171746   6.442   0.693   5.917  0.6130 -1.0338 -1.0226
16777TIP3    H271747   6.352   0.702   5.796 -1.3027  1.5792  0.4816
16778TIP3   OH271748   6.485   0.257  12.859 -0.7841 -0.0657  0.2309
16778TIP3    H171749   6.416   0.224  12.801 -1.5945 -1.7465  2.0443
16778TIP3    H271750   6.439   0.281  12.940  0.7624 -1.9010  1.7636
16779TIP3   OH271751   1.131   0.179  13.736  0.1208 -0.4403  0.6425
16779TIP3    H171752   1.044   0.140  13.743 -0.0042 -0.0358  1.5693
16779TIP3    H271753   1.160   0.190  13.827  0.7826  0.2088  0.3693
16780TIP3   OH271754   6.390   6.446   2.137 -0.3862  0.4205 -0.1411
16780TIP3    H171755   6.339   6.375   2.176  1.7493 -0.5692  0.9991
16780TIP3    H271756   6.328   6.492   2.081 -2.3044 -1.1987  0.5483
16781TIP3   OH271757   4.410   6.076  13.560  0.6888 -0.1356  0.2857
16781TIP3    H171758   4.435   6.163  13.590  0.3224 -0.2221  0.8441
16781TIP3    H271759   4.490   6.024  13.568  0.3999 -0.3731  1.9231
16782TIP3   OH271760   6.337   3.039   3.185 -0.1526  0.1365  0.0677
16782TIP3    H171761   6.285   3.120   3.188 -0.6371 -0.1425 -0.5503
16782TIP3    H271762   6.412   3.057   3.240 -0.9283  0.5359  1.0214
16783TIP3   OH271763   1.559   1.546  14.854  0.2123  0.7708  0.3642
16783TIP3    H171764   1.483   1.487  14.849  1.1991 -0.4575 -0.6118
16783TIP3    H271765   1.550   1.603  14.778  1.4196 -0.8677 -1.0827
16784TIP3   OH271766   0.815   4.801  11.506 -0.0245  0.2845  0.4110
16784TIP3    H171767   0.902   4.838  11.522  0.6951  0.3171 -2.9258
16784TIP3    H271768   0.831   4.711  11.479 -1.1286 -0.0021  0.6556
16785TIP3   OH271769   3.594   6.061  15.885 -0.2595  0.5881 -0.9234
16785TIP3    H171770   3.581   6.078  15.978 -0.3278 -0.6948 -0.6851
16785TIP3    H271771   3.535   6.122  15.841 -3.2809 -1.4447 -0.0004
16786TIP3   OH271772   5.376   1.854   2.108 -0.5919 -0.1547 -0.3400
16786TIP3    H171773   5.467   1.827   2.124 -0.8865 -2.5184 -2.1588
16786TIP3    H271774   5.333   1.843   2.193  0.6218  0.2480  0.3607
16787TIP3   OH271775   3.907   3.769  13.951 -0.1647  0.2017 -0.5466
16787TIP3    H171776   3.940   3.859  13.947  0.4453  0.0268  0.3755
16787TIP3    H271777   3.825   3.771  13.902 -1.0659  1.6661  0.9461
16788TIP3   OH271778   0.348   4.780   6.624  0.3692 -0.2892  0.1297
16788TIP3    H171779   0.262   4.741   6.639  0.3948 -0.3600  0.0947
16788TIP3    H271780   0.365   4.833   6.702  0.1913 -0.0865  0.0298
16789TIP3   OH271781   0.876   6.592   6.431  0.4130 -0.2528 -0.6519
16789TIP3    H171782   0.821   6.612   6.506  0.3349 -0.1619 -0.7334
16789TIP3    H271783   0.878   6.497   6.427  0.2723 -0.2560 -0.6413
16790TIP3   OH271784   3.866   2.885   5.607  0.9607  0.0957 -0.7250
16790TIP3    H171785   3.793   2.834   5.643  1.6873  0.4830  1.4278
16790TIP3    H271786   3.918   2.821   5.560  1.5992 -1.1476  1.5241
16791TIP3   OH271787   1.643   2.924  12.931  0.3099 -0.0776 -0.2831
16791TIP3    H171788   1.667   2.833  12.917 -2.0118 -0.8995  0.5818
16791TIP3    H271789   1.622   2.957  12.843 -1.5270 -1.2727 -0.3574
16792TIP3   OH271790   1.114   4.282  17.024  0.2772 -0.0807  0.5581
16792TIP3    H171791   1.142   4.214  16.962  0.5945  1.3898 -0.9647
16792TIP3    H271792   1.162   4.360  16.997  2.3397  0.1166  4.1762
16793TIP3   OH271793   0.258   4.284  12.685 -0.1944  0.1155 -0.1526
16793TIP3    H171794   0.200   4.359  12.669  2.4375  2.1150 -1.0457
16793TIP3    H271795   0.295   4.300  12.772  1.3243  0.6067 -0.8517
16794TIP3   OH271796   4.906   4.040  14.850  0.0227  0.2337  0.0041
16794TIP3    H171797   4.931   4.129  14.822  2.1939 -1.2021 -3.1538
16794TIP3    H271798   4.987   4.003  14.885 -1.2496 -0.1112  2.9323
16795TIP3   OH271799   6.537   6.564  13.001 -0.0778 -0.3252  0.3249
16795TIP3    H171800   6.558   6.644  13.049 -0.1979  0.0988 -0.3263
16795TIP3    H271801   6.478   6.516  13.060 -1.4518  0.8876  0.0033
16796TIP3   OH271802   1.226   1.576  13.122  0.1943  0.4432  0.1923
16796TIP3    H171803   1.245   1.557  13.030  1.1123 -1.0951  0.6525
16796TIP3    H271804   1.135   1.550  13.134 -0.0890  1.1349 -0.3876
16797TIP3   OH271805   0.894   5.927   0.073  0.2858 -0.2984  0.0744
16797TIP3    H171806   0.836   5.868   0.121 -0.5204  2.0081  2.1817
16797TIP3    H271807   0.956   5.958   0.139  1.0494  0.7356 -1.0848
16798TIP3   OH271808   5.928   1.257   1.806  0.1281 -0.4251  0.5217
16798TIP3    H171809   5.886   1.209   1.735  0.0744 -1.5171  1.2660
16798TIP3    H271810   6.005   1.205   1.828  1.7670  1.4081 -0.6352
16799TIP3   OH271811   1.979   2.044   0.042 -0.0230 -0.5136 -0.3020
16799TIP3    H171812   1.951   1.964   0.086 -0.2385 -0.5941 -0.5814
16799TIP3    H271813   2.010   2.101   0.112  1.3034 -1.3115 -0.2113
16800TIP3   OH271814   3.761   1.130   0.460  0.0823  0.3048  0.3723
16800TIP3    H171815   3.808   1.172   0.388  0.0228  1.6581  1.1058
16800TIP3    H271816   3.714   1.057   0.418  2.4856 -0.8940 -0.4609
16801TIP3   OH271817   3.565   4.750  14.003  0.1496  0.0677 -1.1422
16801TIP3    H171818   3.497   4.811  13.974  0.2793 -0.2852 -2.2212
16801TIP3    H271819   3.579   4.772  14.095  0.3943  1.8666 -1.5729
16802TIP3   OH271820   5.339   2.305   4.530  0.3772 -0.1120  0.3496
16802TIP3    H171821   5.286   2.260   4.596 -0.3786  1.4280  0.8291
16802TIP3    H271822   5.282   2.310   4.453  0.5759 -0.2453  0.1919
16803TIP3   OH271823   5.326   0.917   4.371  0.3174  0.0952  0.0258
16803TIP3    H171824   5.347   1.004   4.337 -1.7773  0.5794 -0.1758
16803TIP3    H271825   5.330   0.926   4.466 -0.4930  0.5899  0.0182
16804TIP3   OH271826   0.341   2.681  13.503 -0.5001  0.4382  1.3497
16804TIP3    H171827   0.394   2.743  13.452  0.0207 -1.7732 -1.0600
16804TIP3    H271828   0.379   2.684  13.591 -1.2052  4.1965  1.6890
16805TIP3   OH271829   1.274   0.727   5.737  0.0817 -0.0932  0.6567
16805TIP3    H171830   1.319   0.697   5.816  0.1254 -0.8444  0.3531
16805TIP3    H271831   1.200   0.668   5.728  1.7219 -1.9912 -1.5013
16806TIP3   OH271832   3.595   5.663  11.878 -0.0688 -0.1904 -0.2974
16806TIP3    H171833   3.553   5.748  11.889  1.1148  0.7296 -2.3393
16806TIP3    H271834   3.636   5.645  11.962 -0.5775  1.1280  0.2515
16807TIP3   OH271835   0.997   5.960   1.943 -0.2603  0.3066 -1.1589
16807TIP3    H171836   1.054   5.887   1.916 -0.2248 -0.3017  0.4937
16807TIP3    H271837   0.920   5.918   1.981  0.5315  1.0444  1.4711
16808TIP3   OH271838   1.926   3.728   0.566 -0.1537 -0.3533  0.1932
16808TIP3    H171839   1.856   3.663   0.577 -1.3177  0.3939 -2.0586
16808TIP3    H271840   1.916   3.758   0.476  0.7784  2.4388  0.9199
16809TIP3   OH271841   4.211   5.520  15.264  0.2507  0.5131 -0.4598
16809TIP3    H171842   4.235   5.612  15.252  0.3010  0.6150  0.4021
16809TIP3    H271843   4.285   5.481  15.309  0.8186 -0.2831 -1.9977
16810TIP3   OH271844   1.603   1.484   0.035  0.1794 -0.3529  0.3566
16810TIP3    H171845   1.676   1.423   0.045  1.4987  1.2864  1.4155
16810TIP3    H271846   1.527   1.437   0.069  0.8478 -1.8885 -0.1910
16811TIP3   OH271847   4.230   6.619   4.545 -0.6703 -0.0521 -0.4491
16811TIP3    H171848   4.161   6.634   4.609 -0.7378 -1.7112 -0.0753
16811TIP3    H271849   4.212   6.531   4.511  2.2318 -1.3379  0.9773
16812TIP3   OH271850   3.191   2.208  11.944  0.1161 -0.3373 -0.5444
16812TIP3    H171851   3.187   2.291  11.991 -3.0262  0.0093 -1.2316
16812TIP3    H271852   3.222   2.145  12.009 -1.1260  0.6880  1.1044
16813TIP3   OH271853   1.701   2.460  16.650 -0.1966 -0.2758 -0.0368
16813TIP3    H171854   1.768   2.427  16.711 -0.2202  0.6357  0.4982
16813TIP3    H271855   1.661   2.381  16.613  1.5378 -0.8480 -0.7806
16814TIP3   OH271856   6.036   4.818  15.057 -0.7662  0.2680 -0.3490
16814TIP3    H171857   6.010   4.810  14.965 -1.1445  1.6791 -0.3812
16814TIP3    H271858   5.962   4.783  15.106 -1.7889  2.0885 -0.5175
16815TIP3   OH271859   2.700   2.449   3.427  0.2131  0.1752 -0.1104
16815TIP3    H171860   2.743   2.391   3.489 -0.8182 -0.8970 -0.3623
16815TIP3    H271861   2.768   2.511   3.401  0.7409  0.5245  1.9005
16816TIP3   OH271862   4.950   6.237  12.155  0.0151  0.0621  0.0231
16816TIP3    H171863   4.919   6.308  12.100  0.4167 -0.4277 -0.8614
16816TIP3    H271864   4.884   6.228  12.224  0.3069  1.7251  0.5496
16817TIP3   OH271865   5.321   4.382  12.613 -0.3984  0.0373 -0.0536
16817TIP3    H171866   5.328   4.412  12.522  1.1990 -0.8330 -0.2530
16817TIP3    H271867   5.235   4.339  12.617 -0.5167  0.1347 -1.1260
16818TIP3   OH271868   2.116   1.032   5.703  0.5674  0.5541 -0.3642
16818TIP3    H171869   2.037   0.979   5.714  0.2049  1.3102  0.8218
16818TIP3    H271870   2.107   1.071   5.616 -0.0188  0.0690 -0.5291
16819TIP3   OH271871   5.179   0.238   3.577  0.3621 -0.5068 -0.2003
16819TIP3    H171872   5.126   0.243   3.657 -0.1338 -1.2496 -0.4748
16819TIP3    H271873   5.123   0.193   3.514 -0.3617  2.5540 -1.9130
16820TIP3   OH271874   2.944   0.089   2.209 -0.6431  0.1826  0.4743
16820TIP3    H171875   2.872   0.149   2.191 -0.0712  0.3898 -1.2795
16820TIP3    H271876   2.978   0.118   2.294 -3.6224 -0.9901  2.2283
16821TIP3   OH271877   3.760   0.137  12.188  0.0388 -0.4251 -0.8903
16821TIP3    H171878   3.702   0.087  12.245  1.8584 -3.3718 -1.4350
16821TIP3    H271879   3.829   0.169  12.246  1.6673 -3.0793 -1.1797
16822TIP3   OH271880   4.309   1.818   3.052  0.1987 -0.1232  0.9776
16822TIP3    H171881   4.247   1.889   3.037 -0.7791 -1.0827  0.3041
16822TIP3    H271882   4.329   1.783   2.965  0.6271 -0.6984  1.2940
16823TIP3   OH271883   6.575   0.770  12.201 -0.3864 -0.0559 -0.6675
16823TIP3    H171884   6.668   0.752  12.188 -0.1818 -0.2339  0.7983
16823TIP3    H271885   6.563   0.764  12.296 -1.4339  2.2948 -0.5972
16824TIP3   OH271886   3.215   2.731   2.001 -0.2107  0.1477 -0.7548
16824TIP3    H171887   3.305   2.734   2.032  0.1104  1.9729 -1.7338
16824TIP3    H271888   3.214   2.661   1.936  0.2984 -0.3584 -0.2354
16825TIP3   OH271889   0.740   6.523   5.215 -0.5422  0.0296 -0.0794
16825TIP3    H171890   0.651   6.536   5.247 -0.1850  2.0492  0.2504
16825TIP3    H271891   0.796   6.551   5.287  0.3472 -0.1690 -0.6715
16826TIP3   OH271892   0.327   5.948   0.351  0.1969  0.0121  0.0299
16826TIP3    H171893   0.327   5.991   0.437 -0.8106 -0.0664  0.0804
16826TIP3    H271894   0.418   5.921   0.338  0.1879 -0.8676  1.5297
16827TIP3   OH271895   6.632   0.232   1.255  0.1356  0.6756 -0.3379
16827TIP3    H171896   6.544   0.243   1.219  0.2135  0.2151 -0.6755
16827TIP3    H271897   6.651   0.316   1.298 -0.4188  0.8163 -0.3637
16828TIP3   OH271898   4.182   5.737  12.322  0.3996  0.3399 -0.0160
16828TIP3    H171899   4.231   5.757  12.241 -0.2097 -0.6371 -0.6462
16828TIP3    H271900   4.107   5.686  12.292 -0.4348  0.9019  1.0681
16829TIP3   OH271901   3.129   0.413   4.521 -0.2883  0.1215  0.3076
16829TIP3    H171902   3.034   0.402   4.527 -0.4312  0.2132 -1.2277
16829TIP3    H271903   3.163   0.325   4.504 -0.2028  0.2216 -0.0553
16830TIP3   OH271904   2.499   3.943   1.549 -0.5150 -0.0027  0.4261
16830TIP3    H171905   2.516   3.965   1.640 -2.6544  0.6187  0.7174
16830TIP3    H271906   2.572   3.983   1.501  0.9122 -0.7470  1.8569
16831TIP3   OH271907   2.277   5.185  13.292  0.4465  0.1312  0.6812
16831TIP3    H171908   2.346   5.161  13.353  1.0490  0.9320  0.3440
16831TIP3    H271909   2.322   5.235  13.223 -0.2639 -0.4379 -0.2251
16832TIP3   OH271910   6.212   0.155   1.826  0.3238 -0.2163  0.0647
16832TIP3    H171911   6.121   0.142   1.799  0.0675 -2.5761  1.7663
16832TIP3    H271912   6.218   0.249   1.845 -1.4767  0.1532 -0.9609
16833TIP3   OH271913   0.117   1.515   1.659  0.5756  0.0314 -0.0025
16833TIP3    H171914   0.155   1.478   1.739 -0.9008 -0.5046  0.4879
16833TIP3    H271915   0.087   1.439   1.609  1.6065  0.3494 -1.1802
16834TIP3   OH271916   3.955   5.801  14.147 -0.6390  0.0864 -0.1915
16834TIP3    H171917   3.936   5.782  14.055 -0.8594 -2.4489  0.3062
16834TIP3    H271918   4.051   5.807  14.151 -0.4948 -1.5827 -0.3451
16835TIP3   OH271919   3.475   3.320   0.745 -0.5340  0.5124  0.1626
16835TIP3    H171920   3.515   3.405   0.724 -0.4991  0.2089 -1.0608
16835TIP3    H271921   3.398   3.342   0.798 -1.5862  1.4624 -1.6849
16836TIP3   OH271922   4.530   4.266   0.343  0.6036  0.3096  0.1916
16836TIP3    H171923   4.553   4.222   0.261 -0.0703 -0.3353  0.3343
16836TIP3    H271924   4.452   4.317   0.321  0.5900  0.3615  0.3602
16837TIP3   OH271925   3.702   2.683  13.764 -0.3290 -0.6491  0.1995
16837TIP3    H171926   3.737   2.763  13.723 -1.6177  0.7398  1.6740
16837TIP3    H271927   3.779   2.637  13.796  0.4310  0.1508 -0.4269
16838TIP3   OH271928   3.651   0.681   4.682  0.5570 -0.1862 -0.1263
16838TIP3    H171929   3.562   0.666   4.715 -1.1697  4.3165 -1.8077
16838TIP3    H271930   3.652   0.639   4.596 -0.4923  0.6795 -0.5968
16839TIP3   OH271931   0.604   5.675   5.833  0.0795 -0.2606 -0.4273
16839TIP3    H171932   0.619   5.709   5.745 -0.1797  0.6140 -0.1383
16839TIP3    H271933   0.609   5.580   5.823  1.3470 -0.1443 -1.1494
16840TIP3   OH271934   6.036   2.944   0.003 -0.3091 -0.2527  0.0515
16840TIP3    H171935   5.967   2.977   0.059  0.6191  1.1547  0.3991
16840TIP3    H271936   6.096   3.018  -0.010  0.1447 -0.8639 -1.8004
16841TIP3   OH271937   1.315   0.407  13.354  0.2406 -0.0222 -0.0303
16841TIP3    H171938   1.245   0.414  13.419 -0.8238  0.3087 -1.1655
16841TIP3    H271939   1.365   0.488  13.363 -0.4479  0.4337 -0.2083
16842TIP3   OH271940   3.833   0.745   0.088  0.2396  0.5335 -0.3180
16842TIP3    H171941   3.782   0.667   0.067  0.4839 -0.3586  2.0368
16842TIP3    H271942   3.924   0.718   0.074  0.2375  1.0570 -1.3872
16843TIP3   OH271943   4.640   5.002  17.221  0.0788 -0.1323 -0.1400
16843TIP3    H171944   4.586   5.013  17.143  0.0740  1.9526  0.0970
16843TIP3    H271945   4.658   5.091  17.250  0.6524 -0.8546  1.8659
16844TIP3   OH271946   3.306   1.049   0.480 -0.2215 -0.3519  0.0263
16844TIP3    H171947   3.215   1.034   0.507  0.2619 -1.4929  1.1293
16844TIP3    H271948   3.353   1.066   0.561  0.2292  2.3378 -0.7099
16845TIP3   OH271949   0.104   5.350  13.923  0.3029  0.2073 -0.5463
16845TIP3    H171950   0.129   5.443  13.926  0.0205  0.3427 -1.6441
16845TIP3    H271951   0.015   5.351  13.888 -0.1556 -0.4279  0.5662
16846TIP3   OH271952   1.582   1.738  15.313 -0.0007  0.9316 -0.1596
16846TIP3    H171953   1.579   1.714  15.220 -0.2589 -0.8750  0.2751
16846TIP3    H271954   1.490   1.756  15.335 -0.2188 -0.5096  0.1762
16847TIP3   OH271955   3.259   1.111   0.217 -0.0573 -0.2204 -0.5199
16847TIP3    H171956   3.178   1.112   0.165 -0.3001  3.4507 -0.2983
16847TIP3    H271957   3.230   1.090   0.306 -0.6610  0.3276 -0.5814
16848TIP3   OH271958   2.018   0.016  16.606  0.8207 -0.1819  0.1040
16848TIP3    H171959   1.971   0.092  16.572  1.0075 -0.8620 -1.7729
16848TIP3    H271960   1.998   0.015  16.699 -0.2530  1.4027 -0.0825
16849TIP3   OH271961   3.260   5.989  16.768 -0.7175 -0.5161  0.5531
16849TIP3    H171962   3.299   5.956  16.849 -0.5149 -1.6042  0.0333
16849TIP3    H271963   3.336   6.018  16.716 -0.7183 -1.1686  0.1777
16850TIP3   OH271964   5.372   5.418  13.083  0.1156  0.0423  0.9260
16850TIP3    H171965   5.294   5.376  13.046  0.1768  0.0384  0.8025
16850TIP3    H271966   5.430   5.345  13.107  0.1075  0.0474  0.9606
16851TIP3   OH271967   2.251   0.377  12.084 -0.1771 -0.0011  0.5992
16851TIP3    H171968   2.165   0.419  12.086  0.1316  1.0250  5.4385
16851TIP3    H271969   2.235   0.289  12.118  0.4431 -0.6362 -0.6832
16852TIP3   OH271970   4.467   3.635   3.277 -0.0294  0.3978 -0.3134
16852TIP3    H171971   4.428   3.661   3.194 -0.6165  1.5308  0.3034
16852TIP3    H271972   4.540   3.695   3.290 -1.7051  2.2063  1.3631
16853TIP3   OH271973   5.974   0.897   4.118  0.2000  0.0717 -0.5403
16853TIP3    H171974   5.937   0.982   4.093  0.4885  0.1475 -0.7261
16853TIP3    H271975   6.020   0.867   4.039  0.4865 -0.0396 -0.3349
16854TIP3   OH271976   5.178   3.026  14.670  0.4279  0.4127  0.1009
16854TIP3    H171977   5.228   3.057  14.745 -0.9311 -2.5754  2.4773
16854TIP3    H271978   5.100   2.986  14.709  0.0750 -2.0819 -2.8050
16855TIP3   OH271979   6.332   4.297   0.435  0.0583 -0.1509  0.0042
16855TIP3    H171980   6.400   4.244   0.477  1.3911  1.4432 -0.0356
16855TIP3    H271981   6.358   4.387   0.454 -0.7851  0.5452 -1.9852
16856TIP3   OH271982   0.457   2.279   3.623 -0.7925 -0.1413  0.0932
16856TIP3    H171983   0.412   2.280   3.539 -0.1370  2.7168 -0.3126
16856TIP3    H271984   0.393   2.313   3.685 -0.0048  1.8083 -0.0866
16857TIP3   OH271985   3.589   5.655   0.194 -0.0102 -0.9163  0.1283
16857TIP3    H171986   3.658   5.590   0.181  0.7736  0.3451 -2.6690
16857TIP3    H271987   3.550   5.667   0.108  0.0450  2.5045  0.4567
16858TIP3   OH271988   0.843   4.346  16.850  0.7077 -0.3042 -1.0388
16858TIP3    H171989   0.903   4.365  16.922  0.9583  0.0134 -1.3255
16858TIP3    H271990   0.778   4.287  16.887  1.8641 -1.6233 -1.0167
16859TIP3   OH271991   1.882   3.700  11.456  0.0694 -0.2604  0.2202
16859TIP3    H171992   1.814   3.715  11.389 -1.4397 -0.8721  1.5422
16859TIP3    H271993   1.904   3.607  11.447 -0.2829 -0.3937  0.6673
16860TIP3   OH271994   4.615   5.583   1.035  0.7925  0.5726  0.4647
16860TIP3    H171995   4.705   5.605   1.012  1.0763  0.3952  1.3670
16860TIP3    H271996   4.622   5.531   1.115 -0.0797  0.1315  0.2766
16861TIP3   OH271997   1.418   1.573  16.189  0.1862  0.0461  0.0822
16861TIP3    H171998   1.364   1.503  16.154  0.8872 -2.3102  3.2894
16861TIP3    H271999   1.356   1.645  16.203 -1.3714 -1.2596  0.2569
16862TIP3   OH272000   2.209   5.148   4.213  0.3167 -0.3278  0.1700
16862TIP3    H172001   2.291   5.099   4.220 -0.3548 -1.3928  0.7594
16862TIP3    H272002   2.148   5.103   4.272 -0.2910  1.2989  0.8587
16863TIP3   OH272003   6.253   4.952  12.825  0.8957  0.7089 -0.0834
16863TIP3    H172004   6.348   4.957  12.832  0.9903  1.0268 -1.2441
16863TIP3    H272005   6.226   4.887  12.890  1.8178  1.1873  0.7971
16864TIP3   OH272006   1.065   5.397   0.886  0.4625  0.8501 -0.1081
16864TIP3    H172007   1.043   5.477   0.837  0.3792  0.1195 -1.2979
16864TIP3    H272008   0.980   5.362   0.912  0.3946  0.2051 -1.1531
16865TIP3   OH272009   3.225   2.968   3.837 -0.3504  0.2533 -0.1797
16865TIP3    H172010   3.150   3.016   3.803 -0.3760  1.5554  1.6249
16865TIP3    H272011   3.220   2.977   3.932  0.6915 -1.7968  0.1423
16866TIP3   OH272012   1.162   5.655   2.344  0.7658 -0.2021 -0.0461
16866TIP3    H172013   1.225   5.640   2.413  0.8593 -0.4457 -0.1818
16866TIP3    H272014   1.118   5.570   2.333  1.5329 -0.4970 -1.0599
16867TIP3   OH272015   2.943   5.115  12.702 -0.9336 -0.5069  0.2293
16867TIP3    H172016   2.899   5.122  12.617  0.2836 -0.2690 -0.3977
16867TIP3    H272017   2.897   5.045  12.747 -1.5235 -0.7166 -0.6755
16868TIP3   OH272018   3.579   2.055  15.317  0.2841  0.5582  0.4987
16868TIP3    H172019   3.596   2.020  15.230  1.4031 -0.3186  1.0484
16868TIP3    H272020   3.580   2.150  15.305  0.0558  0.4496 -0.4971
16869TIP3   OH272021   3.042   4.022   5.777 -0.0705  0.3151 -0.4328
16869TIP3    H172022   3.071   3.958   5.712  1.1376  0.4967 -0.0974
16869TIP3    H272023   2.958   4.053   5.745 -0.1086 -0.5682 -1.2148
16870TIP3   OH272024   5.957   4.075   0.723 -0.1976  0.2382 -0.0973
16870TIP3    H172025   5.938   3.981   0.728  0.0890  0.1249 -1.0437
16870TIP3    H272026   6.008   4.085   0.643 -0.4263  1.2368 -0.1277
16871TIP3   OH272027   1.302   4.948   0.145 -0.5897  0.5148  0.3316
16871TIP3    H172028   1.331   4.941   0.236 -0.9577 -1.3069  0.3618
16871TIP3    H272029   1.212   4.978   0.151 -0.3977  1.0619  0.5250
16872TIP3   OH272030   6.125   5.560  12.560 -0.1021  0.2619  0.1038
16872TIP3    H172031   6.180   5.582  12.485 -0.2168 -1.6361 -0.5831
16872TIP3    H272032   6.039   5.595  12.537  0.0705  0.4504 -0.2646
16873TIP3   OH272033   2.141   0.045   4.431  1.2914 -0.1820 -0.1861
16873TIP3    H172034   2.070   0.020   4.371 -0.0892 -0.0601  1.3047
16873TIP3    H272035   2.185   0.117   4.388  1.2812 -1.0393 -1.6939
16874TIP3   OH272036   2.127   4.827   6.523  0.1228 -0.4182 -0.0571
16874TIP3    H172037   2.039   4.863   6.511  0.0741 -0.3683  0.4511
16874TIP3    H272038   2.180   4.902   6.550  0.1977 -0.5621  0.1972
16875TIP3   OH272039   4.184   2.782   1.408 -0.3472  0.2534 -0.1786
16875TIP3    H172040   4.166   2.848   1.341 -0.5594  1.2372  0.8310
16875TIP3    H272041   4.101   2.773   1.456  0.1761  0.5616  0.8082
16876TIP3   OH272042   0.578   4.391  12.225 -0.2087  0.4075  0.3788
16876TIP3    H172043   0.523   4.469  12.218  0.1815  0.6391 -0.1769
16876TIP3    H272044   0.667   4.423  12.209 -0.0546 -0.1655  0.0774
16877TIP3   OH272045   6.421   2.757   1.575 -0.4861  1.0687 -0.4676
16877TIP3    H172046   6.355   2.713   1.629 -0.7989 -0.6878 -2.1392
16877TIP3    H272047   6.499   2.702   1.583 -0.1206  1.5358 -0.7661
16878TIP3   OH272048   0.171   5.086  16.621 -0.0516 -0.2035 -0.3882
16878TIP3    H172049   0.215   5.008  16.589 -0.2946 -1.2421  1.5945
16878TIP3    H272050   0.092   5.052  16.664 -0.0444  1.0855  0.7204
16879TIP3   OH272051   2.421   6.655  14.983  0.3133  0.0209 -0.2638
16879TIP3    H172052   2.475   6.589  15.026  2.8347  0.9918 -1.6787
16879TIP3    H272053   2.402   6.617  14.897  0.9168  0.6815 -0.7009
16880TIP3   OH272054   2.049   4.573  16.581  0.7495 -0.0439 -0.4530
16880TIP3    H172055   2.004   4.526  16.510 -0.0126  0.0335 -0.0380
16880TIP3    H272056   2.020   4.529  16.661  0.4836  0.7613 -0.0977
16881TIP3   OH272057   4.225   4.956  13.129 -0.1269  0.3003 -0.2755
16881TIP3    H172058   4.226   5.041  13.085 -1.3808  0.5012  0.0597
16881TIP3    H272059   4.186   4.973  13.215  0.1934 -0.4978  0.0392
16882TIP3   OH272060   2.753   3.221   3.910  0.2686 -0.3398 -0.6518
16882TIP3    H172061   2.759   3.316   3.902  0.3774 -0.2891 -0.0241
16882TIP3    H272062   2.663   3.200   3.886  0.3378 -0.1154 -1.1149
16883TIP3   OH272063   3.529   3.721  14.842  0.2510 -0.8920  0.1150
16883TIP3    H172064   3.552   3.685  14.757  1.7862 -0.8084  0.4658
16883TIP3    H272065   3.443   3.760  14.829  1.3010  0.9370 -1.9554
16884TIP3   OH272066   5.688   2.195  16.586  0.0797  0.1554  0.0751
16884TIP3    H172067   5.705   2.126  16.649 -0.3244  1.3564  1.5553
16884TIP3    H272068   5.766   2.250  16.588 -0.9188  1.6487  1.5407
16885TIP3   OH272069   1.425   6.566   0.440 -0.2609 -0.7225 -0.0002
16885TIP3    H172070   1.412   6.651   0.398 -3.1556 -1.4178 -0.7447
16885TIP3    H272071   1.508   6.535   0.405 -0.5594  0.5511 -2.0419
16886TIP3   OH272072   6.577   1.346  13.793 -0.0179  0.0330 -0.3193
16886TIP3    H172073   6.640   1.388  13.851  1.5842 -1.1341 -1.1291
16886TIP3    H272074   6.600   1.253  13.796 -1.1996 -0.3209 -1.2658
16887TIP3   OH272075   2.320   1.806   2.003  0.3328 -0.0675  0.2904
16887TIP3    H172076   2.381   1.790   2.075 -0.7471 -2.5354  0.7843
16887TIP3    H272077   2.241   1.839   2.046 -0.0246 -0.7485  0.1766
16888TIP3   OH272078   6.535   2.348  15.929  0.1545  0.4751 -0.6353
16888TIP3    H172079   6.520   2.420  15.868 -1.5139  0.5971 -0.1359
16888TIP3    H272080   6.468   2.359  15.996  0.2841 -1.1756 -0.1863
16889TIP3   OH272081   4.779   5.292  14.485  0.1905  0.0774 -0.0650
16889TIP3    H172082   4.710   5.336  14.434  0.9891  1.0723 -0.3016
16889TIP3    H272083   4.783   5.341  14.567 -1.4938 -1.8710  1.2851
16890TIP3   OH272084   1.255   1.165  13.707  0.1597  0.2607 -0.1438
16890TIP3    H172085   1.267   1.222  13.632 -0.7330  0.5665 -0.0755
16890TIP3    H272086   1.283   1.079  13.677  1.9709  0.8016 -0.1009
16891TIP3   OH272087   2.748   2.322   2.105  0.1327 -0.0922  0.4866
16891TIP3    H172088   2.775   2.231   2.088 -0.5917 -0.0538 -1.0820
16891TIP3    H272089   2.652   2.319   2.101 -0.0017  0.4090  2.4345
16892TIP3   OH272090   5.175   0.605   0.447 -0.5208  0.2084  0.6034
16892TIP3    H172091   5.155   0.511   0.449  0.6402 -0.0422  0.6867
16892TIP3    H272092   5.103   0.643   0.396 -2.1914 -0.4130  2.3372
16893TIP3   OH272093   2.527   5.030   4.600  0.4169 -0.2143 -0.0613
16893TIP3    H172094   2.559   5.091   4.534  4.9491 -1.0287  1.0325
16893TIP3    H272095   2.549   4.943   4.566 -1.7182 -1.0132  0.4317
16894TIP3   OH272096   6.562   0.378  10.564  0.1592 -0.1494 -0.1238
16894TIP3    H172097   6.518   0.317  10.622 -0.9874 -0.5785 -1.3774
16894TIP3    H272098   6.502   0.452  10.557  0.8359  0.4337  0.1810
16895TIP3   OH272099   5.843   4.725   0.597 -0.0145  0.1358  0.5124
16895TIP3    H172100   5.797   4.803   0.567 -0.2235 -0.3137 -0.3647
16895TIP3    H272101   5.773   4.663   0.620  0.1320 -0.4113 -0.4589
16896TIP3   OH272102   4.169   5.378  15.039  0.0355  1.0027 -0.7226
16896TIP3    H172103   4.195   5.419  15.121 -1.1774 -1.4821  1.0332
16896TIP3    H272104   4.248   5.336  15.007  0.0092 -0.0766  0.5375
16897TIP3   OH272105   2.123   2.619   3.835 -0.7128  0.2748 -0.0817
16897TIP3    H172106   2.136   2.604   3.928  1.7884 -2.2345 -0.6658
16897TIP3    H272107   2.200   2.667   3.807  0.7910 -2.6371 -1.4181
16898TIP3   OH272108   4.021   2.723   5.833  0.6086 -0.4621 -0.1498
16898TIP3    H172109   3.949   2.666   5.805  0.3062 -0.9914  1.6126
16898TIP3    H272110   4.005   2.738   5.926  1.4213  1.4508 -0.2868
16899TIP3   OH272111   3.964   6.660  15.914 -0.2768  0.0120  0.0461
16899TIP3    H172112   3.890   6.601  15.926 -0.2428  0.1721  1.1859
16899TIP3    H272113   4.041   6.605  15.926 -0.2002 -0.0849 -0.8044
16900TIP3   OH272114   6.050   0.823   6.490  0.0496 -0.2546 -0.3710
16900TIP3    H172115   6.027   0.753   6.429  1.2250  0.7704 -2.0903
16900TIP3    H272116   6.106   0.882   6.439  0.1400  1.2789  1.3800
16901TIP3   OH272117   0.366   5.561  13.657 -0.6040  0.4419  0.1006
16901TIP3    H172118   0.350   5.511  13.737  1.9681 -0.3118  0.2139
16901TIP3    H272119   0.445   5.612  13.675  0.4773 -0.2815 -2.1339
16902TIP3   OH272120   6.628   2.622   6.528  0.3058  0.4309 -0.0052
16902TIP3    H172121   6.666   2.542   6.566  0.1648  1.2408  1.9853
16902TIP3    H272122   6.690   2.649   6.461  0.3953 -1.2966 -0.6600
16903TIP3   OH272123   5.188   6.162  12.227  0.2870 -0.1163  0.2338
16903TIP3    H172124   5.112   6.203  12.185  0.9332  0.7437 -0.1320
16903TIP3    H272125   5.181   6.069  12.204 -0.4530  0.0194 -0.1073
16904TIP3   OH272126   6.519   2.532  14.286  0.4452  0.0742 -0.4654
16904TIP3    H172127   6.610   2.503  14.292  0.9033  1.4063 -0.5539
16904TIP3    H272128   6.506   2.585  14.365 -0.6888 -1.1724  0.2377
16905TIP3   OH272129   1.438   0.245  13.042 -0.1483  0.1804 -0.3475
16905TIP3    H172130   1.530   0.268  13.035 -0.0765 -0.6173 -2.7441
16905TIP3    H272131   1.424   0.178  12.975 -2.3943  0.0542  0.1672
16906TIP3   OH272132   6.333   5.501   0.028  0.2107 -0.1058 -0.2826
16906TIP3    H172133   6.367   5.475   0.113  1.6539  0.0705 -0.7753
16906TIP3    H272134   6.392   5.569  -0.002 -1.6207  1.5172 -0.4416
16907TIP3   OH272135   0.451   2.037   3.282  0.1845 -0.3126  0.5329
16907TIP3    H172136   0.538   2.063   3.312  0.1503 -0.6203  0.9188
16907TIP3    H272137   0.393   2.058   3.355 -0.1904  0.5645  0.0051
16908TIP3   OH272138   0.472   5.383  15.482  0.4104 -0.3949 -0.3340
16908TIP3    H172139   0.543   5.417  15.536 -1.5099 -0.0299  2.1215
16908TIP3    H272140   0.417   5.458  15.464  0.2205 -0.8080 -1.6012
16909TIP3   OH272141   1.188   5.401  15.188 -0.0940  0.0101 -0.2310
16909TIP3    H172142   1.200   5.329  15.251  1.2275  0.6612  0.3139
16909TIP3    H272143   1.133   5.464  15.234 -0.1945 -0.0887 -0.2157
16910TIP3   OH272144   0.943   1.638  12.817 -0.3079  0.2375  0.2397
16910TIP3    H172145   0.953   1.733  12.828 -1.6484  0.4713 -0.4005
16910TIP3    H272146   0.849   1.624  12.812 -0.0831 -0.8408 -2.1806
16911TIP3   OH272147   0.230   1.978  11.836  0.5694  0.5657 -0.3559
16911TIP3    H172148   0.204   1.924  11.761  2.0122  0.7800 -1.0469
16911TIP3    H272149   0.149   1.993  11.884 -0.2639 -0.2026 -1.4743
16912TIP3   OH272150   2.325   0.468  15.562 -0.0819  0.0567  0.0944
16912TIP3    H172151   2.414   0.467  15.596 -1.0871 -1.7771  3.0392
16912TIP3    H272152   2.288   0.551  15.595 -0.2985 -0.5693  1.5117
16913TIP3   OH272153   1.172   0.059   0.319  0.6069 -0.4331  0.4706
16913TIP3    H172154   1.245   0.073   0.259  1.0150 -1.5325  0.6883
16913TIP3    H272155   1.140  -0.028   0.298 -0.1197 -0.2857  0.9374
16914TIP3   OH272156   4.042   5.782   3.204 -0.3143  0.1369  0.1864
16914TIP3    H172157   3.991   5.862   3.191  2.5218  2.1415  0.4499
16914TIP3    H272158   4.020   5.754   3.293 -1.4574  0.5172  0.0417
16915TIP3   OH272159   0.559   6.516   6.479 -0.1511 -0.2651  0.3708
16915TIP3    H172160   0.603   6.588   6.525 -0.3443 -0.2139  0.4775
16915TIP3    H272161   0.508   6.472   6.547  0.6927 -1.0767  0.5009
16916TIP3   OH272162   3.240   1.641  16.411  0.3569  0.2013  0.5571
16916TIP3    H172163   3.327   1.602  16.404 -0.0137 -0.4950 -0.4529
16916TIP3    H272164   3.186   1.572  16.450  0.1075  0.3786  0.5268
16917TIP3   OH272165   4.377   4.026   2.131 -0.2410 -0.2824  0.3694
16917TIP3    H172166   4.428   3.957   2.175 -0.1909 -0.4245  0.0919
16917TIP3    H272167   4.414   4.108   2.164  0.1942 -0.3843  0.1446
16918TIP3   OH272168   5.726   0.486   3.497  0.1113 -0.1894  0.0802
16918TIP3    H172169   5.780   0.434   3.557  3.0867  0.1019 -2.0743
16918TIP3    H272170   5.653   0.429   3.475  0.3533 -1.2871  1.9578
16919TIP3   OH272171   4.742   0.697  16.023 -0.4969 -0.3822  0.0526
16919TIP3    H172172   4.738   0.777  16.075 -1.9615  0.9204 -1.9131
16919TIP3    H272173   4.717   0.725  15.935 -0.9114 -3.0030 -0.7322
16920TIP3   OH272174   3.298   6.429   0.457  0.6576  0.3010  0.3341
16920TIP3    H172175   3.350   6.353   0.485  1.2633  0.0816 -1.2656
16920TIP3    H272176   3.354   6.475   0.395 -1.4144 -0.6114 -2.4344
16921TIP3   OH272177   0.666   0.257   0.430 -0.0912 -0.8139 -0.3756
16921TIP3    H172178   0.687   0.163   0.428  0.8591 -0.7220  2.0992
16921TIP3    H272179   0.721   0.295   0.362  1.0795 -1.8081 -0.0293
16922TIP3   OH272180   3.619   0.058  15.474  0.3717  0.3072 -0.0476
16922TIP3    H172181   3.578   0.143  15.457  0.9554  0.7527  0.7128
16922TIP3    H272182   3.696   0.057  15.417  0.6428  0.5110  0.3085
16923TIP3   OH272183   3.951   1.847  11.514  0.2092 -0.3579  0.6573
16923TIP3    H172184   3.999   1.875  11.437  1.0480 -2.2589  0.4505
16923TIP3    H272185   3.860   1.873  11.496  0.5631  0.1499 -0.4751
16924TIP3   OH272186   5.009   3.081   1.092 -0.0083  0.0990  0.1077
16924TIP3    H172187   4.967   3.122   1.016  1.2772  0.8903 -0.2068
16924TIP3    H272188   4.951   3.100   1.165 -0.6272  0.4251 -0.4598
16925TIP3   OH272189   4.015   0.082  14.304 -0.4629  0.0629  0.0314
16925TIP3    H172190   3.996   0.168  14.341  0.3691  0.4593 -0.4425
16925TIP3    H272191   4.022   0.098  14.210  0.6558 -0.3398  0.0332
16926TIP3   OH272192   4.353   6.379  11.734 -0.5394 -0.3005  0.6059
16926TIP3    H172193   4.273   6.333  11.711 -0.9090  0.4539  0.3288
16926TIP3    H272194   4.370   6.355  11.825  0.2206 -2.2921 -0.0249
16927TIP3   OH272195   1.123   3.475   1.943 -0.1436  0.3797  0.1163
16927TIP3    H172196   1.112   3.456   1.850 -0.2429 -0.2228  0.2456
16927TIP3    H272197   1.060   3.543   1.962  0.0557  0.6881 -0.3154
16928TIP3   OH272198   2.354   2.407   2.332 -0.7378  0.4163  0.5403
16928TIP3    H172199   2.439   2.419   2.375 -0.1136 -0.0640 -0.5025
16928TIP3    H272200   2.294   2.384   2.403  0.0548  0.5009  1.2610
16929TIP3   OH272201   6.300   5.266   5.085 -0.0966  0.0297 -0.6339
16929TIP3    H172202   6.233   5.238   5.148 -0.3185  1.5469 -0.1597
16929TIP3    H272203   6.342   5.341   5.126  0.9257 -0.0024 -1.5665
16930TIP3   OH272204   0.567   2.121   5.612  0.4126  0.4771  0.6602
16930TIP3    H172205   0.529   2.146   5.528  0.4162 -0.4444  0.3784
16930TIP3    H272206   0.645   2.176   5.619 -0.0876  1.2159  0.4915
16931TIP3   OH272207   5.987   4.749   2.431  0.1722 -0.7001  0.5895
16931TIP3    H172208   6.075   4.750   2.394  0.4767  1.7134  1.2309
16931TIP3    H272209   6.001   4.754   2.525 -0.6167  0.3923  0.6671
16932TIP3   OH272210   0.415   4.421   1.509  0.0640  0.0144  0.3277
16932TIP3    H172211   0.473   4.468   1.449  0.9155 -2.2179 -0.6644
16932TIP3    H272212   0.371   4.491   1.559  1.9789  1.8258 -0.3891
16933TIP3   OH272213   1.986   5.931  12.815 -0.3561  0.7061  0.6667
16933TIP3    H172214   1.899   5.946  12.776  0.0513  0.1623 -0.5108
16933TIP3    H272215   2.047   5.956  12.745  0.4014 -0.3674  0.9368
16934TIP3   OH272216   5.240   1.736   0.771 -0.5691  0.0206  0.5411
16934TIP3    H172217   5.296   1.716   0.846 -2.6966 -1.1632  1.9207
16934TIP3    H272218   5.199   1.652   0.749 -0.5056  0.4900 -1.5424
16935TIP3   OH272219   1.219   3.911  11.393 -0.0694  0.1557  0.2863
16935TIP3    H172220   1.313   3.894  11.384  0.5567  2.6129  1.3005
16935TIP3    H272221   1.203   3.990  11.343 -1.7421 -0.4745 -0.2660
16936TIP3   OH272222   3.318   3.225  14.365  0.0903  0.3560  0.5985
16936TIP3    H172223   3.331   3.131  14.363  1.3305  0.4852  1.3342
16936TIP3    H272224   3.318   3.252  14.273  0.8726 -0.2360  0.4128
16937TIP3   OH272225   2.101   2.631   0.887 -0.2897 -0.1840 -0.2251
16937TIP3    H172226   2.186   2.592   0.866  0.2866  0.4988  0.7023
16937TIP3    H272227   2.097   2.628   0.983 -1.4905 -0.5609 -0.2801
16938TIP3   OH272228   1.763   5.726   3.015 -0.3354 -0.2553 -0.0839
16938TIP3    H172229   1.680   5.763   2.984  1.1045  2.0672 -1.4470
16938TIP3    H272230   1.810   5.799   3.054  1.7204 -1.1049 -0.7829
16939TIP3   OH272231   5.688   4.162   3.122  0.2366 -0.2806 -0.3722
16939TIP3    H172232   5.771   4.181   3.166 -0.2728  1.3094 -0.0265
16939TIP3    H272233   5.705   4.178   3.030  0.5631 -0.9115 -0.4263
16940TIP3   OH272234   2.205   0.224  13.899 -0.0816  0.5111 -0.4006
16940TIP3    H172235   2.207   0.203  13.993 -1.7715  1.9076 -0.0009
16940TIP3    H272236   2.282   0.279  13.885  0.0830  0.4405  0.2054
16941TIP3   OH272237   4.793   2.396   5.188  0.3273  0.7748  0.0415
16941TIP3    H172238   4.719   2.456   5.178  0.7929  1.3158 -0.2481
16941TIP3    H272239   4.834   2.394   5.101  1.2096  1.2336  0.4292
16942TIP3   OH272240   4.688   4.248   4.523  0.2296 -0.3080 -0.2195
16942TIP3    H172241   4.657   4.168   4.565 -0.4246  0.4004  0.6724
16942TIP3    H272242   4.783   4.238   4.521  0.3381 -0.1414  1.9515
16943TIP3   OH272243   2.565   1.232   4.772 -0.1929 -0.2156 -0.4954
16943TIP3    H172244   2.569   1.136   4.780  2.2686 -0.1043  0.3778
16943TIP3    H272245   2.635   1.253   4.711  1.0999  1.1781  1.3607
16944TIP3   OH272246   2.072   2.936  13.711 -0.4321  0.5874 -0.3990
16944TIP3    H172247   2.056   2.851  13.751 -0.2087  1.9150  2.8364
16944TIP3    H272248   2.167   2.943  13.707 -0.4546  0.4936 -1.1326
16945TIP3   OH272249   5.170   6.048   5.718 -0.1345 -0.2946 -1.0047
16945TIP3    H172250   5.220   6.005   5.649  0.1718 -0.6877 -0.5402
16945TIP3    H272251   5.137   5.977   5.772 -2.6015 -0.1714 -2.2125
16946TIP3   OH272252   4.132   5.249  14.407  0.6566 -0.2724  0.1959
16946TIP3    H172253   4.048   5.279  14.444  0.1455 -0.0820 -1.0650
16946TIP3    H272254   4.132   5.155  14.422 -0.0120 -0.3443 -0.1928
16947TIP3   OH272255   1.472   2.000   5.259  0.7587  0.3448  0.4777
16947TIP3    H172256   1.545   1.980   5.318  0.6722 -2.1660 -0.1292
16947TIP3    H272257   1.394   1.985   5.312  0.6870  0.1275  0.3125
16948TIP3   OH272258   6.513   4.911  16.076  0.2019 -0.3118 -0.0830
16948TIP3    H172259   6.457   4.892  16.152  0.3160  0.1701  0.1248
16948TIP3    H272260   6.556   4.993  16.099  0.2230 -0.1558 -0.6832
16949TIP3   OH272261   5.917   3.436  13.921 -0.4090 -0.3815 -0.0802
16949TIP3    H172262   5.831   3.448  13.962 -0.5671  0.3725 -0.6187
16949TIP3    H272263   5.907   3.356  13.869 -1.3538  0.6289 -1.5365
16950TIP3   OH272264   3.148   3.831  11.696  0.4333  0.5534  0.4748
16950TIP3    H172265   3.105   3.886  11.632  0.5994  2.2553  1.7614
16950TIP3    H272266   3.080   3.809  11.759  0.3823 -0.6979  0.0090
16951TIP3   OH272267   4.283   0.300  15.382 -0.0756  0.3043 -0.4497
16951TIP3    H172268   4.335   0.325  15.458 -2.0196  0.9644  0.7147
16951TIP3    H272269   4.268   0.206  15.393 -0.9489  0.5339  0.3732
16952TIP3   OH272270   6.365   4.975  11.196 -0.4110  0.8130 -0.5006
16952TIP3    H172271   6.409   4.993  11.279  1.1923  1.3448 -1.4177
16952TIP3    H272272   6.273   5.000  11.212 -0.4664 -0.4261  1.4997
16953TIP3   OH272273   2.345   5.994   0.450 -0.6650 -0.2505 -0.0714
16953TIP3    H172274   2.426   6.041   0.431  0.5192 -1.2967  2.0027
16953TIP3    H272275   2.277   6.041   0.402  0.4169  3.5612  1.8201
16954TIP3   OH272276   4.092   5.073   6.184 -0.0548 -0.2982  0.1347
16954TIP3    H172277   4.075   5.111   6.271  2.3541  1.0995  0.0825
16954TIP3    H272278   4.006   5.072   6.141 -0.8931  1.2845  1.6567
16955TIP3   OH272279   0.234   3.044   2.814 -0.1026 -0.2592  0.3414
16955TIP3    H172280   0.264   3.007   2.897  0.7152 -0.2924  0.0491
16955TIP3    H272281   0.311   3.037   2.757 -0.3470  0.6690 -0.1187
16956TIP3   OH272282   4.534   0.522   0.843  0.1439 -0.6043 -0.0120
16956TIP3    H172283   4.467   0.503   0.777  0.5041 -0.0132 -0.5678
16956TIP3    H272284   4.494   0.586   0.901  0.2349 -0.2107 -0.3756
16957TIP3   OH272285   5.070   5.524   1.724 -0.1289 -0.0566  1.0380
16957TIP3    H172286   4.974   5.520   1.730 -0.2092 -0.3674 -0.2411
16957TIP3    H272287   5.088   5.523   1.631  1.1573 -0.5806  1.2752
16958TIP3   OH272288   5.069   0.929  11.428  0.0267 -0.5521  0.2350
16958TIP3    H172289   5.120   1.008  11.411 -0.3873  0.0933  1.8694
16958TIP3    H272290   5.090   0.871  11.355  1.6721  0.3938 -0.0800
16959TIP3   OH272291   1.441   1.252  15.063 -0.4741 -0.5020 -0.0170
16959TIP3    H172292   1.359   1.279  15.023 -0.4531 -1.4594 -0.7176
16959TIP3    H272293   1.444   1.157  15.053 -0.6571 -0.8583  2.6184
16960TIP3   OH272294   3.239   0.587   1.072  0.3244 -0.5690 -0.6171
16960TIP3    H172295   3.278   0.506   1.105  1.8642  0.3865 -0.0259
16960TIP3    H272296   3.189   0.622   1.145 -0.0505 -0.7876 -0.7637
16961TIP3   OH272297   3.223   2.158   0.164 -0.0529 -0.7050  0.7273
16961TIP3    H172298   3.309   2.124   0.190 -0.4863 -1.7581  0.8278
16961TIP3    H272299   3.241   2.209   0.085  1.7261  4.5824  4.0266
16962TIP3   OH272300   4.534   0.413   0.202 -0.8706  0.4743 -0.0969
16962TIP3    H172301   4.448   0.443   0.174  0.0912  0.8906 -2.9415
16962TIP3    H272302   4.544   0.448   0.291 -3.2109  1.2449 -0.0780
16963TIP3   OH272303   0.112   0.559   4.048  0.2928 -0.5938  0.1638
16963TIP3    H172304   0.076   0.610   3.976 -1.0649 -0.2931  1.0169
16963TIP3    H272305   0.074   0.599   4.127  1.3994 -1.1744  1.0270
16964TIP3   OH272306   6.645   6.402   2.453 -0.2610  0.2698  0.3952
16964TIP3    H172307   6.591   6.327   2.427  0.1813 -0.1805  0.7645
16964TIP3    H272308   6.582   6.473   2.464 -1.0951 -0.7243  2.7146
16965TIP3   OH272309   2.983   4.742  14.521  0.3438 -0.1729  0.3419
16965TIP3    H172310   2.924   4.731  14.447 -0.1918 -0.3097  0.7825
16965TIP3    H272311   3.067   4.766  14.482  0.0753 -0.2828 -0.3062
16966TIP3   OH272312   4.348   6.484  12.995 -0.2217  0.3236  0.3093
16966TIP3    H172313   4.362   6.473  12.901 -0.2055  1.0073  0.2245
16966TIP3    H272314   4.289   6.413  13.020  2.2673 -1.8129  0.4136
16967TIP3   OH272315   0.232   6.368   1.479 -0.8550 -0.9510  0.1392
16967TIP3    H172316   0.326   6.356   1.471 -0.8209 -0.9819  0.5806
16967TIP3    H272317   0.202   6.384   1.389 -0.2086  0.6704  0.1846
16968TIP3   OH272318   0.486   0.811   0.708  0.0683 -0.5152  0.0123
16968TIP3    H172319   0.575   0.797   0.678 -0.1027 -0.3333 -0.6120
16968TIP3    H272320   0.434   0.744   0.662  0.0739 -1.5226  1.4326
16969TIP3   OH272321   6.173   3.365   6.930 -0.7029 -0.0920 -0.0369
16969TIP3    H172322   6.123   3.338   6.853  0.6656 -0.4694 -0.8395
16969TIP3    H272323   6.213   3.285   6.962  2.5628  0.6374 -1.8300
16970TIP3   OH272324   3.073   0.208   6.096 -0.2361  0.2458 -0.4048
16970TIP3    H172325   3.080   0.302   6.077 -0.7324  0.2769 -0.4301
16970TIP3    H272326   3.008   0.175   6.034 -0.1590 -0.0911 -0.3083
16971TIP3   OH272327   6.214   2.807  11.740  0.3726  0.1089  0.0211
16971TIP3    H172328   6.221   2.797  11.835 -0.0966 -2.4644 -0.1533
16971TIP3    H272329   6.121   2.806  11.722  0.4661  0.3737 -0.4960
16972TIP3   OH272330   1.607   5.306  17.453  0.0089 -0.4281 -0.7978
16972TIP3    H172331   1.617   5.401  17.441 -0.3539 -0.1356  0.9368
16972TIP3    H272332   1.514   5.289  17.437 -0.0067 -0.4176 -0.7193
16973TIP3   OH272333   5.071   0.761   1.935 -0.2070  0.0087 -0.0809
16973TIP3    H172334   5.138   0.820   1.901 -0.6484 -0.2396 -1.4485
16973TIP3    H272335   4.990   0.787   1.890 -1.1299  0.5010  1.7472
16974TIP3   OH272336   5.313   2.373   1.455  0.1048  0.3631 -0.2302
16974TIP3    H172337   5.379   2.406   1.517  0.1436 -0.8883  0.4275
16974TIP3    H272338   5.338   2.411   1.371  2.5515 -1.1302 -0.2956
16975TIP3   OH272339   4.852   0.398  16.077  0.0229  0.5380  0.1801
16975TIP3    H172340   4.765   0.385  16.040  0.1047 -0.3543  0.2675
16975TIP3    H272341   4.836   0.429  16.166 -0.2298 -0.3158  0.4446
16976TIP3   OH272342   2.865   0.389  13.105  0.2732 -0.3657 -0.5450
16976TIP3    H172343   2.867   0.294  13.105  2.4066 -0.3741  0.1552
16976TIP3    H272344   2.783   0.412  13.149  0.0494 -1.8611 -0.1487
16977TIP3   OH272345   6.571   4.520  14.947  0.7064  0.5634 -0.1990
16977TIP3    H172346   6.665   4.515  14.965  0.8440  1.3139 -0.6349
16977TIP3    H272347   6.535   4.440  14.983  1.6726 -0.2215 -0.9079
16978TIP3   OH272348   1.616   0.808   5.656  0.4375  0.0400  0.1403
16978TIP3    H172349   1.568   0.743   5.708  0.7125  0.5844  1.0950
16978TIP3    H272350   1.589   0.790   5.566  0.8849 -1.7051  0.3220
16979TIP3   OH272351   2.922   3.809  13.234  0.3903  0.5497  0.2083
16979TIP3    H172352   2.996   3.859  13.199  0.8216 -2.0492 -3.0048
16979TIP3    H272353   2.854   3.816  13.167  0.5214 -3.0933 -0.5183
16980TIP3   OH272354   5.387   3.891  15.562 -0.1369  0.1633 -0.0418
16980TIP3    H172355   5.432   3.841  15.494 -0.6728  0.7110 -0.8180
16980TIP3    H272356   5.311   3.928  15.517 -0.3594  0.7435  0.8027
16981TIP3   OH272357   6.173   6.520  14.908 -0.0092  0.3132 -0.3603
16981TIP3    H172358   6.101   6.464  14.936 -0.3381  0.0106 -1.7830
16981TIP3    H272359   6.204   6.560  14.990  1.3510 -3.1869  1.0353
16982TIP3   OH272360   3.646   3.670  13.475 -0.0339  0.0626 -0.3484
16982TIP3    H172361   3.736   3.655  13.447  0.1857 -0.6458  0.6693
16982TIP3    H272362   3.600   3.589  13.454 -0.1442 -0.0230  0.1928
16983TIP3   OH272363   1.667   2.981  16.954  0.5438 -0.1998 -0.3060
16983TIP3    H172364   1.744   2.965  16.900 -0.4596 -1.7333 -1.3761
16983TIP3    H272365   1.685   2.934  17.035  0.4139 -1.2549 -0.8720
16984TIP3   OH272366   4.060   6.191  11.961 -0.3744  0.0494  0.0378
16984TIP3    H172367   4.056   6.286  11.968  1.0507  0.0786  0.7779
16984TIP3    H272368   4.099   6.175  11.875 -2.1191  0.0590 -0.8086
16985TIP3   OH272369   6.215   3.113   2.562 -0.1336  0.1909 -0.1648
16985TIP3    H172370   6.272   3.047   2.521 -0.3106 -0.4866  0.6461
16985TIP3    H272371   6.188   3.169   2.489 -0.1796 -0.7820 -0.9289
16986TIP3   OH272372   3.174   4.807   1.936  0.1846 -0.4963 -0.5322
16986TIP3    H172373   3.125   4.811   1.853  0.1372 -0.3635 -0.4966
16986TIP3    H272374   3.156   4.890   1.979 -0.3773 -0.8548 -0.0532
16987TIP3   OH272375   5.102   5.296  15.558  0.4269 -0.0869  0.4105
16987TIP3    H172376   5.193   5.325  15.549  0.3503 -0.0877 -0.4708
16987TIP3    H272377   5.056   5.341  15.486 -0.2134 -0.3009  0.6820
16988TIP3   OH272378   4.040   6.396   4.607 -0.5740 -0.5764 -0.4065
16988TIP3    H172379   3.975   6.338   4.567 -0.9340  0.0340 -0.7238
16988TIP3    H272380   3.989   6.448   4.669 -0.4882  0.2481 -1.0108
16989TIP3   OH272381   2.283   4.642   0.693  0.9661  0.3834  0.0131
16989TIP3    H172382   2.321   4.628   0.779 -0.4484  1.6371  0.8871
16989TIP3    H272383   2.233   4.562   0.676  0.2968  0.5954  0.9009
16990TIP3   OH272384   2.854   0.337  16.267 -0.4739  0.4113 -0.0941
16990TIP3    H172385   2.826   0.272  16.203  1.0891 -0.7745  0.3797
16990TIP3    H272386   2.799   0.321  16.343 -0.9916  0.5290 -0.4374
16991TIP3   OH272387   3.419   5.384  17.550  0.2465 -0.2176  0.4505
16991TIP3    H172388   3.464   5.325  17.490 -0.7314 -1.4407  0.8649
16991TIP3    H272389   3.326   5.373  17.529  0.0071  0.7115  0.9701
16992TIP3   OH272390   4.043   1.224   3.613  0.2686  0.4847  0.1979
16992TIP3    H172391   4.053   1.224   3.518 -1.2133  0.4996  0.0187
16992TIP3    H272392   4.079   1.308   3.642  2.5345 -0.3232 -0.0985
16993TIP3   OH272393   5.931   2.155   4.303 -0.4063  0.1789  0.6498
16993TIP3    H172394   5.981   2.093   4.250 -0.0434  1.7152 -0.9131
16993TIP3    H272395   5.987   2.173   4.378  0.5164  0.3147 -0.0493
16994TIP3   OH272396   4.881   5.817   2.542  0.4841 -0.5034  0.0326
16994TIP3    H172397   4.909   5.908   2.537 -1.0207 -0.0078 -0.0726
16994TIP3    H272398   4.870   5.800   2.636  1.7678 -0.9311  0.1259
16995TIP3   OH272399   6.232   4.796   1.081  0.4132 -0.2930 -0.3869
16995TIP3    H172400   6.293   4.853   1.128 -1.4902  1.7769 -0.2346
16995TIP3    H272401   6.258   4.805   0.989 -0.8442  2.3233 -0.5911
16996TIP3   OH272402   0.148   3.510   4.177  0.4171 -0.8583  0.0304
16996TIP3    H172403   0.187   3.517   4.264  0.4097 -2.2929  0.1742
16996TIP3    H272404   0.121   3.418   4.170 -1.3761 -0.3231 -0.7201
16997TIP3   OH272405   4.387   3.543   6.841  0.3317  0.2646 -0.0503
16997TIP3    H172406   4.415   3.525   6.931  0.9798  0.8488 -0.1207
16997TIP3    H272407   4.429   3.627   6.820 -1.0236  0.8716 -0.3841
16998TIP3   OH272408   6.133   2.470  11.943  0.0469  0.1199 -0.1078
16998TIP3    H172409   6.094   2.390  11.908  1.1048  0.1009 -1.3323
16998TIP3    H272410   6.077   2.540  11.909 -0.5676 -0.0550  0.5216
16999TIP3   OH272411   3.191   5.777   1.753  0.3288 -0.2196 -0.4408
16999TIP3    H172412   3.192   5.784   1.848 -1.8862 -1.3447 -0.2539
16999TIP3    H272413   3.269   5.825   1.724  1.0147  0.2145  1.9073
17000TIP3   OH272414   3.477   3.097   3.850  0.5395 -0.5436  0.0381
17000TIP3    H172415   3.530   3.024   3.817  0.5932  0.4073 -2.0939
17000TIP3    H272416   3.387   3.064   3.849  0.5072 -0.4799 -1.3649
17001TIP3   OH272417   3.812   4.310  13.773 -0.6854  0.1589 -0.4988
17001TIP3    H172418   3.826   4.295  13.680 -0.1755 -0.2746 -0.3537
17001TIP3    H272419   3.889   4.358  13.802  0.6713 -2.3401  0.3265
17002TIP3   OH272420   4.150   6.416  11.250 -0.2559 -0.4295  0.5882
17002TIP3    H172421   4.065   6.376  11.234  0.1396 -1.7847  1.6706
17002TIP3    H272422   4.207   6.379  11.182  0.1586 -1.9809  1.7075
17003TIP3   OH272423   1.737   3.466  14.720 -0.3383 -0.0809 -0.2052
17003TIP3    H172424   1.793   3.415  14.661  0.0018  0.6003 -0.4797
17003TIP3    H272425   1.742   3.556  14.686 -0.8942  0.1448  0.2976
17004TIP3   OH272426   3.898   4.727   0.454 -0.2100  0.7669  0.2583
17004TIP3    H172427   3.902   4.796   0.520 -2.4173 -0.2460  1.5482
17004TIP3    H272428   3.855   4.768   0.379 -0.0689  1.2214  0.4256
17005TIP3   OH272429   2.012   0.159  17.357 -0.7310  0.2335 -0.0104
17005TIP3    H172430   2.084   0.207  17.317 -2.3029  1.7370 -1.1989
17005TIP3    H272431   2.002   0.198  17.444 -0.2232  0.1198  0.0996
17006TIP3   OH272432   2.160   5.145  15.537 -0.1173 -0.4148 -0.1618
17006TIP3    H172433   2.246   5.178  15.511 -0.2706  0.3857  0.3303
17006TIP3    H272434   2.172   5.119  15.629 -0.5549  0.2608  0.0891
17007TIP3   OH272435   4.510   2.285  14.143  0.6536  0.3655 -0.0980
17007TIP3    H172436   4.605   2.277  14.150  0.6074  0.1967  0.4104
17007TIP3    H272437   4.496   2.343  14.069  1.1515  0.3045 -0.2421
17008TIP3   OH272438   3.854   5.304  15.776 -0.7076 -0.3343 -0.2504
17008TIP3    H172439   3.779   5.276  15.827 -0.1776 -0.9561  0.2061
17008TIP3    H272440   3.911   5.227  15.773  0.3609  0.4100  0.2410
17009TIP3   OH272441   1.136   5.741   1.852 -0.1111  0.2732 -0.5643
17009TIP3    H172442   1.232   5.743   1.845  0.1254  2.9517  1.8677
17009TIP3    H272443   1.118   5.668   1.910  0.5480  0.3609 -0.2353
17010TIP3   OH272444   6.541   3.372  11.922  0.1831 -0.0821 -0.1902
17010TIP3    H172445   6.499   3.444  11.875 -1.6391 -0.4596  0.7690
17010TIP3    H272446   6.561   3.308  11.854 -0.7822  0.1210 -0.6795
17011TIP3   OH272447   4.486   4.214  12.146 -0.0356  0.6568  0.1657
17011TIP3    H172448   4.420   4.184  12.084  1.0938  0.5062 -1.0009
17011TIP3    H272449   4.463   4.305  12.164 -0.8642  0.4464  0.2117
17012TIP3   OH272450   0.257   0.416   5.033  0.0021 -0.3861 -0.5132
17012TIP3    H172451   0.323   0.389   5.097  0.9288  0.3530 -1.1315
17012TIP3    H272452   0.228   0.502   5.063  1.9009  0.8977 -2.1032
17013TIP3   OH272453   5.963   2.866   0.659 -0.8575  0.1324 -0.1388
17013TIP3    H172454   5.927   2.954   0.677 -1.3375 -0.1142  0.1343
17013TIP3    H272455   5.903   2.807   0.704 -0.1078 -0.2968  0.3121
17014TIP3   OH272456   0.770   2.984  11.667  0.2237  0.0124  0.4505
17014TIP3    H172457   0.834   2.949  11.728  1.7013  0.5913 -0.7230
17014TIP3    H272458   0.774   2.927  11.590  0.3248  0.8375 -0.1789
17015TIP3   OH272459   2.773   1.393  17.346  0.5839  0.1847  0.1145
17015TIP3    H172460   2.780   1.378  17.440  1.5078 -0.3079 -0.0213
17015TIP3    H272461   2.775   1.306  17.307 -0.3182  0.3532 -0.3420
17016TIP3   OH272462   5.328   2.308   2.736 -0.2448  0.2372 -0.3367
17016TIP3    H172463   5.317   2.216   2.714  0.6814 -0.3431  1.4276
17016TIP3    H272464   5.394   2.308   2.806 -0.5371  2.1980 -0.0130
17017TIP3   OH272465   4.197   0.134   1.621 -0.2306  0.1696  0.0076
17017TIP3    H172466   4.196   0.226   1.593 -0.3602  0.5926  1.3522
17017TIP3    H272467   4.244   0.089   1.551 -1.6311  0.9635 -1.5408
17018TIP3   OH272468   2.576   2.485  17.312  0.0653  0.7764  0.6439
17018TIP3    H172469   2.563   2.401  17.355 -0.3200 -0.0540 -1.0539
17018TIP3    H272470   2.526   2.547  17.367 -2.2029 -0.5970  0.2527
17019TIP3   OH272471   2.684   3.546  16.629 -0.5424 -0.6688 -0.0697
17019TIP3    H172472   2.736   3.466  16.637  0.2803 -0.1818 -0.3700
17019TIP3    H272473   2.747   3.612  16.599 -0.4057  0.9161  3.2103
17020TIP3   OH272474   4.354   6.005   3.909 -0.1283 -0.0302  0.4328
17020TIP3    H172475   4.309   5.965   3.834 -0.9622 -0.7890  1.3115
17020TIP3    H272476   4.416   5.938   3.938 -1.1351 -0.5230  1.5596
17021TIP3   OH272477   0.790   6.509  16.987  0.3698 -0.0144 -0.2574
17021TIP3    H172478   0.702   6.483  16.961 -0.2192  0.4208  1.1716
17021TIP3    H272479   0.844   6.491  16.911 -1.0888  0.4343 -1.4474
17022TIP3   OH272480   5.459   1.110   5.099 -0.7886  0.4669 -0.4000
17022TIP3    H172481   5.423   1.040   5.154  1.4234 -0.2067  0.2883
17022TIP3    H272482   5.489   1.065   5.020  0.2114  0.6788 -0.1551
17023TIP3   OH272483   2.359   1.755  14.902  0.4504  0.2572 -0.0739
17023TIP3    H172484   2.357   1.816  14.828 -1.7587  1.7246  1.0777
17023TIP3    H272485   2.332   1.807  14.977 -2.9657 -2.3194  0.7611
17024TIP3   OH272486   0.761   5.767   0.778 -0.2082  0.6529 -0.3428
17024TIP3    H172487   0.754   5.855   0.742 -1.1105  0.3713 -0.8709
17024TIP3    H272488   0.701   5.766   0.853  0.7875  0.8733  0.4943
17025TIP3   OH272489   3.731   5.362   4.547 -0.7718 -0.1529  0.5874
17025TIP3    H172490   3.660   5.329   4.491  0.1101 -1.6135  0.2945
17025TIP3    H272491   3.768   5.436   4.498  0.2559 -1.6645 -1.0013
17026TIP3   OH272492   4.731   4.771   1.843  0.4354 -0.2413 -0.4469
17026TIP3    H172493   4.795   4.831   1.805 -0.4908  0.8119 -0.3942
17026TIP3    H272494   4.784   4.699   1.877  1.4694 -0.1012 -1.6743
17027TIP3   OH272495   4.136   5.753   0.866  0.4838  0.1377 -0.0207
17027TIP3    H172496   4.064   5.736   0.805  0.5234  2.5500 -0.8397
17027TIP3    H272497   4.205   5.693   0.839  0.0480  0.2974 -1.6052
17028TIP3   OH272498   6.494   5.748  13.886 -0.2104 -0.0658  0.3404
17028TIP3    H172499   6.450   5.668  13.858  0.8626 -0.7199  0.4799
17028TIP3    H272500   6.587   5.727  13.883  0.0830  1.1042  0.6185
17029TIP3   OH272501   4.648   6.585  15.213 -0.3794 -0.1287  0.3400
17029TIP3    H172502   4.586   6.512  15.219 -0.0285 -0.3848  0.9942
17029TIP3    H272503   4.696   6.581  15.296  2.6034 -1.7993 -1.3067
17030TIP3   OH272504   5.344   3.264   0.517  0.3469 -0.3355  0.0243
17030TIP3    H172505   5.273   3.210   0.552  0.3259 -0.2829  0.0628
17030TIP3    H272506   5.376   3.215   0.442 -0.2467  0.0078 -0.4631
17031TIP3   OH272507   0.218   6.235   3.879  0.1283  0.2658 -0.3321
17031TIP3    H172508   0.246   6.186   3.801 -0.6221 -0.9715  0.1452
17031TIP3    H272509   0.251   6.324   3.864  2.4782 -0.6005 -0.7336
17032TIP3   OH272510   5.675   6.369   4.572  0.0691 -0.5409  0.1011
17032TIP3    H172511   5.708   6.298   4.517 -3.0281 -1.9113 -0.1955
17032TIP3    H272512   5.587   6.387   4.538 -0.4541  1.2640  2.1852
17033TIP3   OH272513   1.162   5.993  14.906 -0.1876 -0.4871  0.2820
17033TIP3    H172514   1.235   6.031  14.856  0.1721  0.4398  1.4696
17033TIP3    H272515   1.199   5.914  14.947 -0.4534 -1.1893 -0.7883
17034TIP3   OH272516   0.225   6.015  11.400 -0.3091  0.7594  0.3216
17034TIP3    H172517   0.149   5.957  11.408  0.2299 -0.2593 -1.4888
17034TIP3    H272518   0.198   6.084  11.340 -0.3787  1.4406  1.1157
17035TIP3   OH272519   6.561   0.343  11.625 -0.3174 -0.4566 -0.1366
17035TIP3    H172520   6.650   0.306  11.628 -0.2724 -0.2902  2.3082
17035TIP3    H272521   6.573   0.428  11.582  1.2986  0.7979  2.4728
17036TIP3   OH272522   5.151   1.092  11.979 -0.5140  0.2998 -0.8672
17036TIP3    H172523   5.240   1.128  11.970  0.0570 -1.2592 -1.8476
17036TIP3    H272524   5.127   1.066  11.890 -1.9441  0.6259 -0.5924
17037TIP3   OH272525   4.198   6.623   2.528 -0.0597 -0.6892  0.1771
17037TIP3    H172526   4.197   6.617   2.432  0.6918 -3.1610  0.2461
17037TIP3    H272527   4.129   6.563   2.556  1.1855 -1.7087  1.1846
17038TIP3   OH272528   5.650   2.840  14.677  0.3861 -0.1071 -0.1041
17038TIP3    H172529   5.566   2.831  14.633  0.1781  1.3018 -0.0569
17038TIP3    H272530   5.715   2.813  14.612  0.0258  1.1033 -1.0019
17039TIP3   OH272531   2.906   6.002  12.296 -0.4536  0.5601  0.0301
17039TIP3    H172532   2.987   6.047  12.320 -0.8455  0.4560  1.6803
17039TIP3    H272533   2.868   6.057  12.227  0.2013  1.5056  0.3933
17040TIP3   OH272534   4.046   1.597  15.946 -0.5037 -0.3182  0.0527
17040TIP3    H172535   4.093   1.668  15.989 -1.0511 -0.4728  0.9223
17040TIP3    H272536   4.093   1.518  15.973 -1.5882 -0.5304  1.4173
17041TIP3   OH272537   1.170   6.503  15.140 -0.2671 -0.1450 -0.2783
17041TIP3    H172538   1.105   6.565  15.172 -1.2075 -1.3971  0.3435
17041TIP3    H272539   1.227   6.486  15.215  0.8222  0.9715 -0.8302
17042TIP3   OH272540   0.328   3.677  15.652  0.0901  0.1786  0.7340
17042TIP3    H172541   0.328   3.772  15.667 -1.9660 -0.1452  3.5367
17042TIP3    H272542   0.418   3.650  15.670  0.2867  1.3877  1.7098
17043TIP3   OH272543   1.826   1.561   6.066  0.0794 -0.0619 -0.0972
17043TIP3    H172544   1.731   1.575   6.062 -0.3524 -2.5375 -0.0550
17043TIP3    H272545   1.844   1.547   6.159  0.7184  1.5191  0.0467
17044TIP3   OH272546   5.329   0.058  12.659 -0.6406  0.1515 -0.0765
17044TIP3    H172547   5.380  -0.013  12.621  1.6739  2.3865 -1.4308
17044TIP3    H272548   5.254   0.068  12.600 -0.3007 -0.3043 -0.5974
17045TIP3   OH272549   0.657   2.434   3.180 -0.2601 -0.1227  0.3325
17045TIP3    H172550   0.731   2.463   3.234 -0.3198  0.8115 -0.0719
17045TIP3    H272551   0.692   2.360   3.130  0.0797 -0.3809  0.9398
17046TIP3   OH272552   0.477   2.256  13.553  0.0773 -0.2239  0.3150
17046TIP3    H172553   0.439   2.168  13.547  1.1400 -0.6856  0.1620
17046TIP3    H272554   0.402   2.315  13.543 -0.5829 -1.1068 -0.0756
17047TIP3   OH272555   2.448   5.388  14.157  0.0477  0.1376  0.2795
17047TIP3    H172556   2.425   5.306  14.112  0.6085 -0.1590  0.5223
17047TIP3    H272557   2.444   5.454  14.088  1.0372 -0.3330 -0.2626
17048TIP3   OH272558   2.017   0.693  14.141  0.0846  0.0133 -0.3367
17048TIP3    H172559   2.079   0.705  14.213 -0.7050 -1.7304  0.6872
17048TIP3    H272560   1.950   0.760  14.155  1.8434  2.1894 -1.6801
17049TIP3   OH272561   3.810   0.965   3.832  0.0265  0.0161  0.2649
17049TIP3    H172562   3.746   0.916   3.782  0.6207 -0.0730 -0.4279
17049TIP3    H272563   3.894   0.945   3.790  0.5881 -0.3134  1.4772
17050TIP3   OH272564   5.182   4.150   0.942 -0.2521  0.0488  0.0505
17050TIP3    H172565   5.197   4.071   0.892  0.5233  0.5702 -0.5535
17050TIP3    H272566   5.158   4.119   1.030 -1.1171 -0.8532 -0.4867
17051TIP3   OH272567   1.751   1.343  13.144 -0.3358  0.0998  0.1027
17051TIP3    H172568   1.739   1.437  13.136 -1.6187 -0.0785 -0.4642
17051TIP3    H272569   1.703   1.319  13.224 -1.1283 -0.2185 -0.4484
17052TIP3   OH272570   3.741   5.626   5.233 -0.6780  0.3281  0.4651
17052TIP3    H172571   3.810   5.584   5.284  0.8320  0.4754 -1.3249
17052TIP3    H272572   3.708   5.695   5.290  1.0675  0.6205  1.2019
17053TIP3   OH272573   2.562   1.041  12.090 -0.4347 -0.0333 -0.7344
17053TIP3    H172574   2.473   1.049  12.056 -0.0441  1.3520 -1.5261
17053TIP3    H272575   2.618   1.063  12.016  0.5794 -0.8644 -0.2360
17054TIP3   OH272576   2.140   3.230   6.752  0.0937 -0.1027 -0.0190
17054TIP3    H172577   2.044   3.231   6.753  0.0737  0.3640  1.8125
17054TIP3    H272578   2.163   3.155   6.807  0.7712 -0.0735 -0.2640
17055TIP3   OH272579   3.907   6.139   5.183  0.6000  0.5622 -0.0655
17055TIP3    H172580   3.971   6.137   5.255  1.0558  1.8295 -0.4126
17055TIP3    H272581   3.955   6.108   5.107  0.7098  1.1737 -0.2502
17056TIP3   OH272582   5.945   4.424  14.831 -0.1220  0.5941  0.0383
17056TIP3    H172583   5.997   4.381  14.764  0.7936 -0.7598  1.5510
17056TIP3    H272584   5.878   4.472  14.782  2.8976  3.0518 -2.0438
17057TIP3   OH272585   5.695   1.418   1.580  0.3664 -0.3433  0.1380
17057TIP3    H172586   5.698   1.363   1.502 -0.2501 -0.6879  0.3462
17057TIP3    H272587   5.774   1.397   1.628  0.6134 -0.3323 -0.2562
17058TIP3   OH272588   6.504   5.586   2.874  0.4198 -0.4338 -0.1911
17058TIP3    H172589   6.575   5.530   2.904 -2.0943 -2.2948  2.9452
17058TIP3    H272590   6.470   5.543   2.795  1.0184 -1.0591 -0.1118
17059TIP3   OH272591   0.484   1.375  13.683  0.3734  0.0538 -0.1378
17059TIP3    H172592   0.439   1.352  13.765  0.1672 -0.6169 -0.4336
17059TIP3    H272593   0.462   1.467  13.670  0.7847  0.2966  0.7974
17060TIP3   OH272594   6.262   2.182  13.386 -0.2774 -0.1034 -0.1883
17060TIP3    H172595   6.254   2.275  13.405  1.1735  0.3095 -1.3985
17060TIP3    H272596   6.193   2.141  13.438 -2.0278  1.7917 -0.9015
17061TIP3   OH272597   0.803   0.252  17.590 -0.1834 -0.4432 -0.0500
17061TIP3    H172598   0.879   0.195  17.575  0.9098  1.0870 -0.5524
17061TIP3    H272599   0.831   0.338  17.558 -2.2460  0.0988 -0.5127
17062TIP3   OH272600   2.000   0.827  16.685 -0.3859  0.2299  0.1637
17062TIP3    H172601   2.073   0.847  16.743 -0.3344 -1.3797  0.7011
17062TIP3    H272602   2.037   0.767  16.620 -0.9255  0.4115 -0.3136
17063TIP3   OH272603   6.563   1.061  12.152 -0.3081  1.5025  0.0223
17063TIP3    H172604   6.602   0.993  12.208  0.0629  2.6880  1.2508
17063TIP3    H272605   6.625   1.070  12.079  0.5055  1.6755  0.7145
17064TIP3   OH272606   6.113   0.136   4.617 -0.2687 -0.1380 -0.2933
17064TIP3    H172607   6.206   0.113   4.614 -0.4081 -0.8107  0.2759
17064TIP3    H272608   6.068   0.054   4.596 -0.7778 -0.4291  1.7140
17065TIP3   OH272609   3.579   2.804   4.205 -0.1630 -0.7622  0.8849
17065TIP3    H172610   3.502   2.791   4.149  0.2915 -2.9938  0.7136
17065TIP3    H272611   3.653   2.805   4.144  0.0118  1.9037  0.9866
17066TIP3   OH272612   6.431   0.164   0.550  0.1226 -0.1091 -0.5650
17066TIP3    H172613   6.493   0.092   0.544 -0.9156 -1.3157  1.6687
17066TIP3    H272614   6.404   0.181   0.460  3.7898  0.6684 -1.6631
17067TIP3   OH272615   6.687   5.293   3.302  0.1607 -0.0624  0.3370
17067TIP3    H172616   6.752   5.330   3.243 -0.1198 -0.7967 -0.4497
17067TIP3    H272617   6.650   5.219   3.254  1.9991 -2.5695  2.4919
17068TIP3   OH272618   3.467   0.920   1.810  0.8981  0.3916  0.0165
17068TIP3    H172619   3.519   0.844   1.834 -0.9194 -1.0445 -0.4022
17068TIP3    H272620   3.464   0.919   1.714  0.6436  0.8326  0.0130
17069TIP3   OH272621   0.494   0.496   4.269 -0.0249 -0.6475  0.5037
17069TIP3    H172622   0.411   0.463   4.234  0.3946 -1.7646  0.5069
17069TIP3    H272623   0.492   0.590   4.251 -0.3894 -0.9763 -1.3772
17070TIP3   OH272624   4.959   4.508  16.457 -0.8890  0.4039  0.0529
17070TIP3    H172625   4.920   4.497  16.370 -1.2918  0.2336  0.2539
17070TIP3    H272626   5.053   4.493  16.443 -1.1310 -1.1296 -0.0850
17071TIP3   OH272627   4.051   3.286  16.382  0.1084 -0.0858  0.0554
17071TIP3    H172628   4.046   3.283  16.477  2.0001 -1.1633  0.1625
17071TIP3    H272629   4.037   3.379  16.360 -0.0589  0.2171  1.3915
17072TIP3   OH272630   0.499   1.661  12.421 -0.0905  0.4981 -0.0906
17072TIP3    H172631   0.421   1.706  12.389 -1.1237 -1.3160 -0.2203
17072TIP3    H272632   0.542   1.627  12.343  0.2070  0.5134  0.0645
17073TIP3   OH272633   0.933   2.742  11.998  0.5178 -0.1993  0.1029
17073TIP3    H172634   0.880   2.747  11.918  2.6420 -0.8030 -1.4404
17073TIP3    H272635   0.897   2.667  12.046  0.1712 -0.8107 -1.0653
17074TIP3   OH272636   4.314   3.416  15.229 -1.0896 -0.5662  0.8154
17074TIP3    H172637   4.375   3.415  15.303 -1.6534 -1.9442  1.2965
17074TIP3    H272638   4.340   3.341  15.175 -1.1541 -0.0148  0.0004
17075TIP3   OH272639   2.999   1.223   2.251  0.1725 -0.2832 -0.6325
17075TIP3    H172640   2.943   1.263   2.318 -1.0004 -0.1048 -1.6956
17075TIP3    H272641   3.051   1.295   2.216  1.3157 -0.4970  0.5537
17076TIP3   OH272642   5.858   1.032  11.722  0.2334  0.1375  0.5151
17076TIP3    H172643   5.869   1.073  11.636 -3.7217  0.8534  0.1578
17076TIP3    H272644   5.907   1.088  11.782  2.3717  0.1149 -1.0983
17077TIP3   OH272645   0.428   0.366   1.190 -0.6377 -0.0862 -0.0040
17077TIP3    H172646   0.482   0.336   1.262 -1.3121  1.9534  1.4293
17077TIP3    H272647   0.488   0.373   1.116  1.5037  3.3308  1.8206
17078TIP3   OH272648   0.330   0.324   4.794  0.0498 -0.5095  0.5310
17078TIP3    H172649   0.320   0.399   4.853 -0.0440 -0.1817  0.1070
17078TIP3    H272650   0.421   0.329   4.765 -0.4382  0.5674 -0.9613
17079TIP3   OH272651   3.634   6.372   2.888  0.0211  0.3248  0.4223
17079TIP3    H172652   3.630   6.359   2.983 -0.6560  0.2097  0.3819
17079TIP3    H272653   3.713   6.424   2.875  0.3737 -0.0509  1.0028
17080TIP3   OH272654   0.393   0.583  16.487  0.5507  0.2216 -0.1094
17080TIP3    H172655   0.323   0.645  16.469  0.7802  0.2286 -1.0356
17080TIP3    H272656   0.372   0.506  16.433  0.8855 -0.0414  0.1289
17081TIP3   OH272657   3.156   1.268  11.032  0.1774 -0.3987  1.0136
17081TIP3    H172658   3.179   1.200  10.969 -1.5085 -0.3977  0.3530
17081TIP3    H272659   3.228   1.331  11.026  0.7757 -1.1278  0.1797
17082TIP3   OH272660   5.758   3.731   6.457 -0.1937 -0.0980  0.1714
17082TIP3    H172661   5.827   3.793   6.481  0.0344  0.0490 -0.8453
17082TIP3    H272662   5.805   3.657   6.419 -0.4355 -1.0709  1.6516
17083TIP3   OH272663   3.247   0.851   5.161 -0.1389  0.7152  0.4525
17083TIP3    H172664   3.157   0.883   5.151  0.9802  3.8701 -0.8152
17083TIP3    H272665   3.282   0.851   5.072  1.3584  0.3490  1.0282
17084TIP3   OH272666   2.092   5.221  11.610 -0.5999  0.0030 -0.0530
17084TIP3    H172667   2.106   5.169  11.530 -2.3382 -1.3511  0.4352
17084TIP3    H272668   1.998   5.213  11.626 -0.1051 -0.9535  2.9134
17085TIP3   OH272669   3.521   2.200  12.977 -0.3447 -0.0399  0.2662
17085TIP3    H172670   3.597   2.204  13.035 -1.4239 -1.5746  1.8716
17085TIP3    H272671   3.557   2.179  12.891  1.1388  0.6243  0.6955
17086TIP3   OH272672   0.240   2.587  11.048 -0.0493  0.2144 -0.4879
17086TIP3    H172673   0.307   2.621  10.988 -1.8378  2.3946 -1.3970
17086TIP3    H272674   0.157   2.604  11.003 -1.3582  0.2432  1.8060
17087TIP3   OH272675   1.214   5.131   1.682 -0.2295  0.1639  0.3030
17087TIP3    H172676   1.265   5.050   1.674 -0.3588 -0.0064  1.1231
17087TIP3    H272677   1.176   5.144   1.595  1.7352  0.6604 -0.5325
17088TIP3   OH272678   2.887   3.855   0.029  0.1565  0.3672 -0.0047
17088TIP3    H172679   2.955   3.844   0.096 -0.6370 -0.2063  0.7282
17088TIP3    H272680   2.936   3.869  -0.052  1.1449  0.5240  0.6000
17089TIP3   OH272681   3.576   0.224   4.429 -0.0220  0.1305  0.2142
17089TIP3    H172682   3.602   0.270   4.349 -0.1274  0.3042  0.2781
17089TIP3    H272683   3.590   0.132   4.410 -1.2641  0.0636 -0.4624
17090TIP3   OH272684   0.912   4.157   2.310 -0.3253 -0.4855 -0.2484
17090TIP3    H172685   0.842   4.166   2.246 -0.3748  1.3213 -0.0115
17090TIP3    H272686   0.985   4.119   2.261  0.2205  2.4197 -1.9085
17091TIP3   OH272687   5.324   4.045  14.266 -0.3824 -0.0546  0.5207
17091TIP3    H172688   5.343   4.039  14.172 -1.5834 -0.6230  0.2874
17091TIP3    H272689   5.329   4.139  14.285 -1.5906  0.2507 -0.4728
17092TIP3   OH272690   3.508   3.020  16.681 -0.0827 -0.0102  0.1300
17092TIP3    H172691   3.501   2.948  16.743 -1.0557 -0.2712 -0.2701
17092TIP3    H272692   3.500   2.979  16.595  3.0003  0.0980 -0.3322
17093TIP3   OH272693   4.109   4.250  14.620  0.5015 -0.0144  0.3382
17093TIP3    H172694   4.041   4.188  14.594  1.4399 -0.8321 -0.2493
17093TIP3    H272695   4.062   4.320  14.664 -0.5188 -1.6071  1.9482
17094TIP3   OH272696   2.974   5.418  13.536  0.2334 -0.3680 -0.2542
17094TIP3    H172697   2.886   5.393  13.566  0.0484  1.6333  1.0344
17094TIP3    H272698   2.974   5.398  13.442 -1.5925 -0.4447 -0.2670
17095TIP3   OH272699   0.988   5.817   1.186 -0.2425  0.0084  0.4884
17095TIP3    H172700   0.943   5.901   1.173  0.5529  0.8666  2.7823
17095TIP3    H272701   1.032   5.800   1.102 -1.8073  0.9870 -0.5868
17096TIP3   OH272702   5.434   1.192   3.416 -0.3109 -0.1737 -0.0391
17096TIP3    H172703   5.361   1.232   3.370 -0.1900 -0.8103 -0.7974
17096TIP3    H272704   5.435   1.101   3.386  0.7048 -0.2118  0.0614
17097TIP3   OH272705   2.658   4.098   5.009  0.1325 -0.5474 -0.3182
17097TIP3    H172706   2.641   4.011   4.974 -0.3504 -0.4842 -0.2443
17097TIP3    H272707   2.673   4.084   5.102  1.5906 -0.7372 -0.5645
17098TIP3   OH272708   5.897   5.821   4.578  0.5885 -0.1321 -0.1954
17098TIP3    H172709   5.891   5.848   4.486  1.5862  0.5773 -0.0671
17098TIP3    H272710   5.980   5.858   4.609 -0.7200  1.5033  1.6015
17099TIP3   OH272711   0.479   6.385  14.382  0.4537 -0.1577  0.4586
17099TIP3    H172712   0.509   6.337  14.460  1.8559  0.2037  0.1818
17099TIP3    H272713   0.555   6.438  14.357  0.1901 -0.5868 -1.4021
17100TIP3   OH272714   6.634   6.300   1.802  0.0648  0.4586 -0.2574
17100TIP3    H172715   6.680   6.305   1.886  0.1545 -0.5345 -0.2288
17100TIP3    H272716   6.623   6.391   1.775  0.9102  0.7557  0.3512
17101TIP3   OH272717   5.929   6.099  14.531  0.2374 -0.1760  0.5373
17101TIP3    H172718   5.849   6.123  14.485 -0.6158 -1.4056  1.3361
17101TIP3    H272719   5.943   6.170  14.594 -0.1901  0.0692  0.3572
17102TIP3   OH272720   3.273   5.992  17.130 -0.6136 -0.2415 -0.5458
17102TIP3    H172721   3.191   6.040  17.131  0.1402  1.1697  1.7497
17102TIP3    H272722   3.250   5.904  17.162 -1.2437  0.1742  0.1778
17103TIP3   OH272723   1.322   2.364   5.696 -0.3414 -0.2059  0.0982
17103TIP3    H172724   1.319   2.319   5.611  0.7909 -0.1745  0.0224
17103TIP3    H272725   1.323   2.294   5.761  2.3750 -0.4166 -0.0426
17104TIP3   OH272726   1.782   1.164   3.649 -0.9055 -0.3933  0.3832
17104TIP3    H172727   1.705   1.125   3.690  0.5361 -2.0386  1.6479
17104TIP3    H272728   1.855   1.140   3.706  0.5344  1.3696 -0.6061
17105TIP3   OH272729   5.845   1.085   4.944  0.1090  0.3920  1.1359
17105TIP3    H172730   5.935   1.116   4.941 -0.0652  0.8463 -0.0934
17105TIP3    H272731   5.812   1.116   5.028  1.0015  0.4931  1.4569
17106TIP3   OH272732   3.930   6.509   3.238 -0.0825 -0.8378 -0.6635
17106TIP3    H172733   4.017   6.471   3.254  0.4881  0.6038 -0.1192
17106TIP3    H272734   3.946   6.576   3.171 -0.6485 -0.0898 -0.0588
17107TIP3   OH272735   6.285   0.563  17.618 -0.0053 -0.2151  0.2484
17107TIP3    H172736   6.196   0.588  17.592  0.1516 -0.1329 -0.2056
17107TIP3    H272737   6.322   0.520  17.541 -0.0979 -1.4194  0.8533
17108TIP3   OH272738   1.781   2.218   6.403  0.3176  0.1306 -0.0023
17108TIP3    H172739   1.740   2.132   6.396  2.0170 -0.8013  0.8184
17108TIP3    H272740   1.771   2.257   6.316 -2.0624 -0.0964  0.0928
17109TIP3   OH272741   6.190   1.248   0.063  0.1186  0.4977  0.4135
17109TIP3    H172742   6.132   1.228  -0.010  0.6258  1.7676 -0.3853
17109TIP3    H272743   6.136   1.300   0.123  0.3339  1.4757 -0.2163
17110TIP3   OH272744   5.286   2.067   1.110  0.5227 -0.1607  0.0653
17110TIP3    H172745   5.245   2.118   1.180  1.4447 -0.9374  1.2103
17110TIP3    H272746   5.260   1.976   1.129  2.5531 -0.6426  0.7010
17111TIP3   OH272747   4.086   4.664   0.285 -0.0963 -0.7703  0.2940
17111TIP3    H172748   4.175   4.696   0.295  0.0466 -1.1327  0.2110
17111TIP3    H272749   4.043   4.683   0.368  0.2945 -1.3363  0.6273
17112TIP3   OH272750   6.172   2.938  14.324  0.1910  0.3299  0.0553
17112TIP3    H172751   6.127   3.015  14.361 -0.3047  0.4370 -0.7474
17112TIP3    H272752   6.133   2.928  14.237  0.6853 -0.4741 -0.0744
17113TIP3   OH272753   3.194   5.505  12.355 -0.3088  0.0130  0.1055
17113TIP3    H172754   3.214   5.575  12.292 -0.9454 -0.6613 -0.8698
17113TIP3    H272755   3.225   5.539  12.439  1.3123  0.6015 -0.6880
17114TIP3   OH272756   4.432   2.982   3.547 -0.1929  0.2703 -0.4098
17114TIP3    H172757   4.437   2.942   3.460 -0.9477  0.5773 -0.5989
17114TIP3    H272758   4.376   3.059   3.536 -0.8669 -0.0696  0.4853
17115TIP3   OH272759   5.325   1.898   2.383 -0.2910  0.1210  0.1732
17115TIP3    H172760   5.232   1.901   2.408 -0.0858  2.0493  0.8672
17115TIP3    H272761   5.366   1.842   2.449 -0.9769 -1.0323 -0.3367
17116TIP3   OH272762   4.468   1.208   1.247  0.3630  0.1065  0.4242
17116TIP3    H172763   4.475   1.229   1.154 -0.4540 -1.0975  0.0713
17116TIP3    H272764   4.411   1.277   1.283  0.0962  0.1727 -0.1175
17117TIP3   OH272765   4.477   1.575   3.096 -0.0060 -0.4952  0.1603
17117TIP3    H172766   4.438   1.497   3.055 -0.7202 -0.9205  1.5641
17117TIP3    H272767   4.428   1.648   3.059  0.0364 -0.7854 -0.4832
17118TIP3   OH272768   5.423   3.040  15.942 -0.1980 -0.2696 -0.0646
17118TIP3    H172769   5.452   3.115  15.890 -0.0077 -0.6520 -0.5232
17118TIP3    H272770   5.327   3.042  15.936 -0.2206  0.3121  0.4672
17119TIP3   OH272771   0.195   0.288   2.093 -0.2059 -0.8450 -0.1918
17119TIP3    H172772   0.118   0.330   2.054  0.0122  0.4120  0.6612
17119TIP3    H272773   0.161   0.243   2.170 -0.0353  0.1581  0.4899
17120TIP3   OH272774   5.340   3.848  12.962 -0.7315 -0.4256  0.0663
17120TIP3    H172775   5.333   3.763  12.919 -0.3670 -0.8094  0.7433
17120TIP3    H272776   5.267   3.849  13.025 -0.4215 -0.4635  0.4311
17121TIP3   OH272777   3.604   6.057   3.143 -0.1375 -0.1911  0.0857
17121TIP3    H172778   3.530   6.097   3.098  0.8908  1.8420  0.0854
17121TIP3    H272779   3.569   6.030   3.227 -1.1471 -0.3728 -0.3782
17122TIP3   OH272780   1.926   5.148   0.512  0.0494 -0.5520 -0.6592
17122TIP3    H172781   1.868   5.126   0.585  0.7118 -1.1953 -0.3051
17122TIP3    H272782   1.876   5.210   0.459 -0.3861  0.0605  0.4254
17123TIP3   OH272783   4.648   4.231   1.525 -0.0132 -0.0696 -0.7369
17123TIP3    H172784   4.638   4.156   1.465 -0.0924  0.3715 -1.2885
17123TIP3    H272785   4.668   4.192   1.610  1.4407 -0.6925 -1.3248
17124TIP3   OH272786   0.208   3.034  17.055  0.0072 -0.0268  0.5389
17124TIP3    H172787   0.296   3.061  17.083  0.8359 -2.3797  0.4101
17124TIP3    H272788   0.216   3.022  16.961 -0.6165  0.2756  0.4451
17125TIP3   OH272789   5.919   4.769  12.457 -0.4088 -0.0509 -0.4583
17125TIP3    H172790   5.898   4.850  12.504  2.2233  0.7809 -0.5234
17125TIP3    H272791   6.015   4.766  12.457 -0.3996 -3.2632 -0.3441
17126TIP3   OH272792   0.648   6.275  14.575  0.2571 -0.1446 -0.3048
17126TIP3    H172793   0.738   6.244  14.574  0.1199 -0.5693 -1.1020
17126TIP3    H272794   0.640   6.325  14.656  1.1498 -0.2610 -0.1342
17127TIP3   OH272795   0.841   0.453   1.161  0.3517 -0.0920 -0.1700
17127TIP3    H172796   0.774   0.429   1.097  1.3824  0.3961 -1.5000
17127TIP3    H272797   0.793   0.484   1.238 -0.9292 -0.6461 -0.7343
17128TIP3   OH272798   0.646   4.597   5.129 -0.3192 -0.4817  0.7179
17128TIP3    H172799   0.673   4.623   5.041  0.3745 -2.1207  0.4125
17128TIP3    H272800   0.625   4.679   5.173  0.0875  0.4281 -0.7287
17129TIP3   OH272801   1.643   5.774   0.986  0.1324  0.8204  0.5164
17129TIP3    H172802   1.668   5.861   0.955 -0.4291  1.0301  0.6435
17129TIP3    H272803   1.639   5.783   1.081  1.3418  0.3146  0.6343
17130TIP3   OH272804   6.388   3.972   5.432  0.4996  0.1274  0.4072
17130TIP3    H172805   6.356   4.031   5.364  0.0082 -0.1398  0.3988
17130TIP3    H272806   6.392   4.026   5.511 -0.2577  0.0921  0.4729
17131TIP3   OH272807   0.364   4.124   5.324  0.6808  0.1183 -0.3056
17131TIP3    H172808   0.403   4.180   5.256  1.7553 -0.8428 -0.5203
17131TIP3    H272809   0.370   4.176   5.404  3.2267 -0.2683 -0.1589
17132TIP3   OH272810   4.502   0.958  15.427  0.1129 -0.2591 -0.4988
17132TIP3    H172811   4.457   1.030  15.383  1.2859  1.7268  1.3706
17132TIP3    H272812   4.577   0.939  15.370 -1.2106 -1.3415 -1.9445
17133TIP3   OH272813   5.008   2.126  15.874  0.1586 -0.0304  0.1331
17133TIP3    H172814   4.913   2.114  15.881 -0.0333  1.4347  0.3666
17133TIP3    H272815   5.025   2.123  15.780 -0.1640 -0.0660  0.0722
17134TIP3   OH272816   3.409   5.844  12.684 -0.5260 -0.6265 -0.3954
17134TIP3    H172817   3.451   5.930  12.686  0.9382 -1.3302  0.9020
17134TIP3    H272818   3.316   5.863  12.696 -0.2736  0.7887 -0.4982
17135TIP3   OH272819   3.378   3.612  11.998  0.3416  0.1359  0.5649
17135TIP3    H172820   3.391   3.667  12.075 -2.0719 -0.7419  1.6965
17135TIP3    H272821   3.331   3.536  12.030 -0.5634 -0.3734 -1.7533
17136TIP3   OH272822   2.188   4.283   3.192  0.7013 -0.3449 -0.5636
17136TIP3    H172823   2.180   4.190   3.214 -1.7584  0.0486  0.6031
17136TIP3    H272824   2.193   4.285   3.097 -2.2287 -1.6312 -0.8658
17137TIP3   OH272825   2.070   3.725   2.115 -0.0389 -0.1168 -0.0682
17137TIP3    H172826   2.136   3.777   2.161  0.5890  0.4531 -1.5432
17137TIP3    H272827   2.106   3.636   2.113  0.3230  0.0316 -0.1754
17138TIP3   OH272828   0.578   3.250  14.770  0.1458 -0.5417 -0.0960
17138TIP3    H172829   0.521   3.327  14.778 -0.1676 -0.5975 -1.4793
17138TIP3    H272830   0.639   3.257  14.843  0.2929  1.1862 -0.3482
17139TIP3   OH272831   4.558   6.042  13.005  0.2951 -0.7607 -0.3497
17139TIP3    H172832   4.515   6.054  13.090 -0.9328 -3.2048 -0.5411
17139TIP3    H272833   4.546   5.950  12.985  1.8889 -0.5749 -2.5105
17140TIP3   OH272834   4.864   5.421   0.603 -0.0676  0.3263  0.1140
17140TIP3    H172835   4.937   5.396   0.661  0.0844 -0.5946 -0.4629
17140TIP3    H272836   4.848   5.343   0.550 -0.1470  1.1775 -1.1468
17141TIP3   OH272837   5.035   1.085   3.843  0.6988 -0.2903  0.1716
17141TIP3    H172838   4.959   1.139   3.861  1.0290  0.4865 -0.6945
17141TIP3    H272839   5.106   1.124   3.894  0.8993 -0.0028 -0.3242
17142TIP3   OH272840   5.045   1.418   2.520 -0.9504 -0.3111 -0.0530
17142TIP3    H172841   5.032   1.324   2.522 -1.0786 -0.2764  0.9469
17142TIP3    H272842   4.961   1.453   2.490 -0.6967 -0.5382 -1.0809
17143TIP3   OH272843   5.401   6.084  13.176  0.1511 -0.4826 -0.6899
17143TIP3    H172844   5.382   6.175  13.198  2.7845  0.3051 -1.2478
17143TIP3    H272845   5.451   6.089  13.094  0.0722 -2.4609 -0.9044
17144TIP3   OH272846   4.949   2.421   2.474  0.2900  0.0787  0.5508
17144TIP3    H172847   4.956   2.398   2.382  0.7780 -0.5382  0.7295
17144TIP3    H272848   4.961   2.338   2.520  0.3061  0.4198  1.1732
17145TIP3   OH272849   4.897   2.422  16.374  0.6612  0.0276 -1.1140
17145TIP3    H172850   4.959   2.429  16.447  0.7840  1.5263 -1.3339
17145TIP3    H272851   4.828   2.485  16.395 -1.0507 -1.9076 -0.6763
17146TIP3   OH272852   2.799   1.267  11.302 -0.0704 -0.0013 -0.2019
17146TIP3    H172853   2.861   1.296  11.369 -0.1062 -0.0473 -0.1499
17146TIP3    H272854   2.741   1.342  11.290  0.3303  0.2440 -0.6433
17147TIP3   OH272855   1.436   5.165   4.659 -0.2687  0.6256 -0.5567
17147TIP3    H172856   1.462   5.111   4.585 -0.8273  0.3728 -0.5725
17147TIP3    H272857   1.401   5.246   4.619  2.6093  2.0075 -0.5120
17148TIP3   OH272858   3.132   0.388  12.866 -0.4996  0.0516  0.2711
17148TIP3    H172859   3.060   0.324  12.868 -0.4376 -0.0887 -1.2297
17148TIP3    H272860   3.100   0.459  12.811 -0.3575  1.1040  1.4902
17149TIP3   OH272861   4.512   3.584  13.048  0.5116  0.1702 -0.0752
17149TIP3    H172862   4.513   3.509  12.989  0.5274 -1.1994  1.5874
17149TIP3    H272863   4.480   3.656  12.994  2.4233 -0.5165 -2.2711
17150TIP3   OH272864   6.686   1.120  15.728  0.9986 -0.5860 -0.2289
17150TIP3    H172865   6.653   1.144  15.815  1.5127  4.5311 -1.1342
17150TIP3    H272866   6.627   1.165  15.667  2.9777 -0.6327 -2.3142
17151TIP3   OH272867   3.922   4.372  12.171  0.3571 -0.4234  0.3946
17151TIP3    H172868   3.956   4.311  12.235  0.6384  0.4478  1.0926
17151TIP3    H272869   3.846   4.413  12.214  1.5757  1.4344  0.9023
17152TIP3   OH272870   6.257   0.266   3.201 -0.1368  0.4669 -0.1240
17152TIP3    H172871   6.203   0.195   3.165  1.4262 -1.2228  0.7049
17152TIP3    H272872   6.202   0.305   3.269 -0.8483 -0.2874 -0.2395
17153TIP3   OH272873   5.515   3.718  11.740 -0.5695 -0.4912 -0.2067
17153TIP3    H172874   5.534   3.629  11.710 -1.4607 -0.6049 -0.4860
17153TIP3    H272875   5.538   3.774  11.666 -0.6073 -0.5539 -0.2656
17154TIP3   OH272876   5.861   5.548  17.153  0.4274  0.1982 -0.1956
17154TIP3    H172877   5.834   5.458  17.172 -0.0144  0.3273 -0.1929
17154TIP3    H272878   5.942   5.539  17.103  0.1259 -0.2136 -0.6153
17155TIP3   OH272879   2.743   3.626  17.623 -0.4301 -0.3201  0.4876
17155TIP3    H172880   2.769   3.716  17.641  1.3616 -0.6334 -0.2638
17155TIP3    H272881   2.701   3.630  17.537  1.4324 -0.4303 -0.4795
17156TIP3   OH272882   3.001   3.682  17.230 -0.0103 -0.3614  0.5168
17156TIP3    H172883   3.018   3.590  17.251  1.8827 -0.1730  0.0226
17156TIP3    H272884   2.919   3.681  17.181  1.0068 -2.0966 -1.3434
17157TIP3   OH272885   3.983   0.636   3.890  0.1315  0.1093 -0.0281
17157TIP3    H172886   4.051   0.664   3.829 -1.5168  2.0481 -1.0789
17157TIP3    H272887   3.907   0.618   3.836 -0.7548 -0.1976  1.2646
17158TIP3   OH272888   1.307   2.796  11.027  0.2151  0.2986  0.0569
17158TIP3    H172889   1.349   2.859  11.086  2.6237 -1.2584  0.1410
17158TIP3    H272890   1.326   2.710  11.066 -0.4677 -0.6245 -1.5497
17159TIP3   OH272891   1.185   0.928   5.469  0.1869  0.5278  0.0844
17159TIP3    H172892   1.187   0.845   5.516  0.1271  1.9535  2.8473
17159TIP3    H272893   1.248   0.983   5.515 -1.7694  2.8663  0.2148
17160TIP3   OH272894   2.021   0.842  12.951  0.3384  0.7816  0.4738
17160TIP3    H172895   2.065   0.856  13.035  1.7645  1.3204 -0.3161
17160TIP3    H272896   2.084   0.792  12.899 -1.4629 -1.6308  0.4780
17161TIP3   OH272897   4.377   6.222   6.495 -0.4566 -0.3179  0.3524
17161TIP3    H172898   4.306   6.242   6.556 -0.2022 -0.4500  0.6947
17161TIP3    H272899   4.456   6.225   6.549  0.0428  1.7692 -0.3758
17162TIP3   OH272900   6.211   3.359  14.054  0.1762  0.0101  0.1773
17162TIP3    H172901   6.129   3.311  14.068  0.2164  0.1656  0.9619
17162TIP3    H272902   6.278   3.304  14.095  0.3869  0.1602  0.0367
17163TIP3   OH272903   0.364   0.425  15.354  0.2863 -0.6181 -0.1458
17163TIP3    H172904   0.399   0.343  15.389 -0.9639 -1.4958 -0.9194
17163TIP3    H272905   0.319   0.401  15.274  0.3038  0.9067 -0.6510
17164TIP3   OH272906   0.133   1.399  13.667 -0.0657  0.0419  0.1444
17164TIP3    H172907   0.121   1.374  13.759  1.0976 -0.3159  0.2183
17164TIP3    H272908   0.127   1.495  13.667  0.6764  0.0950  0.7271
17165TIP3   OH272909   0.390   3.271   3.468  0.0846  0.1920 -0.0855
17165TIP3    H172910   0.360   3.200   3.525 -0.9933 -0.6379 -1.6040
17165TIP3    H272911   0.479   3.247   3.445 -0.4267 -0.9430 -0.9516
17166TIP3   OH272912   5.710   5.318   4.592 -0.3017 -0.3746  0.1797
17166TIP3    H172913   5.795   5.310   4.635  1.0238 -0.1370 -2.2228
17166TIP3    H272914   5.663   5.384   4.644  1.7938  1.0465  0.4033
17167TIP3   OH272915   2.540   4.947   6.401 -0.2946 -0.2907 -0.0521
17167TIP3    H172916   2.488   4.875   6.366 -0.4047 -0.2169 -0.0404
17167TIP3    H272917   2.613   4.956   6.339 -0.7727  0.1873 -0.5568
17168TIP3   OH272918   2.226   6.582  13.787  0.4115  0.6111 -0.2709
17168TIP3    H172919   2.267   6.645  13.845  0.2977  1.5593 -1.1836
17168TIP3    H272920   2.296   6.520  13.764  0.7185  0.8470  0.0340
17169TIP3   OH272921   2.687   2.664  12.530 -0.4330 -0.5068  0.5755
17169TIP3    H172922   2.751   2.661  12.601  1.9486  1.1674 -1.3540
17169TIP3    H272923   2.610   2.705  12.569  1.0447  0.9872  2.0847
17170TIP3   OH272924   1.908   1.052   0.999  0.3974 -0.3682 -0.2896
17170TIP3    H172925   1.938   0.984   1.060  1.3100 -1.4935 -1.9117
17170TIP3    H272926   1.986   1.104   0.981 -0.4283  1.6220  1.4467
17171TIP3   OH272927   4.350   4.612   4.508  0.0282 -0.1151  0.5200
17171TIP3    H172928   4.407   4.675   4.463  1.3756 -1.1916  0.6384
17171TIP3    H272929   4.338   4.541   4.444 -0.1156 -0.4951  0.9646
17172TIP3   OH272930   6.357   4.453  13.638  0.5513 -0.3245  0.5653
17172TIP3    H172931   6.386   4.363  13.628  1.5784  0.0359  0.1770
17172TIP3    H272932   6.297   4.468  13.565  3.0507  0.3317 -1.4602
17173TIP3   OH272933   1.378   3.103   1.425  0.0197 -0.1109 -0.1871
17173TIP3    H172934   1.342   3.024   1.463 -0.4298 -0.7062 -1.7686
17173TIP3    H272935   1.473   3.093   1.433 -0.0653 -0.1207  0.9109
17174TIP3   OH272936   1.759   6.707  15.587  0.0998 -0.0989 -0.5913
17174TIP3    H172937   1.845   6.702  15.546  0.4375  0.6074  0.0136
17174TIP3    H272938   1.777   6.734  15.677 -0.7922  0.5493 -0.5973
17175TIP3   OH272939   3.788   5.321   3.669 -0.1483  0.1145  0.2091
17175TIP3    H172940   3.782   5.344   3.577 -0.3756 -2.1419 -0.3916
17175TIP3    H272941   3.726   5.249   3.681 -0.5809  0.7615  2.2708
17176TIP3   OH272942   1.852   5.344  14.534 -0.1856 -0.0844 -0.0852
17176TIP3    H172943   1.924   5.286  14.559 -0.2307 -0.3184 -0.4889
17176TIP3    H272944   1.825   5.312  14.448  0.4698  1.1756 -0.7911
17177TIP3   OH272945   3.444   0.447  14.382 -0.0329 -0.0896  0.2913
17177TIP3    H172946   3.524   0.426  14.431 -0.3946 -1.9616  0.1429
17177TIP3    H272947   3.395   0.366  14.380 -1.2235  0.6184 -0.9940
17178TIP3   OH272948   5.079   0.255   5.607 -0.6698  0.0175  0.0108
17178TIP3    H172949   4.997   0.286   5.645 -0.6020 -0.8924  0.9526
17178TIP3    H272950   5.146   0.310   5.647 -0.8422  1.1706 -1.2198
17179TIP3   OH272951   1.578   5.172  16.002 -0.1073 -0.3837  0.0209
17179TIP3    H172952   1.504   5.194  16.058 -0.5673  0.5249 -0.9179
17179TIP3    H272953   1.600   5.253  15.957 -1.0088 -1.4383 -2.5516
17180TIP3   OH272954   6.540   6.139  12.712  0.2360  0.4211  0.2769
17180TIP3    H172955   6.593   6.091  12.648  1.3345  1.7686  0.1303
17180TIP3    H272956   6.602   6.197  12.757 -1.0240  1.7635  0.3822
17181TIP3   OH272957   3.341   2.441   3.360 -0.4502  0.1699  0.0878
17181TIP3    H172958   3.321   2.472   3.272  1.8496 -0.3872 -0.6811
17181TIP3    H272959   3.425   2.395   3.352  0.4761  1.1798  2.7929
17182TIP3   OH272960   3.781   2.498  12.278 -0.0479  0.0958  0.0010
17182TIP3    H172961   3.779   2.531  12.368  2.2861  2.5246 -0.6962
17182TIP3    H272962   3.805   2.406  12.287  2.2462  0.7731  1.8710
17183TIP3   OH272963   5.161   6.646  13.689  0.6535  0.3692  0.6237
17183TIP3    H172964   5.143   6.716  13.751 -0.9743  1.3626 -0.8705
17183TIP3    H272965   5.075   6.611  13.665  1.2416 -0.2256 -0.7772
17184TIP3   OH272966   0.253   2.822  15.871 -0.1499  0.1365  0.1298
17184TIP3    H172967   0.180   2.788  15.922  1.7719 -2.8515  1.0796
17184TIP3    H272968   0.237   2.789  15.782 -0.2467 -0.0113  0.2013
17185TIP3   OH272969   4.458   2.215   4.079 -0.3468 -0.3361  0.4234
17185TIP3    H172970   4.385   2.229   4.139  0.7436  0.2681  1.6474
17185TIP3    H272971   4.476   2.302   4.043 -1.9684 -0.9046 -2.0369
17186TIP3   OH272972   6.533   5.058   3.339  0.0824 -0.0043  0.4245
17186TIP3    H172973   6.463   4.996   3.320  1.2104 -0.9749 -0.7870
17186TIP3    H272974   6.508   5.097   3.422 -1.2652 -1.2223  0.6452
17187TIP3   OH272975   5.759   1.140   3.334  0.4241 -0.1292  0.7067
17187TIP3    H172976   5.832   1.144   3.396 -0.8790  0.2694  2.3042
17187TIP3    H272977   5.758   1.050   3.303  0.3984 -0.6792  2.2194
17188TIP3   OH272978   3.460   3.276   5.445  0.8578  0.0908 -0.0462
17188TIP3    H172979   3.397   3.204   5.449  0.0315  0.8193  0.5718
17188TIP3    H272980   3.412   3.347   5.403  1.4417  0.4973 -0.0344
17189TIP3   OH272981   1.848   5.364   1.907  0.1108 -0.0509 -0.5861
17189TIP3    H172982   1.817   5.382   1.818  0.9567  0.5295 -0.7797
17189TIP3    H272983   1.906   5.438   1.927  0.3547 -0.4556  0.2403
17190TIP3   OH272984   5.337   6.683   0.541 -0.4356 -0.6730 -0.5293
17190TIP3    H172985   5.331   6.620   0.469 -0.6119 -0.6404 -0.5440
17190TIP3    H272986   5.330   6.629   0.620 -1.8386 -0.5605 -0.5473
17191TIP3   OH272987   1.206   2.032  15.006 -0.1455  0.2144  0.1541
17191TIP3    H172988   1.215   1.969  14.934  0.8496  0.7767 -0.2335
17191TIP3    H272989   1.211   2.117  14.963 -0.8220  0.5659  0.7559
17192TIP3   OH272990   1.726   4.285  14.770  0.1854  0.0993  0.1870
17192TIP3    H172991   1.716   4.192  14.747  1.8500 -0.0985  0.1951
17192TIP3    H272992   1.713   4.288  14.865 -0.1845 -0.0698  0.1442
17193TIP3   OH272993   2.723   2.505  11.716  0.6498  0.1050 -0.7651
17193TIP3    H172994   2.719   2.592  11.756  0.4495 -0.2802  0.0796
17193TIP3    H272995   2.631   2.480  11.705  0.6467 -1.1191  1.5413
17194TIP3   OH272996   1.572   2.590  17.262 -0.1439  0.2038  0.2553
17194TIP3    H172997   1.563   2.508  17.311  0.6260  0.2872  0.5599
17194TIP3    H272998   1.540   2.658  17.321 -0.2275  0.1855  0.2309
17195TIP3   OH272999   4.957   0.456  15.145  0.2692 -0.2866  0.2408
17195TIP3    H173000   5.044   0.487  15.171 -0.3359  0.5662  1.3428
17195TIP3    H273001   4.967   0.434  15.052  1.2000  1.6182 -0.1779
17196TIP3   OH273002   4.959   5.867   0.953 -0.1031  0.3959  0.1794
17196TIP3    H173003   5.003   5.870   1.038 -0.5578 -1.0312  0.4946
17196TIP3    H273004   4.891   5.934   0.959 -0.6466 -0.2208  1.2621
17197TIP3   OH273005   6.025   3.125   3.113 -0.2573 -0.0094  0.2915
17197TIP3    H173006   6.089   3.194   3.098  0.2491 -0.7989 -1.4954
17197TIP3    H273007   5.950   3.170   3.152 -0.8297  2.0539 -2.7973
17198TIP3   OH273008   0.209   5.519   1.155  0.5336  0.0409  0.1813
17198TIP3    H173009   0.155   5.588   1.116 -0.3997 -0.6555  0.2273
17198TIP3    H273010   0.293   5.562   1.172  0.4357  0.7927 -1.0905
17199TIP3   OH273011   4.876   4.281   3.538 -0.5483  0.3363 -0.5487
17199TIP3    H173012   4.869   4.216   3.468 -0.4268 -0.0880 -0.1752
17199TIP3    H273013   4.787   4.315   3.549 -0.7601 -0.2984 -0.2535
17200TIP3   OH273014   5.049   1.665   5.201 -0.0470 -0.7092  0.2542
17200TIP3    H173015   5.100   1.622   5.132 -0.1197  0.1192 -0.3445
17200TIP3    H273016   5.102   1.656   5.280  1.5191  0.9152 -0.5247
17201TIP3   OH273017   2.113   3.981  17.263  0.4393  0.2104  0.4900
17201TIP3    H173018   2.095   4.072  17.286 -0.8086  0.1330 -0.0784
17201TIP3    H273019   2.103   3.933  17.345 -0.1598  0.4240  0.5460
17202TIP3   OH273020   2.127   6.392  15.625 -0.5379  0.1757 -0.2182
17202TIP3    H173021   2.187   6.389  15.550 -1.1667 -0.2600 -0.7090
17202TIP3    H273022   2.183   6.418  15.699  0.5233 -1.4302 -0.4016
17203TIP3   OH273023   3.556   0.539  14.138  0.8049 -0.1974 -0.1711
17203TIP3    H173024   3.491   0.503  14.198  0.8531  1.0924  0.6747
17203TIP3    H273025   3.510   0.545  14.054 -0.5567  1.6781  0.6460
17204TIP3   OH273026   3.177   6.704   2.052 -0.0736 -0.1278  1.1263
17204TIP3    H173027   3.239   6.758   2.101 -1.0918 -1.0659  3.6667
17204TIP3    H273028   3.091   6.729   2.087 -0.8628 -0.8959 -0.1832
17205TIP3   OH273029   3.856   4.952   5.149 -0.2170  0.2025 -0.3635
17205TIP3    H173030   3.778   4.922   5.196  0.3182 -1.3090 -0.3772
17205TIP3    H273031   3.926   4.947   5.214 -0.0457  1.2222 -0.4510
17206TIP3   OH273032   0.824   2.045  11.607  0.3740 -0.6607  0.2943
17206TIP3    H173033   0.840   1.952  11.593  2.5038 -0.5192  1.3478
17206TIP3    H273034   0.764   2.049  11.681  0.9870 -1.1927  0.8271
17207TIP3   OH273035   0.964   1.387  12.041 -0.4883  0.7153 -0.5002
17207TIP3    H173036   0.983   1.296  12.021 -2.2745 -0.2896  1.9394
17207TIP3    H273037   1.009   1.404  12.123 -2.2917  1.1529  0.4530
17208TIP3   OH273038   4.044   6.251   1.652  0.3550  0.7684  0.6562
17208TIP3    H173039   4.056   6.158   1.672  2.0128  0.9709  0.7746
17208TIP3    H273040   4.064   6.296   1.734 -0.6585  1.2367  0.6626
17209TIP3   OH273041   6.648   2.560   2.321 -0.2067  0.1046 -0.2020
17209TIP3    H173042   6.596   2.632   2.285 -0.2719  0.6385  0.8947
17209TIP3    H273043   6.584   2.503   2.364 -0.0013  0.2431  0.2990
17210TIP3   OH273044   3.218   4.701  14.351 -0.0648 -0.0735 -0.1555
17210TIP3    H173045   3.238   4.756  14.276  0.3246 -1.8274 -1.4165
17210TIP3    H273046   3.298   4.650  14.364 -0.0376  0.3811  1.6469
17211TIP3   OH273047   5.857   2.595  12.515  0.4367 -0.1491  0.0054
17211TIP3    H173048   5.943   2.635  12.506  0.9282 -1.2260 -0.3543
17211TIP3    H273049   5.875   2.507  12.549 -0.4410 -0.6900 -0.8533
17212TIP3   OH273050   3.156   5.771   4.807 -0.2626 -0.2273 -0.5628
17212TIP3    H173051   3.074   5.750   4.853  0.2127  0.6161  0.7396
17212TIP3    H273052   3.183   5.855   4.844  1.7573 -1.0039 -0.1587
17213TIP3   OH273053   5.543   2.787   2.308  0.5260  0.8757  0.0631
17213TIP3    H173054   5.604   2.851   2.345 -1.4619  2.8923  0.0049
17213TIP3    H273055   5.476   2.839   2.265 -0.8491 -1.2872 -0.5574
17214TIP3   OH273056   0.946   3.708  13.011  0.3165 -0.3367  0.1125
17214TIP3    H173057   0.956   3.750  12.926  1.4328 -1.8689 -0.5555
17214TIP3    H273058   1.029   3.723  13.056  0.9520 -2.1735 -0.3482
17215TIP3   OH273059   2.459   0.920  10.984  0.6008 -1.0119 -0.6569
17215TIP3    H173060   2.466   1.012  10.961  1.2736 -0.7126  0.6342
17215TIP3    H273061   2.372   0.894  10.954  0.0569  0.2739 -0.2681
17216TIP3   OH273062   3.991   6.432  15.555 -0.5047  0.2890 -0.4134
17216TIP3    H173063   4.030   6.513  15.524  0.1192  0.0751 -0.2084
17216TIP3    H273064   3.972   6.382  15.476  0.5815 -0.0279 -0.4876
17217TIP3   OH273065   2.284   0.600   0.496 -0.3992  0.6598  0.3015
17217TIP3    H173066   2.257   0.665   0.430 -1.7933  0.5423  0.7097
17217TIP3    H273067   2.202   0.576   0.540  0.4929  0.8353  2.1688
17218TIP3   OH273068   0.197   0.251  12.081  0.4661 -0.2814 -0.5856
17218TIP3    H173069   0.141   0.241  12.003  1.4443  1.2665 -1.5537
17218TIP3    H273070   0.173   0.178  12.137 -1.8455 -0.2341 -1.3695
17219TIP3   OH273071   1.624   3.235   1.400  0.3589  0.1471 -0.4697
17219TIP3    H173072   1.562   3.288   1.450 -1.0535 -1.4973 -0.3722
17219TIP3    H273073   1.709   3.256   1.438 -0.4209  0.6407  1.1100
17220TIP3   OH273074   2.583   2.503   2.452  0.4133 -0.3829 -0.2757
17220TIP3    H173075   2.597   2.486   2.545  2.0845 -0.5772 -0.5378
17220TIP3    H273076   2.540   2.589   2.449  1.9769  0.4666  0.6225
17221TIP3   OH273077   5.267   1.862  11.545 -0.6921  0.7819 -0.3393
17221TIP3    H173078   5.218   1.933  11.586 -3.7287 -2.1302  1.6959
17221TIP3    H273079   5.206   1.824  11.481  0.6961 -0.1768 -1.1540
17222TIP3   OH273080   4.649   1.799   6.350  0.5505 -0.0853 -0.1219
17222TIP3    H173081   4.734   1.804   6.307  1.1452 -0.0351  1.0230
17222TIP3    H273082   4.659   1.852   6.429 -0.3088 -0.6878  0.4046
17223TIP3   OH273083   3.911   6.018  13.898 -0.2065  0.5981 -0.0161
17223TIP3    H173084   4.000   6.006  13.863 -0.8230  0.6820 -1.7026
17223TIP3    H273085   3.875   5.929  13.901 -0.9357  0.7871 -1.8605
17224TIP3   OH273086   1.875   1.759   2.257  0.7915 -0.0667  0.2301
17224TIP3    H173087   1.784   1.781   2.240  0.3816 -1.3065  0.7054
17224TIP3    H273088   1.885   1.669   2.226  2.2873  0.5772 -1.2799
17225TIP3   OH273089   3.345   2.008   4.350  0.5406  0.0305  0.0632
17225TIP3    H173090   3.262   1.968   4.375  0.4064 -1.3512 -2.2828
17225TIP3    H273091   3.335   2.101   4.372 -0.5870 -0.5316  2.1831
17226TIP3   OH273092   3.394   6.267   2.779 -0.2315 -0.4505  0.8657
17226TIP3    H173093   3.414   6.266   2.686 -1.0931 -1.2392  0.6749
17226TIP3    H273094   3.476   6.294   2.821  0.4175 -0.9471 -0.0516
17227TIP3   OH273095   5.242   2.987  12.011 -0.6378 -0.0891  0.0064
17227TIP3    H173096   5.169   2.929  11.987  0.2883 -1.7310  0.9707
17227TIP3    H273097   5.287   3.005  11.928 -1.4225 -0.0546 -0.4215
17228TIP3   OH273098   1.483   0.714  16.090  0.3126  0.2748  0.5771
17228TIP3    H173099   1.505   0.806  16.104  0.6635  0.1651  0.7468
17228TIP3    H273100   1.514   0.670  16.169  2.3944 -0.3771 -0.5316
17229TIP3   OH273101   3.602   2.108  15.903  0.1656  0.1514 -0.5341
17229TIP3    H173102   3.525   2.102  15.960  0.3053 -0.9045 -0.4448
17229TIP3    H273103   3.601   2.028  15.851  2.0963 -0.7097  0.6298
17230TIP3   OH273104   2.904   3.635  14.702  0.1511 -0.5269 -0.2556
17230TIP3    H173105   2.898   3.678  14.617  1.2643  2.0377  0.8708
17230TIP3    H273106   2.887   3.704  14.766  1.5035 -1.8465  1.6577
17231TIP3   OH273107   6.124   6.548  12.756  0.9500 -0.2614 -0.1377
17231TIP3    H173108   6.148   6.455  12.764  1.7096 -0.5309 -4.0017
17231TIP3    H273109   6.144   6.571  12.666 -1.6717  3.0161 -0.0748
17232TIP3   OH273110   3.071   3.294  16.593  0.2173 -0.1276 -0.1002
17232TIP3    H173111   3.115   3.354  16.533  0.0855  0.1005  0.0292
17232TIP3    H273112   3.142   3.241  16.631  0.6513  1.5287  1.5832
17233TIP3   OH273113   0.348   4.940   1.842 -0.3582  0.5229  1.1444
17233TIP3    H173114   0.355   5.024   1.885  0.6271  0.2742  1.5042
17233TIP3    H273115   0.317   4.960   1.754 -2.0617  1.0627  1.8249
17234TIP3   OH273116   3.023   2.316   3.199 -0.1063 -0.4752 -0.1877
17234TIP3    H173117   3.053   2.232   3.234  0.1016  0.1471  1.1880
17234TIP3    H273118   3.078   2.381   3.242 -0.5578  0.4085 -0.9021
17235TIP3   OH273119   1.983   6.503  16.403 -0.0914 -0.2453 -0.5542
17235TIP3    H173120   2.029   6.548  16.332 -1.0603  0.4379 -0.7655
17235TIP3    H273121   2.012   6.549  16.483  0.0192 -0.1758 -0.6336
17236TIP3   OH273122   3.520   0.802  12.003  0.3334 -0.2579 -0.2954
17236TIP3    H173123   3.605   0.801  12.048  0.3206 -0.7870 -0.2723
17236TIP3    H273124   3.456   0.782  12.071 -0.0660  2.1780  0.1393
17237TIP3   OH273125   4.519   3.139  12.451  0.4739  0.1045  0.2497
17237TIP3    H173126   4.430   3.133  12.415  0.3920  1.1696  0.2121
17237TIP3    H273127   4.536   3.054  12.489 -1.4399  0.5504  2.2901
17238TIP3   OH273128   3.243   6.343   3.475  0.7062 -0.0303 -0.0804
17238TIP3    H173129   3.229   6.337   3.570  1.1285 -0.4638 -0.0405
17238TIP3    H273130   3.168   6.299   3.437  1.3425 -1.3253  0.1022
17239TIP3   OH273131   0.334   3.108  16.275 -0.3605 -0.4525  0.2801
17239TIP3    H173132   0.411   3.085  16.328  0.9292  0.6686 -0.9852
17239TIP3    H273133   0.366   3.178  16.217 -2.2913 -0.1327 -0.4654
17240TIP3   OH273134   2.197   0.642   5.816 -0.3656  0.3519 -0.1870
17240TIP3    H173135   2.164   0.712   5.872 -0.8469 -0.5817  0.7274
17240TIP3    H273136   2.228   0.574   5.876  0.0883 -0.2362 -1.0465
17241TIP3   OH273137   1.486   1.562   0.906  0.5757 -0.5128 -0.0994
17241TIP3    H173138   1.506   1.604   0.822  2.1211  1.6085  1.2455
17241TIP3    H273139   1.570   1.561   0.953 -0.3724 -1.0796  1.6721
17242TIP3   OH273140   5.145   6.481   4.528  0.2064 -0.0390 -0.3816
17242TIP3    H173141   5.060   6.441   4.509  0.7100 -1.1263 -0.4163
17242TIP3    H273142   5.127   6.542   4.600 -0.7622  0.4203 -0.9912
17243TIP3   OH273143   0.509   0.040  15.695  0.0792  0.0984  0.8057
17243TIP3    H173144   0.429   0.013  15.740  0.8053 -1.2965  1.3234
17243TIP3    H273145   0.578   0.027  15.759  0.6063  2.7083  0.8704
17244TIP3   OH273146   2.082   2.383  15.368  0.1840 -0.3663 -0.0134
17244TIP3    H173147   2.133   2.314  15.325  1.1324  1.0064 -1.1993
17244TIP3    H273148   2.044   2.341  15.444  0.7965 -2.1752 -0.6556
17245TIP3   OH273149   4.127   1.078   6.041  0.3766 -0.1407 -0.0854
17245TIP3    H173150   4.222   1.084   6.044  0.3620 -0.5179  1.7074
17245TIP3    H273151   4.102   1.139   5.971  1.9090  0.0568 -0.4965
17246TIP3   OH273152   5.080   4.719   5.586 -0.5110  0.3851 -0.1412
17246TIP3    H173153   5.164   4.674   5.590 -2.3920 -3.6578 -1.5447
17246TIP3    H273154   5.094   4.791   5.524  2.1372  0.6950  0.6724
17247TIP3   OH273155   4.350   4.401   3.464 -0.5772 -0.5069 -0.2770
17247TIP3    H173156   4.290   4.409   3.390  0.0677  2.0178 -0.6157
17247TIP3    H273157   4.437   4.403   3.425 -0.2451 -0.1128  0.4649
17248TIP3   OH273158   4.366   4.661  15.738 -0.2822 -0.1859 -0.4017
17248TIP3    H173159   4.307   4.655  15.663 -0.3318 -2.0957 -0.2491
17248TIP3    H273160   4.314   4.629  15.812  0.6739 -1.1381 -0.1200
17249TIP3   OH273161   3.007   1.046  15.773 -0.3782  0.5313  0.0666
17249TIP3    H173162   3.093   1.007  15.790 -0.9974 -0.5302  0.8890
17249TIP3    H273163   3.014   1.081  15.684  0.3990 -0.9842 -0.5052
17250TIP3   OH273164   1.204   6.676   5.685 -0.2223  0.0662  0.4252
17250TIP3    H173165   1.148   6.616   5.734 -0.3835  0.4064  0.6638
17250TIP3    H273166   1.144   6.738   5.644 -0.0356  0.3486  0.5686
17251TIP3   OH273167   4.064   6.571  13.092 -0.2228 -0.2547  0.0741
17251TIP3    H173168   4.152   6.570  13.055  0.0304  1.7719  0.4683
17251TIP3    H273169   4.010   6.525  13.028  0.6434  0.9481 -1.6071
17252TIP3   OH273170   2.740   4.548  12.868 -0.2828 -0.0819 -0.1415
17252TIP3    H173171   2.711   4.614  12.805 -0.8045 -1.0488 -0.9330
17252TIP3    H273172   2.752   4.469  12.816  1.3047 -0.3768  0.6123
17253TIP3   OH273173   4.186   5.704  13.543  0.1390  0.0697  0.3610
17253TIP3    H173174   4.189   5.767  13.616 -1.7512  1.7862 -0.9011
17253TIP3    H273175   4.105   5.655  13.558 -0.2439  0.4120 -0.5126
17254TIP3   OH273176   3.791   4.566  14.508  0.3719  0.4411  0.0251
17254TIP3    H173177   3.843   4.531  14.580  1.0952 -0.9907 -1.1439
17254TIP3    H273178   3.800   4.661  14.516  0.3838  0.3132  1.8316
17255TIP3   OH273179   4.004   3.766   2.660 -0.6708 -0.1243  0.6667
17255TIP3    H173180   3.967   3.825   2.594  1.8812  0.8031 -0.0703
17255TIP3    H273181   3.940   3.695   2.668 -2.6385  1.4346 -0.2988
17256TIP3   OH273182   4.855   4.758  14.062  0.6340  1.3122  0.3206
17256TIP3    H173183   4.884   4.827  14.001  0.3572  1.4085  0.2953
17256TIP3    H273184   4.824   4.806  14.138 -1.6339  1.3564 -0.5429
17257TIP3   OH273185   5.268   3.262   6.925  0.5558  0.1230 -0.7862
17257TIP3    H173186   5.315   3.237   7.005 -1.6004  0.5909  0.7293
17257TIP3    H273187   5.176   3.267   6.952 -0.1015  1.6151 -2.9945
17258TIP3   OH273188   3.102   2.496  11.941 -0.2330 -0.3726 -0.2142
17258TIP3    H173189   3.182   2.483  11.890 -0.7356 -0.8907 -0.8968
17258TIP3    H273190   3.129   2.487  12.032  1.1154  2.6793 -0.1924
17259TIP3   OH273191   1.467   3.940   4.580 -0.0310 -0.1638 -0.4741
17259TIP3    H173192   1.375   3.918   4.595  0.1187 -0.4627  0.0156
17259TIP3    H273193   1.509   3.856   4.559  0.0514  0.0299 -1.1098
17260TIP3   OH273194   1.114   0.621  17.148 -0.0229  0.5554  0.3464
17260TIP3    H173195   1.106   0.615  17.053  0.0678  0.8384  0.3199
17260TIP3    H273196   1.079   0.538  17.180 -0.5168  0.6605  0.0923
17261TIP3   OH273197   5.890   1.674   6.023 -0.5727 -0.1053 -0.3548
17261TIP3    H173198   5.908   1.734   6.095 -1.4276 -1.1188  0.7337
17261TIP3    H273199   5.841   1.726   5.960  0.7714  0.9841 -0.5436
17262TIP3   OH273200   1.769   0.968  15.036  0.3992  0.3425  0.5260
17262TIP3    H173201   1.676   0.988  15.029  0.3039 -0.4980 -1.7017
17262TIP3    H273202   1.780   0.934  15.124 -1.5415 -0.1217  0.6405
17263TIP3   OH273203   0.091   2.960   7.060  0.2752 -0.5103  0.1451
17263TIP3    H173204   0.048   2.965   7.146 -1.1110  0.9987 -0.5708
17263TIP3    H273205   0.146   3.038   7.057 -1.5647  0.8375 -1.2135
17264TIP3   OH273206   2.939   3.357   3.044 -0.2160  0.2121 -0.2396
17264TIP3    H173207   2.887   3.278   3.058 -3.1166  2.2333  1.4197
17264TIP3    H273208   2.879   3.418   3.002  1.4037  2.1043  0.0537
17265TIP3   OH273209   1.783   5.373   2.566  0.4602 -0.5052  0.5926
17265TIP3    H173210   1.795   5.463   2.535  0.4394 -0.1918  1.4538
17265TIP3    H273211   1.795   5.318   2.489 -1.2805  0.3480 -0.3376
17266TIP3   OH273212   2.876   0.197   1.327 -0.5155 -0.1830  0.1154
17266TIP3    H173213   2.922   0.137   1.268 -0.3588 -1.2947  1.3308
17266TIP3    H273214   2.945   0.252   1.363 -0.6705  0.8328 -1.0723
17267TIP3   OH273215   3.879   5.193  17.087 -0.7076 -0.2013 -0.5699
17267TIP3    H173216   3.967   5.156  17.079 -1.5305 -2.4022 -0.2019
17267TIP3    H273217   3.825   5.137  17.031 -2.1880 -0.1158  0.7126
17268TIP3   OH273218   3.838   3.401   4.160 -0.3650 -0.1882  0.0745
17268TIP3    H173219   3.754   3.355   4.162  0.3354 -1.4712  1.8341
17268TIP3    H273220   3.850   3.433   4.250  0.1823  1.6311 -0.5934
17269TIP3   OH273221   3.819   3.132   2.826 -0.4041  0.0593 -0.4242
17269TIP3    H173222   3.874   3.055   2.841  0.1602  0.6236  0.4732
17269TIP3    H273223   3.819   3.178   2.910 -1.4818  0.5668 -0.6871
17270TIP3   OH273224   1.908   2.021  14.589 -0.3204  0.7107 -0.1899
17270TIP3    H173225   1.822   2.054  14.561  0.0350 -0.2400 -2.6700
17270TIP3    H273226   1.888   1.938  14.632 -0.7656  1.4389  1.0579
17271TIP3   OH273227   1.729   3.028   0.694  0.0735 -0.5959 -0.5742
17271TIP3    H173228   1.637   3.047   0.713 -0.0026 -0.4696 -1.0541
17271TIP3    H273229   1.778   3.087   0.752 -0.1533 -0.2498 -0.7284
17272TIP3   OH273230   4.893   4.797  15.309  0.5009  0.6594 -0.0616
17272TIP3    H173231   4.885   4.889  15.285 -0.6523  0.5246 -0.2851
17272TIP3    H273232   4.877   4.749  15.227  1.9902  0.2524 -0.1496
17273TIP3   OH273233   5.414   1.066   0.610 -0.2007 -0.2884  0.0235
17273TIP3    H173234   5.348   1.086   0.544 -1.4276 -1.1851  0.9264
17273TIP3    H273235   5.486   1.028   0.561  0.6939  2.7575 -1.2906
17274TIP3   OH273236   0.326   2.463  17.028 -0.3512  0.1075 -0.5174
17274TIP3    H173237   0.272   2.488  16.952 -0.0100  0.6545 -0.5892
17274TIP3    H273238   0.263   2.455  17.100 -0.5358  0.7737 -0.5906
17275TIP3   OH273239   0.988   5.615  12.282  0.1637  0.2020  0.0979
17275TIP3    H173240   1.011   5.522  12.279 -0.3642 -0.0474  2.2693
17275TIP3    H273241   1.058   5.656  12.332  0.2775  0.9497 -0.6536
17276TIP3   OH273242   2.781   6.327   4.008 -0.0966  0.1833 -0.5090
17276TIP3    H173243   2.822   6.268   4.071  0.2122  1.0032  0.0779
17276TIP3    H273244   2.689   6.331   4.035  0.1358  0.9362  0.2410
17277TIP3   OH273245   6.334   3.874  11.394  0.3869 -0.8097 -0.3300
17277TIP3    H173246   6.334   3.817  11.317  1.1454 -0.2958 -0.7235
17277TIP3    H273247   6.241   3.885  11.415  0.2055 -1.6445 -0.6484
17278TIP3   OH273248   0.739   5.578  15.166 -0.4609  0.8189 -0.5164
17278TIP3    H173249   0.664   5.620  15.208 -1.2226 -0.1031 -0.9351
17278TIP3    H273250   0.810   5.642  15.176 -1.1906  1.5418  0.2222
17279TIP3   OH273251   3.126   5.226   1.924 -0.0120  0.0540  0.1044
17279TIP3    H173252   3.069   5.193   1.854 -2.1823  2.1372  0.7278
17279TIP3    H273253   3.117   5.163   1.995 -1.8739  0.4443  0.2830
17280TIP3   OH273254   5.312   6.351  11.153  0.3252 -0.2296  0.0080
17280TIP3    H173255   5.405   6.362  11.130 -0.4891  1.3961 -2.9409
17280TIP3    H273256   5.274   6.306  11.078 -1.7604  1.5031 -0.0571
17281TIP3   OH273257   5.541   1.052   2.763  0.1569  0.1103 -0.4096
17281TIP3    H173258   5.524   1.142   2.789  0.6981  0.1469 -0.1607
17281TIP3    H273259   5.512   0.999   2.838  0.4359  0.1252 -0.2878
17282TIP3   OH273260   6.074   1.793   5.368 -0.1425 -0.0070  0.1468
17282TIP3    H173261   6.148   1.830   5.417  0.2493 -1.2990  0.5897
17282TIP3    H273262   6.106   1.787   5.277 -0.2222  0.7422  0.0665
17283TIP3   OH273263   2.788   1.337   5.339  0.0775  0.2348  0.7224
17283TIP3    H173264   2.785   1.262   5.399 -1.3971 -0.0464  0.3297
17283TIP3    H273265   2.726   1.314   5.269 -0.2021  1.7115  0.4652
17284TIP3   OH273266   4.810   3.554  15.080 -0.3412  0.1065 -0.2427
17284TIP3    H173267   4.756   3.602  15.017  0.1517 -1.1386 -1.6509
17284TIP3    H273268   4.786   3.462  15.068 -0.2013 -0.1812  1.3766
17285TIP3   OH273269   5.166   2.430  12.099  0.1919 -0.1414 -0.0273
17285TIP3    H173270   5.156   2.521  12.128  1.0357  0.3410 -1.1537
17285TIP3    H273271   5.157   2.378  12.178  2.4116  1.1175  1.1615
17286TIP3   OH273272   2.190   0.521  14.971 -0.0365 -0.3736 -0.1723
17286TIP3    H173273   2.226   0.609  14.960 -3.5511  1.1265 -1.2193
17286TIP3    H273274   2.252   0.464  14.926  1.9359  1.6345 -0.1987
17287TIP3   OH273275   4.506   0.104  15.259  0.5201 -0.2903 -0.1097
17287TIP3    H173276   4.569   0.046  15.217  1.3035  1.5730 -1.6449
17287TIP3    H273277   4.504   0.182  15.204 -1.8089  0.4560  0.8897
17288TIP3   OH273278   3.552   3.887  11.159 -0.3498  0.0462 -0.3619
17288TIP3    H173279   3.505   3.955  11.111 -0.1721 -0.0105 -0.6155
17288TIP3    H273280   3.537   3.807  11.108  0.0143  0.0264 -0.4372
17289TIP3   OH273281   4.792   3.390  15.866 -0.0552 -0.3348  0.0204
17289TIP3    H173282   4.702   3.371  15.891 -0.1047 -0.4738 -0.2553
17289TIP3    H273283   4.784   3.443  15.787  0.0820  0.7004  0.6790
17290TIP3   OH273284   0.006   3.162  16.830 -0.4900  0.1402  0.6511
17290TIP3    H173285  -0.033   3.217  16.762  0.3607  1.0803  0.9040
17290TIP3    H273286   0.084   3.210  16.858 -1.6521  0.6290  3.4619
17291TIP3   OH273287   2.071   3.875   5.083  0.4048 -0.4859  0.6107
17291TIP3    H173288   2.001   3.889   5.147  1.5330  1.4020  1.5098
17291TIP3    H273289   2.077   3.958   5.035 -0.0205 -1.6539 -1.6162
17292TIP3   OH273290   2.543   6.012  12.951 -0.4603  0.8729  0.5704
17292TIP3    H173291   2.549   6.054  13.037  0.9840  1.2149  0.3166
17292TIP3    H273292   2.485   6.070  12.900  0.5913  1.9781  0.5851
17293TIP3   OH273293   6.397   0.166   3.470 -0.0074 -0.3528  0.3044
17293TIP3    H173294   6.359   0.254   3.461  0.2633 -0.1732  0.9067
17293TIP3    H273295   6.484   0.174   3.430  0.1456 -0.2615  0.6580
17294TIP3   OH273296   0.043   2.197  13.351 -0.2343 -0.0306  0.4949
17294TIP3    H173297   0.057   2.139  13.277 -0.9562 -1.6625  1.5745
17294TIP3    H273298   0.126   2.242  13.363  0.2735 -0.6686 -0.5043
17295TIP3   OH273299   0.999   6.320   3.849 -0.0722 -0.1792 -0.5026
17295TIP3    H173300   1.078   6.373   3.841 -1.0904  1.3484 -0.9644
17295TIP3    H273301   0.940   6.373   3.903 -0.2337 -1.9972  1.1981
17296TIP3   OH273302   5.248   0.997  15.828  0.0706 -0.5166 -0.4268
17296TIP3    H173303   5.260   1.042  15.744  0.3765 -1.6394 -1.0074
17296TIP3    H273304   5.208   0.914  15.805  1.0216 -1.2393  0.4454
17297TIP3   OH273305   3.688   5.632   2.737 -0.7372  0.4703 -0.9045
17297TIP3    H173306   3.595   5.613   2.732 -0.6185 -0.1451 -0.9305
17297TIP3    H273307   3.693   5.721   2.772 -1.3500  0.8875 -1.8222
17298TIP3   OH273308   1.925   6.599  12.892  0.6280  0.4961  0.0977
17298TIP3    H173309   1.885   6.518  12.925 -0.4237  0.5652 -0.9091
17298TIP3    H273310   1.993   6.620  12.955  1.3012 -1.4813  0.1033
17299TIP3   OH273311   5.554   1.296  12.463  0.2051 -1.0884  0.3754
17299TIP3    H173312   5.503   1.320  12.540  0.7821  0.9988  0.1480
17299TIP3    H273313   5.636   1.260  12.498  1.9269  2.8511  0.9480
17300TIP3   OH273314   3.298   6.446  16.551 -0.0884 -0.3370  0.3846
17300TIP3    H173315   3.317   6.498  16.629 -0.0535  0.0543  0.1198
17300TIP3    H273316   3.381   6.440  16.505 -0.0162 -0.9298  0.5888
17301TIP3   OH273317   3.026   4.336   4.588 -0.1201  0.4028  0.4906
17301TIP3    H173318   2.984   4.381   4.516 -0.0242  2.4009  1.6156
17301TIP3    H273319   2.958   4.278   4.624 -0.6704  0.6586 -0.1326
17302TIP3   OH273320   3.260   1.727   4.521 -0.1045 -0.6668  0.5045
17302TIP3    H173321   3.338   1.776   4.548 -0.2489  0.0781 -0.3558
17302TIP3    H273322   3.292   1.640   4.500  0.6124 -0.2171 -0.3585
17303TIP3   OH273323   6.441   5.242  13.150 -0.3671 -0.1229  0.3398
17303TIP3    H173324   6.406   5.330  13.168  0.0966  0.5053 -1.5553
17303TIP3    H273325   6.497   5.222  13.224 -2.0654  0.2898  1.8070
17304TIP3   OH273326   1.463   2.470  13.641  0.6811 -0.0951  0.0182
17304TIP3    H173327   1.416   2.522  13.706  1.8904 -0.3122  1.1012
17304TIP3    H273328   1.416   2.387  13.638  0.5438 -0.0394  0.5257
17305TIP3   OH273329   2.107   0.090   0.749 -0.3036  0.0104 -0.0659
17305TIP3    H173330   2.166   0.086   0.674 -0.3330  1.1360 -0.1617
17305TIP3    H273331   2.020   0.088   0.711 -0.3204  0.1637 -0.0350
17306TIP3   OH273332   0.870   3.084  12.582  0.3231 -1.0637  0.0706
17306TIP3    H173333   0.798   3.125  12.630  0.7775 -1.1392  0.8432
17306TIP3    H273334   0.830   3.012  12.535 -0.1544 -0.9357  0.2747
17307TIP3   OH273335   4.448   1.526  15.427 -0.2149 -0.1606  0.3486
17307TIP3    H173336   4.406   1.446  15.457 -0.0127  0.0200  1.1405
17307TIP3    H273337   4.526   1.535  15.482 -0.6302  0.9697  0.7971
17308TIP3   OH273338   3.368   0.819  17.507  0.6111  0.7251 -0.2946
17308TIP3    H173339   3.425   0.849  17.437 -0.9721 -0.4550 -2.1933
17308TIP3    H273340   3.354   0.726  17.489 -1.6927  0.8996  0.2177
17309TIP3   OH273341   4.126   0.076   4.006  0.6745  0.3727 -0.4248
17309TIP3    H173342   4.052   0.035   3.961 -0.2612  0.9702  0.4958
17309TIP3    H273343   4.097   0.082   4.097  2.4234 -0.6294  0.2517
17310TIP3   OH273344   5.754   2.160  13.109 -0.4360  0.4055 -0.4512
17310TIP3    H173345   5.713   2.186  13.026 -2.5563 -0.1249  0.3549
17310TIP3    H273346   5.714   2.075  13.129  0.8884 -0.0040  0.5734
17311TIP3   OH273347   2.896   5.129  12.192 -0.1075 -0.1600 -0.6982
17311TIP3    H173348   2.919   5.205  12.245 -0.5952  0.2416 -1.0571
17311TIP3    H273349   2.827   5.160  12.134  0.6712 -0.5075 -1.8311
17312TIP3   OH273350   1.270   3.844  12.848  0.0278  0.1190 -0.3399
17312TIP3    H173351   1.198   3.907  12.838 -0.1275 -0.2715 -2.1020
17312TIP3    H273352   1.347   3.898  12.865 -0.2301  0.7636 -1.1328
17313TIP3   OH273353   3.685   5.664   1.423  0.2169  0.2416 -0.2252
17313TIP3    H173354   3.617   5.650   1.488  1.3414  0.7593  1.1158
17313TIP3    H273355   3.638   5.678   1.341 -1.1819 -2.1879  0.0888
17314TIP3   OH273356   1.922   3.202   2.129 -1.0331  0.1938 -0.0075
17314TIP3    H173357   1.933   3.122   2.077  0.0874  0.4980 -0.2550
17314TIP3    H273358   1.936   3.174   2.219 -0.0810  0.1983 -0.1412
17315TIP3   OH273359   0.851   6.586  12.160 -0.2030 -0.1453 -0.6350
17315TIP3    H173360   0.927   6.567  12.215  0.4707  0.6861 -1.2472
17315TIP3    H273361   0.781   6.607  12.222  0.5359  0.7484 -0.0801
17316TIP3   OH273362   1.820   2.439   2.612  0.7326 -0.1412  0.2452
17316TIP3    H173363   1.849   2.464   2.699  1.1931 -0.1679  0.1022
17316TIP3    H273364   1.824   2.343   2.612  0.8688 -0.1361  0.1511
17317TIP3   OH273365   6.392   2.915  13.067 -0.2712  0.4519 -0.1518
17317TIP3    H173366   6.411   2.934  12.975 -1.0247 -0.1699 -0.4522
17317TIP3    H273367   6.316   2.856  13.063 -0.1042  0.1653  0.8562
17318TIP3   OH273368   2.623   0.012   3.690 -0.2497 -0.1421 -0.4300
17318TIP3    H173369   2.709   0.030   3.651 -0.2463  0.9184  0.0219
17318TIP3    H273370   2.561   0.060   3.636 -0.5467 -0.7990 -0.6756
17319TIP3   OH273371   6.289   1.413  14.671 -0.0006  0.7385 -0.1009
17319TIP3    H173372   6.360   1.439  14.730 -0.0468  0.2195  0.1909
17319TIP3    H273373   6.258   1.329  14.706 -1.6238  1.5474  0.5594
17320TIP3   OH273374   5.200   0.682   6.656  0.3582 -0.7567  0.0470
17320TIP3    H173375   5.105   0.689   6.663  0.5453  1.9196  0.8585
17320TIP3    H273376   5.222   0.610   6.715 -1.0733 -0.7504  0.6426
17321TIP3   OH273377   2.589   3.862   0.178  0.2528 -0.6709 -0.1265
17321TIP3    H173378   2.544   3.790   0.134  0.4434 -0.7885 -0.1292
17321TIP3    H273379   2.522   3.930   0.189 -0.2097 -1.2599  0.8400
17322TIP3   OH273380   3.752   3.560  15.986 -0.4302  0.1306 -0.4812
17322TIP3    H173381   3.696   3.638  15.988  0.8874  1.2168 -2.3230
17322TIP3    H273382   3.839   3.593  15.963  0.0684 -1.9025 -1.8695
17323TIP3   OH273383   0.334   3.719   6.105  0.6669  0.7017  0.1892
17323TIP3    H173384   0.256   3.732   6.159  0.1319  0.2585 -0.4528
17323TIP3    H273385   0.394   3.789   6.131  1.0961 -0.4561  2.5048
17324TIP3   OH273386   2.619   0.325   6.133  0.2468  0.7326  0.1598
17324TIP3    H173387   2.690   0.285   6.184 -2.2880 -2.9293  1.1440
17324TIP3    H273388   2.590   0.399   6.186  0.3263 -0.5595  2.0861
17325TIP3   OH273389   4.210   1.709   3.310 -0.4248  0.4603  0.3678
17325TIP3    H173390   4.144   1.776   3.329 -1.4395 -0.1193 -0.9353
17325TIP3    H273391   4.237   1.728   3.220 -1.0569 -1.1258 -0.1857
17326TIP3   OH273392   2.272   1.683  14.015 -0.2752  0.2188  0.2050
17326TIP3    H173393   2.178   1.696  14.000 -0.1079  1.0271 -0.2394
17326TIP3    H273394   2.285   1.701  14.108 -0.6872 -0.7289  0.4527
17327TIP3   OH273395   2.817   4.510  13.133 -0.9670  0.5098  0.1938
17327TIP3    H173396   2.881   4.581  13.146  1.8096 -1.2136 -2.5452
17327TIP3    H273397   2.782   4.526  13.045 -0.3131 -1.3903 -0.4585
17328TIP3   OH273398   0.282   2.450   0.688 -0.3927  0.3725 -0.3291
17328TIP3    H173399   0.220   2.521   0.700 -1.4490 -0.8174  2.0420
17328TIP3    H273400   0.231   2.379   0.649  0.0684  0.1475 -0.5367
17329TIP3   OH273401   6.066   4.129   6.256  0.5282 -0.4751 -0.0897
17329TIP3    H173402   6.107   4.042   6.260 -0.0312 -0.7016  0.9242
17329TIP3    H273403   6.049   4.152   6.347 -2.2695 -0.7057 -0.4596
17330TIP3   OH273404   0.556   2.896   0.669 -0.1055 -0.2249 -0.0630
17330TIP3    H173405   0.489   2.934   0.612 -0.3794 -0.2212  0.2624
17330TIP3    H273406   0.510   2.874   0.750  0.2381 -0.4312  0.0799
17331TIP3   OH273407   5.120   4.226   1.706 -0.1330  1.0923  0.2759
17331TIP3    H173408   5.068   4.249   1.629  0.3429  1.6142  0.1062
17331TIP3    H273409   5.181   4.299   1.717  2.5926 -0.7695 -1.2829
17332TIP3   OH273410   4.937   3.445   5.868 -0.0085  0.1317 -0.2536
17332TIP3    H173411   5.017   3.407   5.833 -1.9304 -1.7067 -3.1478
17332TIP3    H273412   4.917   3.518   5.809 -0.8132  0.0954 -0.0431
17333TIP3   OH273413   2.134   6.533  12.360 -0.8687  0.3324  0.5362
17333TIP3    H173414   2.161   6.524  12.451 -2.1834 -2.8511  0.7615
17333TIP3    H273415   2.204   6.490  12.310 -0.4752  1.4718  0.0759
17334TIP3   OH273416   3.592   5.695  11.217 -0.4489 -0.2481  0.0856
17334TIP3    H173417   3.673   5.645  11.214  1.1131  1.9544  2.0686
17334TIP3    H273418   3.581   5.728  11.127  2.8092  2.1620  0.4174
17335TIP3   OH273419   2.742   5.129   3.883 -0.0007 -0.4682 -0.5401
17335TIP3    H173420   2.725   5.216   3.919 -1.8726 -0.8691 -0.3151
17335TIP3    H273421   2.762   5.145   3.791 -2.1967  0.1404 -0.9840
17336TIP3   OH273422   0.542   1.582  16.530 -0.4041  0.2639  0.6740
17336TIP3    H173423   0.476   1.513  16.541  1.6483 -1.6043  2.0179
17336TIP3    H273424   0.525   1.643  16.602 -0.3302 -0.4879  1.3366
17337TIP3   OH273425   3.950   3.061  11.005 -0.2533  0.0718  0.0613
17337TIP3    H173426   3.985   2.973  11.020 -1.8042 -0.2426  2.2671
17337TIP3    H273427   4.010   3.119  11.052 -1.1720 -0.2035  1.6255
17338TIP3   OH273428   3.271   5.760   3.753  0.2013  0.1082 -0.6388
17338TIP3    H173429   3.276   5.688   3.816  0.6011 -0.2503 -1.0699
17338TIP3    H273430   3.357   5.761   3.711  0.1135  0.6753 -0.8173
17339TIP3   OH273431   3.482   3.761   6.173 -0.0751  0.6058  0.4926
17339TIP3    H173432   3.393   3.789   6.153 -0.1902  0.4831  0.8332
17339TIP3    H273433   3.494   3.781   6.266 -0.0412 -0.1429  0.6602
17340TIP3   OH273434   3.299   0.211  14.478  0.5311  0.3405 -0.1761
17340TIP3    H173435   3.375   0.157  14.499  0.4952 -0.1167 -1.1631
17340TIP3    H273436   3.227   0.148  14.469 -0.5902  0.9328  3.1694
17341TIP3   OH273437   1.081   5.095   2.106  0.1977  0.2920  0.4504
17341TIP3    H173438   1.057   5.006   2.080  1.5247 -0.7666  2.5803
17341TIP3    H273439   0.998   5.136   2.131 -0.2885 -0.7905  0.6601
17342TIP3   OH273440   2.644   2.387  13.007  0.4396  0.3245 -0.1357
17342TIP3    H173441   2.638   2.405  12.913  1.4746 -0.2188 -0.3140
17342TIP3    H273442   2.685   2.301  13.012  1.1363  0.7064  0.8406
17343TIP3   OH273443   3.372   5.441   3.530 -0.4413 -0.2785 -0.8200
17343TIP3    H173444   3.279   5.457   3.544 -0.3465 -1.2011  1.1067
17343TIP3    H273445   3.381   5.433   3.435 -2.3398 -0.3617 -1.0224
17344TIP3   OH273446   3.059   4.220  12.513 -0.1042  0.7010 -0.0119
17344TIP3    H173447   3.046   4.171  12.431 -1.4699  1.3485 -0.2176
17344TIP3    H273448   2.993   4.289  12.509 -1.0766 -0.0209  2.2342
17345TIP3   OH273449   5.529   1.967   5.949  0.5178  0.3921  0.1612
17345TIP3    H173450   5.474   1.906   5.899  1.5579  0.8905 -1.6779
17345TIP3    H273451   5.615   1.924   5.953  0.9350  1.1836 -0.0999
17346TIP3   OH273452   0.366   2.389   0.957 -0.3469 -0.4338 -0.1514
17346TIP3    H173453   0.408   2.465   0.997 -0.7614  0.2997 -1.0774
17346TIP3    H273454   0.364   2.409   0.864 -2.9113 -0.3463 -0.1362
17347TIP3   OH273455   1.845   1.958   6.226  0.0096 -0.1596  0.0394
17347TIP3    H173456   1.793   1.947   6.305 -0.4149  0.4943 -0.1350
17347TIP3    H273457   1.910   2.025   6.249 -0.8956  0.9567 -0.5057
17348TIP3   OH273458   1.407   1.509  15.498 -0.5017  0.1213 -0.3709
17348TIP3    H173459   1.419   1.448  15.425 -1.6662 -0.1285 -0.3679
17348TIP3    H273460   1.393   1.594  15.456 -0.6812  0.0641 -0.4272
17349TIP3   OH273461   0.741   5.996   1.731  0.3593  0.1104  0.3197
17349TIP3    H173462   0.693   6.031   1.806 -0.7416  0.1733 -0.4047
17349TIP3    H273463   0.796   5.928   1.769 -2.3424 -1.9558  0.8306
17350TIP3   OH273464   5.333   3.133  14.865  0.0658 -0.0350  0.6976
17350TIP3    H173465   5.343   3.224  14.836 -1.8451 -0.0224 -0.0802
17350TIP3    H273466   5.419   3.109  14.897  1.8834  0.6461 -3.1156
17351TIP3   OH273467   4.583   1.875  14.942 -0.5021  0.6474 -0.0298
17351TIP3    H173468   4.589   1.780  14.943  2.2388  0.7335  1.9053
17351TIP3    H273469   4.657   1.903  14.888 -0.2970  1.6873  0.7627
17352TIP3   OH273470   0.338   4.901   4.215 -0.3886  0.0495  0.0427
17352TIP3    H173471   0.254   4.910   4.259 -1.4653  1.7132 -2.1590
17352TIP3    H273472   0.401   4.940   4.275 -1.0841 -1.3919  1.8068
17353TIP3   OH273473   5.666   2.726  12.659 -0.1457 -0.1232 -0.0618
17353TIP3    H173474   5.741   2.772  12.697 -0.3361 -0.8969  1.2903
17353TIP3    H273475   5.704   2.648  12.617 -0.1032 -0.0706 -0.1214
17354TIP3   OH273476   1.082   4.510  17.377  0.1786 -0.1561 -0.1482
17354TIP3    H173477   1.140   4.448  17.421 -0.5539 -1.2704 -0.7027
17354TIP3    H273478   1.140   4.573  17.335  1.0984 -2.2502 -2.1818
17355TIP3   OH273479   0.772   5.660   3.986  0.1453  0.6008 -0.1410
17355TIP3    H173480   0.708   5.644   4.056  0.8622 -0.8506  0.2110
17355TIP3    H273481   0.854   5.625   4.020  0.8573  1.2792 -1.1096
17356TIP3   OH273482   2.441   5.020   5.439 -0.2861  0.0464 -0.3855
17356TIP3    H173483   2.367   4.960   5.439  0.6108 -1.0916 -0.1048
17356TIP3    H273484   2.484   5.005   5.523 -0.4055  1.5620 -0.0263
17357TIP3   OH273485   2.921   1.809   5.531 -0.4528  0.0625 -0.3743
17357TIP3    H173486   2.921   1.873   5.460  1.7628  0.4282 -0.1275
17357TIP3    H273487   2.913   1.724   5.487  3.4319  0.0537 -1.4885
17358TIP3   OH273488   2.017   3.567  15.605  0.0744 -0.1495  0.1528
17358TIP3    H173489   2.042   3.642  15.551  0.3169 -0.7263 -0.5542
17358TIP3    H273490   2.100   3.525  15.627  0.1081  0.8551  2.1730
17359TIP3   OH273491   6.666   0.152   3.393 -0.0169  0.3745  0.1459
17359TIP3    H173492   6.645   0.115   3.307  0.3207 -0.9841  0.6158
17359TIP3    H273493   6.759   0.171   3.389  0.1706 -0.4485  0.4687
17360TIP3   OH273494   6.396   1.028   4.709  0.6726 -0.0603 -0.0795
17360TIP3    H173495   6.476   1.073   4.681  0.2974  0.1094 -0.9266
17360TIP3    H273496   6.326   1.077   4.666  0.1095 -0.1872  0.6825
17361TIP3   OH273497   0.946   3.104  15.286 -0.6048 -0.2642  0.1020
17361TIP3    H173498   0.952   3.069  15.375  1.1205 -0.3455 -0.0193
17361TIP3    H273499   0.946   3.027  15.229  0.7186 -0.1733 -0.0534
17362TIP3   OH273500   1.408   3.820   5.172 -0.1056 -0.1442 -0.4881
17362TIP3    H173501   1.336   3.864   5.127 -0.0908 -0.4542 -0.8089
17362TIP3    H273502   1.487   3.863   5.139 -0.1895  1.5276  1.2484
17363TIP3   OH273503   4.600   3.615   2.958 -0.1208  0.0642  0.7470
17363TIP3    H173504   4.530   3.598   2.895  0.2199  0.5427  0.2277
17363TIP3    H273505   4.575   3.696   3.002 -0.7378 -0.6649  1.7891
17364TIP3   OH273506   3.136   0.551  11.902  0.4409 -0.0276 -0.0809
17364TIP3    H173507   3.093   0.516  11.824  1.3028  1.0377 -1.0588
17364TIP3    H273508   3.224   0.576  11.873  1.2104 -0.7075  1.5152
17365TIP3   OH273509   4.480   2.641  14.640  0.2722  0.1574  0.1733
17365TIP3    H173510   4.529   2.576  14.590  1.4692  0.6632  0.6391
17365TIP3    H273511   4.390   2.609  14.640  0.7771 -1.3424  0.1296
17366TIP3   OH273512   1.226   6.356   0.354 -0.3123  0.1671 -0.4422
17366TIP3    H173513   1.170   6.404   0.293 -0.1126 -1.7119 -2.1863
17366TIP3    H273514   1.286   6.423   0.388 -2.4298  1.8774  0.1526
17367TIP3   OH273515   5.559   6.509  14.482 -0.1254 -0.1451 -1.1610
17367TIP3    H173516   5.618   6.551  14.418  0.7767  0.3469 -0.0523
17367TIP3    H273517   5.542   6.577  14.546  0.6261 -1.1839  0.1962
17368TIP3   OH273518   3.567   4.881   0.747 -0.0815 -0.0857  0.3497
17368TIP3    H173519   3.576   4.961   0.695 -1.4858  0.5780  1.0671
17368TIP3    H273520   3.643   4.882   0.806 -0.6552  1.3377  1.1257
17369TIP3   OH273521   0.973   2.299  17.020  0.1310  0.7347  0.3946
17369TIP3    H173522   0.999   2.263  17.105  0.8864 -0.5931 -0.3783
17369TIP3    H273523   0.996   2.232  16.956 -2.6581  0.6284 -0.6692
17370TIP3   OH273524   5.977   0.314  11.035  0.0849 -0.3611  0.3484
17370TIP3    H173525   6.040   0.255  10.995 -0.2791 -0.6330  0.1747
17370TIP3    H273526   5.949   0.371  10.963 -2.2871 -2.2994 -0.3862
17371TIP3   OH273527   4.498   1.656  17.624 -0.0798  0.1173  0.3129
17371TIP3    H173528   4.470   1.742  17.591 -1.9269 -1.0041 -1.2644
17371TIP3    H273529   4.451   1.646  17.707  0.7521  0.9275  0.8957
17372TIP3   OH273530   1.205   2.853   7.008  0.4054 -1.0495 -0.0103
17372TIP3    H173531   1.282   2.862   7.065  0.9169  0.0286 -0.8414
17372TIP3    H273532   1.239   2.810   6.930  0.6128  1.0567 -1.1543
17373TIP3   OH273533   2.136   1.530  14.212  0.0310  0.7599 -0.1599
17373TIP3    H173534   2.086   1.529  14.131 -0.7255 -1.1833  0.2648
17373TIP3    H273535   2.070   1.539  14.281  0.3877 -0.1737  0.3287
17374TIP3   OH273536   3.058   3.466   0.569  0.1079  0.1714 -0.4787
17374TIP3    H173537   3.117   3.407   0.522  0.4928  0.9219 -0.9590
17374TIP3    H273538   3.061   3.548   0.519  1.9639  1.6564  1.8300
17375TIP3   OH273539   4.031   1.894  13.637 -0.4085  0.4603 -0.0519
17375TIP3    H173540   4.072   1.917  13.720  1.1854  0.8623 -0.9038
17375TIP3    H273541   3.941   1.925  13.645 -0.6499 -0.6081  1.9570
17376TIP3   OH273542   6.322   6.083   0.033 -0.3030 -0.2103  0.3323
17376TIP3    H173543   6.253   6.042  -0.019 -1.5244 -0.5792  2.1395
17376TIP3    H273544   6.400   6.078  -0.022 -0.9535 -2.8032 -0.4965
17377TIP3   OH273545   5.683   1.731   1.611  0.5571 -0.6007 -0.2859
17377TIP3    H173546   5.690   1.653   1.667  1.8933  0.1565  0.6690
17377TIP3    H273547   5.721   1.704   1.528  0.9062 -1.0092 -0.0016
17378TIP3   OH273548   6.368   2.765  15.123  0.1656 -0.6236 -0.0787
17378TIP3    H173549   6.417   2.739  15.200 -0.5965 -1.0178  0.2849
17378TIP3    H273550   6.290   2.709  15.123 -0.2687 -0.0455 -0.6576
17379TIP3   OH273551   2.474   2.032  11.122  0.2171 -0.5349  0.3123
17379TIP3    H173552   2.418   1.956  11.105  1.4459 -1.3038 -0.4284
17379TIP3    H273553   2.501   2.062  11.035  0.4497  0.2254  0.6410
17380TIP3   OH273554   2.926   2.745   0.136 -0.1225  0.0769  0.1487
17380TIP3    H173555   2.869   2.707   0.069 -0.7917 -0.4476  0.9848
17380TIP3    H273556   2.866   2.775   0.204  0.6026 -1.5619  1.6109
17381TIP3   OH273557   0.379   4.173  16.485 -0.0988  0.3949  0.3055
17381TIP3    H173558   0.302   4.161  16.541  0.4747  0.1334  1.0491
17381TIP3    H273559   0.450   4.131  16.533  0.4194  0.2293 -0.5948
17382TIP3   OH273560   2.927   6.053  14.056 -0.1493  0.2034 -0.6624
17382TIP3    H173561   2.952   6.145  14.043  0.2457  0.3597  0.9974
17382TIP3    H273562   3.001   6.003  14.020  0.5362  0.5952  0.1525
17383TIP3   OH273563   1.077   0.709  15.581  0.0814  0.0734  0.2246
17383TIP3    H173564   1.047   0.743  15.665 -1.8936  1.1008 -0.8310
17383TIP3    H273565   1.067   0.614  15.590  0.7688  0.0890  1.4372
17384TIP3   OH273566   4.747   3.044  11.729  0.2317 -0.0548 -0.7151
17384TIP3    H173567   4.681   2.997  11.780  0.1770 -0.6327 -1.3046
17384TIP3    H273568   4.812   2.977  11.706  0.2116  0.1756 -1.4678
17385TIP3   OH273569   5.359   1.559   3.549 -0.2849  0.5358 -0.0877
17385TIP3    H173570   5.264   1.559   3.544 -0.4940 -0.0340  2.3859
17385TIP3    H273571   5.387   1.503   3.477 -1.6741  2.1078 -1.9438
17386TIP3   OH273572   3.683   0.313   0.908 -0.3382 -0.3093 -0.0329
17386TIP3    H173573   3.733   0.253   0.852 -0.5925 -1.2188  0.6826
17386TIP3    H273574   3.705   0.286   0.997 -0.2937  0.8221  0.3114
17387TIP3   OH273575   1.050   4.100  13.255  0.1309  0.3163 -0.2858
17387TIP3    H173576   0.975   4.115  13.312 -0.0327  1.4344 -0.7712
17387TIP3    H273577   1.017   4.117  13.167  1.1742  1.7459 -0.4307
17388TIP3   OH273578   2.554   0.498  12.844  0.0181 -1.1910  0.3463
17388TIP3    H173579   2.543   0.591  12.865  1.7948 -0.6388 -0.9436
17388TIP3    H273580   2.582   0.458  12.926  0.5251 -0.3314  0.5987
17389TIP3   OH273581   3.802   1.925  12.641 -0.2898  0.6164 -0.2905
17389TIP3    H173582   3.753   1.919  12.723 -0.5333  0.3284 -0.4543
17389TIP3    H273583   3.850   1.842  12.636 -1.4495 -0.0312 -1.1756
17390TIP3   OH273584   3.609   1.850  13.220 -0.2627 -0.7427  0.2880
17390TIP3    H173585   3.670   1.923  13.207 -1.4295 -0.0794 -2.0380
17390TIP3    H273586   3.542   1.885  13.279 -0.5149 -0.0978 -0.3632
17391TIP3   OH273587   4.901   1.618  12.743  0.4711 -0.0617  0.7311
17391TIP3    H173588   4.915   1.655  12.656  1.9405  1.3764  1.5376
17391TIP3    H273589   4.811   1.585  12.740  0.3521  0.2817 -1.1936
17392TIP3   OH273590   0.668   1.116  13.369 -0.5588  0.0170  0.3613
17392TIP3    H173591   0.619   1.195  13.346 -1.4829 -0.9269 -1.0583
17392TIP3    H273592   0.752   1.149  13.403 -1.8685  1.6411  2.2359
17393TIP3   OH273593   4.623   2.931   5.585  0.1068 -0.3788 -0.2815
17393TIP3    H173594   4.547   2.956   5.534  0.5497  0.1281 -0.6970
17393TIP3    H273595   4.656   2.852   5.542  1.2537  0.7688 -1.6186
17394TIP3   OH273596   0.382   6.675  15.119 -0.8369  0.6590 -0.1384
17394TIP3    H173597   0.400   6.581  15.118  1.3802  1.0124 -2.1125
17394TIP3    H273598   0.451   6.712  15.174  0.1483  1.3615 -1.7775
17395TIP3   OH273599   3.319   1.764   1.043 -0.2374 -0.1156 -0.2512
17395TIP3    H173600   3.245   1.809   1.002  0.2485 -0.5111 -1.6177
17395TIP3    H273601   3.395   1.796   0.996  0.4614  0.1057  0.9875
17396TIP3   OH273602   1.106   4.314  13.873 -0.1628 -0.2171  0.5412
17396TIP3    H173603   1.191   4.357  13.866 -0.5449  0.5336  0.4182
17396TIP3    H273604   1.114   4.236  13.818  0.5848 -0.3868  0.8770
17397TIP3   OH273605   2.652   5.227  14.793  0.1266 -0.4868 -0.3860
17397TIP3    H173606   2.657   5.144  14.745 -1.0660 -0.0639 -1.2851
17397TIP3    H273607   2.682   5.205  14.881  0.7641 -1.6502 -0.8655
17398TIP3   OH273608   5.437   2.341   2.228 -0.0826  0.4115 -0.1852
17398TIP3    H173609   5.414   2.344   2.321 -0.2244  1.7300 -0.2390
17398TIP3    H273610   5.354   2.352   2.182 -0.2323 -1.7641 -0.5278
17399TIP3   OH273611   3.635   4.971  12.878 -0.3649 -0.5245  0.4963
17399TIP3    H173612   3.718   5.014  12.858 -0.4087 -0.1673  1.0867
17399TIP3    H273613   3.575   5.042  12.900 -1.0626 -0.7102 -0.6863
17400TIP3   OH273614   4.968   3.969   1.698  0.0412  0.0911  0.1619
17400TIP3    H173615   5.034   3.930   1.641  1.2454  1.7349  0.3625
17400TIP3    H273616   5.007   4.052   1.727 -2.1539  1.1810  0.1944
17401TIP3   OH273617   2.586   6.694  16.547  0.0225 -0.3483 -0.2076
17401TIP3    H173618   2.611   6.782  16.577 -0.7418 -0.5213  0.9959
17401TIP3    H273619   2.642   6.679  16.471  0.7393  0.8591  0.0397
17402TIP3   OH273620   2.150   3.209  14.104 -0.3715 -0.0145 -0.6419
17402TIP3    H173621   2.221   3.273  14.110 -2.0199  1.8275  0.2278
17402TIP3    H273622   2.089   3.247  14.041 -2.5951  0.6319  1.7122
17403TIP3   OH273623   2.108   3.858   4.234 -0.3360  0.4572 -0.3045
17403TIP3    H173624   2.040   3.907   4.280 -0.8801 -2.3573  2.2087
17403TIP3    H273625   2.065   3.776   4.208  1.2308  0.0485 -1.7690
17404TIP3   OH273626   3.547   0.061  12.370  0.3744  0.5209 -0.2538
17404TIP3    H173627   3.529  -0.027  12.336 -0.9888  0.4521  0.5378
17404TIP3    H273628   3.485   0.071  12.443 -0.0817  2.4407 -0.8440
17405TIP3   OH273629   1.449   5.132   0.667  0.1677  1.0407  0.4414
17405TIP3    H173630   1.415   5.171   0.586  0.3026  1.7382  0.7142
17405TIP3    H273631   1.390   5.163   0.735 -1.5772 -1.6809  0.3195
17406TIP3   OH273632   1.493   0.532   1.244  0.2929 -0.0707 -0.2573
17406TIP3    H173633   1.404   0.564   1.261  0.5904  0.0180  1.2666
17406TIP3    H273634   1.481   0.445   1.207 -0.4270 -0.1830  0.2309
17407TIP3   OH273635   1.150   1.824   2.572 -0.4906  0.9020 -0.6075
17407TIP3    H173636   1.076   1.862   2.618 -0.1995  0.8696 -0.1082
17407TIP3    H273637   1.153   1.870   2.488 -1.1799  0.7769 -0.7025
17408TIP3   OH273638   4.038   4.135   1.186  0.2367 -0.0805 -0.7303
17408TIP3    H173639   3.987   4.197   1.238  1.3634 -0.5250  0.9896
17408TIP3    H273640   4.014   4.049   1.220  1.4387 -0.3499 -0.5127
17409TIP3   OH273641   3.213   5.521   1.618 -0.5828 -0.0501  0.8527
17409TIP3    H173642   3.205   5.533   1.713 -0.4370  0.7030  0.7749
17409TIP3    H273643   3.164   5.594   1.581  0.4511  0.4086  0.3494
17410TIP3   OH273644   2.852   2.496   0.568 -0.2252  0.5491 -0.3846
17410TIP3    H173645   2.943   2.474   0.550 -1.3708 -1.9324 -4.7617
17410TIP3    H273646   2.850   2.592   0.566  2.2677  0.6586 -0.2580
17411TIP3   OH273647   0.750   0.997  15.619 -0.0747  0.1879  0.4702
17411TIP3    H173648   0.779   0.906  15.611  2.1423  0.8608  0.2893
17411TIP3    H273649   0.695   1.011  15.541  0.7750 -0.5842 -0.2957
17412TIP3   OH273650   3.995   1.733   2.700 -0.0931 -0.1203 -0.4555
17412TIP3    H173651   4.082   1.701   2.724 -1.1092 -2.3372  0.5333
17412TIP3    H273652   3.956   1.761   2.783 -0.8449 -0.5357 -0.6580
17413TIP3   OH273653   1.631   6.490  13.932 -0.0355  0.0175 -1.0213
17413TIP3    H173654   1.662   6.574  13.968  0.6142 -0.9773  0.8786
17413TIP3    H273655   1.701   6.463  13.872  0.1775  0.4105 -0.9567
17414TIP3   OH273656   3.961   5.545  13.492  0.2877 -0.2094  0.2264
17414TIP3    H173657   3.964   5.481  13.421 -0.7989 -1.0744  0.9277
17414TIP3    H273658   3.930   5.626  13.450 -0.5518 -0.7646 -0.2452
17415TIP3   OH273659   1.175   0.397  12.904 -0.1209  0.2867 -0.0680
17415TIP3    H173660   1.082   0.382  12.915 -0.3996  0.5440 -1.8031
17415TIP3    H273661   1.201   0.338  12.833  0.9294  0.5423  0.0836
17416TIP3   OH273662   3.707   0.087   4.176  0.2105 -0.4820 -0.4788
17416TIP3    H173663   3.644   0.157   4.192 -0.1492 -0.9217  0.0778
17416TIP3    H273664   3.693   0.061   4.085  0.1589 -0.0152 -0.6033
17417TIP3   OH273665   2.259   6.291  14.486  0.2792  0.7001  0.0589
17417TIP3    H173666   2.177   6.246  14.466  1.0184 -2.0346  2.5228
17417TIP3    H273667   2.234   6.365  14.541 -0.6018  0.6571 -0.2725
17418TIP3   OH273668   5.142   3.717  17.537  0.5291 -0.2066  0.1992
17418TIP3    H173669   5.214   3.732  17.476 -0.9037  1.2549 -1.1906
17418TIP3    H273670   5.094   3.799  17.539 -0.8017 -0.9658  1.5605
17419TIP3   OH273671   2.793   4.776   5.449  0.2627 -0.4749  0.1149
17419TIP3    H173672   2.792   4.869   5.427 -0.0450 -0.5561 -0.2289
17419TIP3    H273673   2.813   4.732   5.366 -0.8950 -0.7843 -0.0192
17420TIP3   OH273674   3.519   2.787   0.211 -0.1112 -0.0084 -0.2760
17420TIP3    H173675   3.545   2.867   0.257 -0.0598  0.8175 -1.6731
17420TIP3    H273676   3.431   2.770   0.242  0.9297 -1.1990  2.3436
17421TIP3   OH273677   4.407   5.499   4.293  0.0568 -0.6985 -0.2219
17421TIP3    H173678   4.458   5.555   4.351  1.0438 -1.2201 -0.5758
17421TIP3    H273679   4.471   5.442   4.251 -0.6001 -0.2104 -1.9953
17422TIP3   OH273680   3.572   4.152  13.700  0.2575 -0.5565  0.0208
17422TIP3    H173681   3.633   4.182  13.767  0.1457 -0.1895 -0.0426
17422TIP3    H273682   3.583   4.214  13.628  0.2524 -0.8459 -0.2340
17423TIP3   OH273683   2.638   0.298  16.447 -0.0402  0.5078 -0.1277
17423TIP3    H173684   2.595   0.363  16.503 -0.0709  0.3598  0.0223
17423TIP3    H273685   2.567   0.242  16.415  0.0131  0.4076 -0.0706
17424TIP3   OH273686   4.486   5.553  11.692 -0.0733 -0.3517  0.8051
17424TIP3    H173687   4.533   5.583  11.614 -0.3678  1.0324  1.1249
17424TIP3    H273688   4.552   5.507  11.743  0.6189  0.3971  0.6149
17425TIP3   OH273689   1.696   1.103   2.802 -0.0314 -0.3121 -0.1629
17425TIP3    H173690   1.781   1.145   2.797  0.8731 -2.0920 -0.3326
17425TIP3    H273691   1.658   1.136   2.884  1.0552  0.0501  0.2122
17426TIP3   OH273692   5.038   3.974   2.628 -0.2662  0.7185 -0.0002
17426TIP3    H173693   5.062   3.904   2.567  0.0589  2.1542 -1.6086
17426TIP3    H273694   5.093   3.959   2.705  1.8881  0.8039 -1.4448
17427TIP3   OH273695   0.567   1.662  16.008  0.8068  0.0337  0.0212
17427TIP3    H173696   0.526   1.681  16.092  0.9561  0.5456 -0.0238
17427TIP3    H273697   0.653   1.627  16.030  1.0415  0.6446  0.0642
17428TIP3   OH273698   4.337   1.438   1.285 -0.5136 -0.1978 -0.4177
17428TIP3    H173699   4.244   1.443   1.264 -0.0747  1.6200 -2.2226
17428TIP3    H273700   4.345   1.483   1.369 -1.1409  0.5354 -0.7435
17429TIP3   OH273701   6.343   2.154   3.710 -0.1972  0.4642 -0.0387
17429TIP3    H173702   6.332   2.132   3.803 -0.1123 -1.2033 -0.3996
17429TIP3    H273703   6.333   2.249   3.707  0.7480  0.6603  1.8090
17430TIP3   OH273704   2.006   5.561  12.198 -0.5965  0.7043  0.1169
17430TIP3    H173705   1.916   5.534  12.215 -0.4950  0.4882  0.3093
17430TIP3    H273706   2.012   5.565  12.103 -0.9203  1.0957  0.1102
17431TIP3   OH273707   4.235   2.282  15.324 -0.0609 -0.0065 -0.1720
17431TIP3    H173708   4.154   2.273  15.275 -0.7936  0.2221  0.9563
17431TIP3    H273709   4.240   2.202  15.377  0.9359 -0.4514 -0.8919
17432TIP3   OH273710   2.224   5.158   3.467 -0.0335 -0.2073 -0.1307
17432TIP3    H173711   2.191   5.193   3.550  1.9626  0.1070  0.5765
17432TIP3    H273712   2.158   5.183   3.402 -0.7329  1.1314  1.0523
17433TIP3   OH273713   4.663   1.976   5.552 -0.8555 -0.0150  0.4771
17433TIP3    H173714   4.600   2.046   5.535  1.1683  1.8104  0.0214
17433TIP3    H273715   4.680   1.937   5.467 -1.7287 -0.8615  0.6794
17434TIP3   OH273716   1.806   5.107  13.860 -0.1042 -0.2252 -0.0887
17434TIP3    H173717   1.735   5.074  13.916 -1.5338  1.1193 -1.0504
17434TIP3    H273718   1.787   5.072  13.773 -0.8972  1.9407 -0.8411
17435TIP3   OH273719   4.963   0.867   5.760 -0.4808  0.4252  0.0494
17435TIP3    H173720   4.909   0.847   5.837 -1.0367  0.5981 -0.2829
17435TIP3    H273721   4.963   0.963   5.756 -0.7837  0.4119 -0.3847
17436TIP3   OH273722   5.839   4.441  13.747 -0.2555  0.2618  0.1785
17436TIP3    H173723   5.745   4.447  13.761 -0.1399  1.4132  0.5719
17436TIP3    H273724   5.875   4.514  13.797  0.8040  0.1029 -0.3317
17437TIP3   OH273725   0.546   3.732  12.694  0.7410 -0.2342  0.4181
17437TIP3    H173726   0.534   3.817  12.651  1.2009 -0.8657 -1.0201
17437TIP3    H273727   0.620   3.693  12.649 -0.3446 -2.0045  0.0611
17438TIP3   OH273728   2.821   6.607  10.763  0.0265 -0.0065  0.4760
17438TIP3    H173729   2.903   6.557  10.770  0.2017  0.4869  2.7083
17438TIP3    H273730   2.754   6.540  10.751  0.5358 -0.5986  0.8427
17439TIP3   OH273731   3.076   1.830  16.674 -0.2638  0.4681 -0.7274
17439TIP3    H173732   3.162   1.826  16.633 -0.2106 -2.9382 -0.5468
17439TIP3    H273733   3.085   1.777  16.753 -2.3889  0.5458 -0.3844
17440TIP3   OH273734   2.804   6.352  15.263 -0.1837  0.0798  0.2729
17440TIP3    H173735   2.725   6.327  15.312 -0.2179 -0.3807 -0.0121
17440TIP3    H273736   2.806   6.292  15.188  1.5264 -1.2900  1.3382
17441TIP3   OH273737   0.058   6.489  17.054  0.2985  0.0922 -0.2607
17441TIP3    H173738   0.033   6.574  17.017  2.1206  0.5721 -0.4786
17441TIP3    H273739   0.004   6.480  17.132 -2.1213  0.0147 -1.8518
17442TIP3   OH273740   0.207   6.198   4.373 -0.0268 -0.4190 -0.2046
17442TIP3    H173741   0.227   6.288   4.349  2.3494 -1.1590 -1.3403
17442TIP3    H273742   0.212   6.197   4.469 -1.6177  0.9216 -0.0671
17443TIP3   OH273743   1.726   1.238   1.139  0.0428  0.4316 -0.0571
17443TIP3    H173744   1.761   1.196   1.218  1.4975 -0.2929 -1.0652
17443TIP3    H273745   1.764   1.190   1.066 -1.6231  0.8101 -1.2407
17444TIP3   OH273746   0.774   0.700  17.121  0.0908  0.3465  0.4583
17444TIP3    H173747   0.844   0.763  17.111 -0.5878  1.2704  1.3046
17444TIP3    H273748   0.815   0.615  17.103  1.2774  0.9188  0.3829
17445TIP3   OH273749   3.303   1.422  16.678  0.1335  0.5998 -0.1387
17445TIP3    H173750   3.244   1.406  16.605  1.1031 -3.0496 -0.2972
17445TIP3    H273751   3.262   1.379  16.753  0.6435  1.6259  0.7667
17446TIP3   OH273752   3.846   0.578   1.355  0.1862  0.0721  0.0486
17446TIP3    H173753   3.771   0.550   1.303  0.4557  0.3258 -0.4883
17446TIP3    H273754   3.821   0.559   1.445  0.5726 -2.4006 -0.3053
17447TIP3   OH273755   1.915   0.991   2.998  0.2302 -0.3090 -0.0426
17447TIP3    H173756   1.839   0.987   3.057 -0.3740  0.1482 -0.7688
17447TIP3    H273757   1.915   0.907   2.953  0.9827 -0.8597  0.9232
17448TIP3   OH273758   0.596   2.078   4.603  0.7705 -0.1208 -0.2583
17448TIP3    H173759   0.564   2.025   4.675 -0.9456 -0.3846 -1.1647
17448TIP3    H273760   0.675   2.120   4.637 -0.1223 -0.0237  1.8456
17449TIP3   OH273761   3.527   2.120   2.331  0.7048  0.1809  0.8241
17449TIP3    H173762   3.512   2.118   2.236  1.2323  0.0291  0.7358
17449TIP3    H273763   3.441   2.109   2.370  0.2084  2.1025  0.3806
17450TIP3   OH273764   2.703   0.932   3.097  0.6530 -0.0179  0.2108
17450TIP3    H173765   2.642   0.909   3.168 -1.0356 -0.0370 -1.1752
17450TIP3    H273766   2.784   0.887   3.120  0.4438  0.6543  2.5535
17451TIP3   OH273767   6.390   0.215  13.665 -0.2089  0.1170 -0.7164
17451TIP3    H173768   6.328   0.287  13.681  0.9780  1.1155 -0.4578
17451TIP3    H273769   6.392   0.207  13.569 -0.1027  0.6593 -0.7651
17452TIP3   OH273770   4.638   0.676  11.927  0.4825 -0.1120 -0.0167
17452TIP3    H173771   4.628   0.719  12.012  0.6818  0.0922 -0.0947
17452TIP3    H273772   4.553   0.636  11.910 -0.6288  2.4506 -1.1265
17453TIP3   OH273773   3.498   0.361  12.250 -0.0903 -0.1579 -0.2237
17453TIP3    H173774   3.558   0.389  12.319  3.9890  0.3422 -3.5787
17453TIP3    H273775   3.511   0.266  12.243  1.9670  0.1650 -2.1032
17454TIP3   OH273776   0.448   3.229  13.837 -0.4165 -0.0770  0.2429
17454TIP3    H173777   0.458   3.308  13.784 -0.7061  0.3243  0.7848
17454TIP3    H273778   0.446   3.158  13.773 -1.5362  0.4621 -0.3522
17455TIP3   OH273779   6.336   4.082   0.219  0.2286 -0.2365  0.5612
17455TIP3    H173780   6.386   4.140   0.161 -1.7404  0.4733 -0.5310
17455TIP3    H273781   6.367   4.103   0.307  0.7289  1.3222  0.0499
17456TIP3   OH273782   6.233   0.469   5.387  0.5139  0.1258 -0.0973
17456TIP3    H173783   6.169   0.510   5.444 -0.4031 -0.1563 -0.9009
17456TIP3    H273784   6.242   0.380   5.420 -1.3103 -0.5921 -1.3685
17457TIP3   OH273785   5.939   3.467  14.479 -0.1111 -0.5586  0.4033
17457TIP3    H173786   5.913   3.394  14.423  1.5151 -1.0137  0.1951
17457TIP3    H273787   5.883   3.459  14.556 -0.1352 -1.8724  0.2686
17458TIP3   OH273788   2.580   2.843   1.116  0.1101 -0.1413 -0.0636
17458TIP3    H173789   2.534   2.805   1.041 -0.5869 -3.3087  1.8133
17458TIP3    H273790   2.673   2.836   1.094 -0.1072  0.7132 -1.3579
17459TIP3   OH273791   3.193   6.379   4.015 -0.3846 -0.1435  0.0088
17459TIP3    H173792   3.245   6.424   4.082  1.5094 -0.2910 -1.2911
17459TIP3    H273793   3.107   6.422   4.019 -0.0853  0.3661  1.9720
17460TIP3   OH273794   5.284   0.805  12.089 -0.3823 -0.1942  0.0660
17460TIP3    H173795   5.295   0.742  12.018 -1.5429 -0.7585  0.3638
17460TIP3    H273796   5.196   0.789  12.122 -1.6355  3.0553 -1.2951
17461TIP3   OH273797   6.643   5.969  13.633 -0.2591 -0.3032  0.3899
17461TIP3    H173798   6.711   5.965  13.701 -1.3533  2.2903  1.8052
17461TIP3    H273799   6.561   5.962  13.682 -1.2457  4.8247  0.0743
17462TIP3   OH273800   1.516   4.136  16.230  0.1587 -0.3522 -0.3811
17462TIP3    H173801   1.488   4.056  16.275 -2.9393 -0.4808 -2.2695
17462TIP3    H273802   1.502   4.205  16.294  2.0564 -1.1284  0.9805
17463TIP3   OH273803   1.780   2.942   4.249 -0.3115 -0.0411  0.0334
17463TIP3    H173804   1.840   2.888   4.299 -1.2661 -0.2628  0.9852
17463TIP3    H273805   1.769   2.896   4.166  0.5218 -0.1945  0.0079
17464TIP3   OH273806   5.137   2.036   2.084 -0.9639  0.0116 -0.1017
17464TIP3    H173807   5.125   1.952   2.128 -1.5078 -1.5060 -2.8479
17464TIP3    H273808   5.128   2.102   2.153  1.1122 -2.1763  2.4679
17465TIP3   OH273809   0.763   4.176   5.293  0.5245 -0.1120  0.4116
17465TIP3    H173810   0.703   4.120   5.342  1.2378  0.2677  1.7862
17465TIP3    H273811   0.808   4.227   5.361  1.4299  0.5633 -0.6677
17466TIP3   OH273812   3.251   3.875   6.010 -0.2849 -0.1138  0.0610
17466TIP3    H173813   3.281   3.895   5.922 -0.9016 -0.8408 -0.3232
17466TIP3    H273814   3.261   3.957   6.058 -0.1463  0.3460 -0.7370
17467TIP3   OH273815   0.746   6.006   0.650  0.4797  0.0579  0.1444
17467TIP3    H173816   0.672   6.057   0.616 -1.0712 -0.4239  2.5742
17467TIP3    H273817   0.801   6.071   0.695 -0.5656 -0.0752  1.6963
17468TIP3   OH273818   5.924   1.764   4.665 -0.3353 -0.7158  0.6488
17468TIP3    H173819   5.950   1.834   4.725  1.9031 -0.7658 -0.1442
17468TIP3    H273820   5.910   1.688   4.722 -0.1835 -0.2652  1.2943
17469TIP3   OH273821   1.364   4.667   1.426  0.3901  0.0343 -0.0707
17469TIP3    H173822   1.437   4.632   1.376  0.4246 -0.4133  0.2905
17469TIP3    H273823   1.336   4.744   1.376  1.0984  0.2080 -0.2192
17470TIP3   OH273824   4.934   1.018  14.831 -0.0260 -0.0178 -0.2674
17470TIP3    H173825   4.934   1.025  14.736 -1.1745 -0.9128 -0.3594
17470TIP3    H273826   5.016   1.060  14.858 -0.3904  1.5987 -1.5223
17471TIP3   OH273827   5.886   2.251   3.173  0.3151  0.2406  0.3473
17471TIP3    H173828   5.982   2.254   3.172  0.3990 -0.6948  2.0120
17471TIP3    H273829   5.860   2.341   3.195  0.9662 -0.1025  2.8227
17472TIP3   OH273830   5.058   0.989   2.226 -0.0627  0.5946 -0.5244
17472TIP3    H173831   5.003   0.935   2.169 -2.0113  0.5373  1.2779
17472TIP3    H273832   5.013   1.073   2.230  1.8074  1.6992 -1.5994
17473TIP3   OH273833   0.397   2.399  11.631 -0.1888 -0.4528 -0.1541
17473TIP3    H173834   0.485   2.394  11.669 -0.6353 -2.5409  0.7740
17473TIP3    H273835   0.366   2.487  11.653  2.0215  0.7149 -1.4126
17474TIP3   OH273836   0.901   5.459   5.185  0.7970  0.7987  0.1497
17474TIP3    H173837   0.862   5.529   5.132  1.2374  1.6622  0.9405
17474TIP3    H273838   0.971   5.423   5.130  0.1362  0.5202 -0.5231
17475TIP3   OH273839   5.469   0.547  17.027  0.3292  0.6715 -0.2444
17475TIP3    H173840   5.554   0.506  17.046  0.6221  1.3531 -0.0475
17475TIP3    H273841   5.482   0.589  16.941  0.4661  1.4847  0.1640
17476TIP3   OH273842   2.692   6.458  14.355 -0.2416  0.7441  0.5321
17476TIP3    H173843   2.611   6.408  14.364 -0.0013  0.6039  2.1901
17476TIP3    H273844   2.706   6.498  14.441  1.8760  0.0935  0.5609
17477TIP3   OH273845   6.654   1.717   3.989 -0.5035  0.4934  0.5326
17477TIP3    H173846   6.687   1.644   3.937  0.7800  2.0692 -0.9607
17477TIP3    H273847   6.696   1.707   4.075 -0.1028 -0.3298  0.2490
17478TIP3   OH273848   5.579   3.252  12.920  0.0253  0.4717  0.0206
17478TIP3    H173849   5.617   3.173  12.882  0.3688  0.9467 -0.6442
17478TIP3    H273850   5.491   3.257  12.883 -0.0627  0.3137  0.2028
17479TIP3   OH273851   5.308   4.992  16.777 -1.1094 -0.0778 -0.2884
17479TIP3    H173852   5.231   5.031  16.819 -0.6023  0.9528 -0.2881
17479TIP3    H273853   5.327   4.914  16.830 -0.6755  1.0104  1.2384
17480TIP3   OH273854   4.985   6.241   1.426 -0.2274  0.0524  0.3428
17480TIP3    H173855   5.022   6.244   1.338 -2.7015  2.8651 -0.7883
17480TIP3    H273856   4.998   6.151   1.455  0.1714 -1.1468 -3.1446
17481TIP3   OH273857   5.610   0.236  16.530  0.6082 -0.0844  0.4047
17481TIP3    H173858   5.574   0.320  16.501  1.4248  0.4616  0.9291
17481TIP3    H273859   5.574   0.223  16.617 -1.2942 -1.3898 -0.5219
17482TIP3   OH273860   0.168   5.419   0.515  0.0074 -0.3622 -0.0203
17482TIP3    H173861   0.138   5.430   0.424  0.2242  0.3062 -0.0122
17482TIP3    H273862   0.089   5.433   0.567  0.0850  0.2408 -0.0587
17483TIP3   OH273863   3.225   1.534  14.948  0.1815 -0.3018  0.4432
17483TIP3    H173864   3.319   1.542  14.929  0.1794  3.0057  1.2230
17483TIP3    H273865   3.183   1.588  14.880 -0.9520  0.0959  1.4382
17484TIP3   OH273866   3.964   5.889  16.844  0.0744  0.5462 -0.2475
17484TIP3    H173867   4.006   5.870  16.928 -1.8407 -0.8961  0.4402
17484TIP3    H273868   3.925   5.976  16.856 -0.7741  0.0616  0.6277
17485TIP3   OH273869   1.870   3.874  16.774 -0.0011  0.5693 -0.1700
17485TIP3    H173870   1.902   3.874  16.864 -1.2229 -0.6760  0.2880
17485TIP3    H273871   1.779   3.905  16.781  0.5437  2.6597 -1.2757
17486TIP3   OH273872   6.539   2.000  13.028  0.0455  0.0970  0.2118
17486TIP3    H173873   6.471   2.059  13.062  0.3994 -0.0394  1.1976
17486TIP3    H273874   6.509   1.912  13.053  0.1000 -0.0476 -0.2208
17487TIP3   OH273875   1.471   3.827  12.248  0.4319 -0.6448  0.6943
17487TIP3    H173876   1.500   3.918  12.248 -0.2688 -0.4176  0.5302
17487TIP3    H273877   1.552   3.776  12.235  0.9968 -0.1128  1.9300
17488TIP3   OH273878   2.082   5.522  14.464  0.3849 -0.2963 -0.3275
17488TIP3    H173879   2.137   5.465  14.411 -1.8444 -0.6615 -2.4284
17488TIP3    H273880   2.008   5.468  14.490 -0.1930  0.7858  0.3831
17489TIP3   OH273881   2.780   4.348  11.078  0.0316 -0.1619  0.3539
17489TIP3    H173882   2.874   4.343  11.097  0.9223  0.2517 -3.1923
17489TIP3    H273883   2.750   4.258  11.082  0.9391 -0.4861 -0.0012
17490TIP3   OH273884   1.059   4.816  12.015 -0.2434  0.7133  0.1705
17490TIP3    H173885   1.091   4.888  11.960 -1.5575  0.4398 -1.0030
17490TIP3    H273886   1.028   4.751  11.953 -1.5828  0.2948  1.2334
17491TIP3   OH273887   4.217   5.839  14.094  0.1705  0.2121  0.0059
17491TIP3    H173888   4.307   5.868  14.112  0.8103 -1.2254 -0.7153
17491TIP3    H273889   4.227   5.769  14.029 -1.4285 -0.3434  0.3201
17492TIP3   OH273890   2.304   6.061  14.028 -0.4088  0.0503  0.0442
17492TIP3    H173891   2.343   6.042  14.113 -0.7586 -0.5965  0.0689
17492TIP3    H273892   2.229   6.118  14.048 -2.0770 -2.1712  0.4889
17493TIP3   OH273893   1.368   0.147  12.008 -0.4782 -0.4091 -0.1246
17493TIP3    H173894   1.420   0.172  12.085 -1.9149 -0.8591  1.0520
17493TIP3    H273895   1.365   0.051  12.012  0.3435 -0.5040 -1.3970
17494TIP3   OH273896   4.466   6.064  11.318  0.2670 -0.1394 -0.4812
17494TIP3    H173897   4.517   5.988  11.291  1.4271  0.9141 -1.3829
17494TIP3    H273898   4.531   6.133  11.332 -0.4488  0.0322  2.9176
17495TIP3   OH273899   5.679   0.829  15.305  0.4718 -0.1696  0.5301
17495TIP3    H173900   5.649   0.744  15.273 -0.0533 -0.3796  1.5368
17495TIP3    H273901   5.769   0.837  15.273 -0.0114 -0.3832 -0.9259
17496TIP3   OH273902   1.739   1.937  12.757 -0.0413  0.2051 -0.4757
17496TIP3    H173903   1.691   1.894  12.686  1.1968 -1.4616 -0.3681
17496TIP3    H273904   1.732   1.876  12.831 -1.4986  2.0134  0.9615
17497TIP3   OH273905   5.720   2.729  16.795 -0.5713 -0.3191  0.0260
17497TIP3    H173906   5.804   2.775  16.801 -0.2286 -0.9437  0.0738
17497TIP3    H273907   5.656   2.799  16.777  0.0945  0.0352 -1.0983
17498TIP3   OH273908   3.756   3.029   0.884  0.0316  0.6594 -0.2485
17498TIP3    H173909   3.829   3.074   0.926 -1.0324  1.6135  0.6391
17498TIP3    H273910   3.781   2.936   0.887  1.7311  1.0489 -1.0624
17499TIP3   OH273911   2.075   0.905  15.129  0.7760 -0.1424  0.5377
17499TIP3    H173912   2.150   0.925  15.184 -0.8445 -0.0372  2.8761
17499TIP3    H273913   2.038   0.991  15.107  2.1095 -0.1125 -1.8864
17500TIP3   OH273914   0.234   4.849  15.928 -0.9162  0.2252 -0.3537
17500TIP3    H173915   0.220   4.890  15.842  0.1707  0.7161 -0.3158
17500TIP3    H273916   0.223   4.756  15.912  1.3124  0.0931 -1.5169
17501TIP3   OH273917   0.059   5.656  13.913 -0.5238  0.2202  0.5994
17501TIP3    H173918   0.150   5.683  13.915 -0.6947  0.8086  0.6213
17501TIP3    H273919   0.033   5.652  14.005 -1.0422  1.9077  0.5696
17502TIP3   OH273920   5.295   5.030  17.184  0.0479 -0.3837  0.0603
17502TIP3    H173921   5.258   5.015  17.097  0.1591 -1.2397  0.1443
17502TIP3    H273922   5.225   5.073  17.233 -1.0908 -2.4222  0.3679
17503TIP3   OH273923   4.995   4.880   1.769  0.0299  0.1221 -0.2358
17503TIP3    H173924   5.029   4.855   1.855 -0.2466  0.6795  0.0435
17503TIP3    H273925   5.073   4.902   1.717  0.2488 -0.9523 -0.3755
17504TIP3   OH273926   3.927   4.266  13.502 -0.3336 -0.5101 -0.2800
17504TIP3    H173927   3.957   4.355  13.517  0.0129 -0.9410  1.9218
17504TIP3    H273928   4.004   4.220  13.469  0.1950 -0.5365  0.9371
17505TIP3   OH273929   2.613   2.443  16.227 -0.0819 -0.0163  0.1020
17505TIP3    H173930   2.673   2.506  16.186 -1.2846  1.8032  1.0140
17505TIP3    H273931   2.526   2.467  16.194 -0.3664 -3.1390 -1.8857
17506TIP3   OH273932   1.108   2.991  14.158 -0.4220  0.1160  0.0908
17506TIP3    H173933   1.068   3.074  14.133  1.3614  1.1472  0.4881
17506TIP3    H273934   1.034   2.931  14.170 -1.7581  1.6704 -0.0461
17507TIP3   OH273935   3.902   2.671  12.077 -1.0435  0.3213 -0.3505
17507TIP3    H173936   3.881   2.592  12.128  0.5050  0.9841  1.4158
17507TIP3    H273937   3.988   2.653  12.040 -0.8347  1.0459 -0.2224
17508TIP3   OH273938   5.025   2.223   5.841  0.4889  0.3564  0.2670
17508TIP3    H173939   5.007   2.230   5.747  2.8852 -1.8247 -0.4818
17508TIP3    H273940   5.120   2.233   5.847  0.3692  0.5951  2.5155
17509TIP3   OH273941   3.301   5.233  13.812 -0.3858  0.1103  1.1973
17509TIP3    H173942   3.310   5.173  13.886 -0.5632 -0.1938  0.9718
17509TIP3    H273943   3.391   5.254  13.787 -0.3111 -0.7920  0.6821
17510TIP3   OH273944   2.818   5.578  13.911  0.1295 -0.3948  0.4773
17510TIP3    H173945   2.829   5.508  13.975  0.0564 -0.4381  0.4425
17510TIP3    H273946   2.836   5.658  13.961 -1.8395 -0.2583  1.0907
17511TIP3   OH273947   6.284   5.116  13.912 -1.3442 -0.2495  0.0268
17511TIP3    H173948   6.299   5.025  13.937  0.6654  0.3400  1.1890
17511TIP3    H273949   6.222   5.149  13.978 -0.2477 -0.1701  1.0497
17512TIP3   OH273950   3.075   4.250  11.996  0.3079 -0.0686 -0.1746
17512TIP3    H173951   3.120   4.299  12.065 -0.0811 -0.4411  0.3506
17512TIP3    H273952   3.011   4.196  12.043  1.5581 -2.0200 -0.6154
17513TIP3   OH273953   4.628   1.294   5.061  0.1047 -0.6599  0.6881
17513TIP3    H173954   4.640   1.245   5.142  0.4752 -1.1272  0.3517
17513TIP3    H273955   4.546   1.342   5.074  0.8646  0.3561  1.8855
17514TIP3   OH273956   1.693   2.093  14.444  0.4803  0.3163 -0.0587
17514TIP3    H173957   1.644   2.014  14.463  0.1230  0.5793  0.1324
17514TIP3    H273958   1.676   2.150  14.519 -0.2732  1.0510 -0.7614
17515TIP3   OH273959   5.547   4.386  15.695  0.1628 -0.5476 -0.4255
17515TIP3    H173960   5.464   4.341  15.679  0.5481 -1.3882 -0.1322
17515TIP3    H273961   5.557   4.445  15.621 -0.0334 -1.4449 -1.1841
17516TIP3   OH273962   1.038   2.889  12.791 -0.2149  0.3988  0.4630
17516TIP3    H173963   1.014   2.797  12.781 -0.6637  0.3489  1.7907
17516TIP3    H273964   0.972   2.937  12.740 -1.5685  0.1004  1.8397
17517TIP3   OH273965   0.997   2.714  16.423  0.2469 -0.2955 -0.1590
17517TIP3    H173966   1.045   2.723  16.506  0.7577 -0.1328 -0.4671
17517TIP3    H273967   1.016   2.625  16.394 -0.3153 -0.5133  0.1287
17518TIP3   OH273968   0.932   1.514   1.028  0.2393 -0.0206 -0.1647
17518TIP3    H173969   0.945   1.456   0.953 -1.8838 -2.5856  1.2719
17518TIP3    H273970   0.997   1.484   1.092  0.4454  0.5206 -0.1219
17519TIP3   OH273971   0.923   5.459  16.577 -0.0363 -0.0473 -0.2304
17519TIP3    H173972   0.996   5.509  16.614  1.9351 -1.9648 -1.3452
17519TIP3    H273973   0.907   5.389  16.641  0.2602 -0.6426 -0.8020
17520TIP3   OH273974   6.353   6.508  12.322 -0.3054 -0.1028 -0.3042
17520TIP3    H173975   6.313   6.517  12.235  1.4355 -1.0715 -1.2648
17520TIP3    H273976   6.377   6.416  12.328  2.8058  0.5905 -0.3506
17521TIP3   OH273977   6.518   1.513   1.128  0.7705  0.6670  0.0068
17521TIP3    H173978   6.478   1.448   1.069  0.3067  1.5765 -0.7009
17521TIP3    H273979   6.446   1.573   1.149  0.8048  0.1180  1.8880
17522TIP3   OH273980   3.358   6.654  13.866  0.0911  0.1409 -0.4266
17522TIP3    H173981   3.436   6.611  13.901 -0.6731 -0.2741  0.8498
17522TIP3    H273982   3.323   6.593  13.802  0.6428  0.2015 -0.7953
17523TIP3   OH273983   5.405   0.086  15.673 -0.0704  0.1842 -0.1479
17523TIP3    H173984   5.414   0.005  15.723  0.3307  0.5653  0.4087
17523TIP3    H273985   5.491   0.128  15.679  0.6333 -0.6590 -2.7650
17524TIP3   OH273986   3.138   6.467  12.594  0.3598  0.0606 -0.3043
17524TIP3    H173987   3.084   6.544  12.615 -1.0100 -0.7654 -0.6487
17524TIP3    H273988   3.109   6.440  12.507  2.9916  0.9200 -1.5551
17525TIP3   OH273989   2.381   1.934   1.253  0.3882  0.1444  0.4647
17525TIP3    H173990   2.361   1.953   1.344 -2.2952  0.9265 -0.2128
17525TIP3    H273991   2.341   1.848   1.237  0.3732  0.2592 -0.1220
17526TIP3   OH273992   3.710   3.958  14.309  0.1047 -0.2898  0.2656
17526TIP3    H173993   3.703   3.917  14.223  1.0433 -1.2022  0.6122
17526TIP3    H273994   3.711   3.885  14.371  1.1260  0.2797  0.9480
17527TIP3   OH273995   6.109   6.094   5.867 -0.0532  0.2587  0.1732
17527TIP3    H173996   6.175   6.079   5.801  0.3011 -0.6178  0.7152
17527TIP3    H273997   6.030   6.053   5.832 -0.2536  1.0760 -0.3546
17528TIP3   OH273998   3.575   5.573  11.628  0.1210 -0.0826  0.3085
17528TIP3    H173999   3.573   5.611  11.715 -0.9669  0.5565  0.0217
17528TIP3    H274000   3.655   5.608  11.588 -1.0727  2.3593 -0.1225
17529TIP3   OH274001   1.688   1.173   4.981  0.4147  0.3224 -0.2963
17529TIP3    H174002   1.640   1.091   4.970  0.6262 -0.2021  2.1715
17529TIP3    H274003   1.774   1.155   4.943 -0.5274  0.5300 -2.6809
17530TIP3   OH274004   3.709   3.216   0.539  0.2556  0.0207 -0.5976
17530TIP3    H174005   3.655   3.294   0.523  1.2353  0.8426 -0.0704
17530TIP3    H274006   3.768   3.243   0.611  2.3976 -0.2784 -2.1457
17531TIP3   OH274007   6.408   1.189   4.216 -0.2327  0.3367  0.2275
17531TIP3    H174008   6.415   1.105   4.261 -0.8119  0.2801  0.2207
17531TIP3    H274009   6.481   1.241   4.249 -0.1249 -0.0194  0.5526
17532TIP3   OH274010   3.619   2.178   4.509 -0.7059 -0.2698  0.7297
17532TIP3    H174011   3.540   2.161   4.561  0.7807 -1.1345  2.8501
17532TIP3    H274012   3.691   2.174   4.573  1.1984 -0.8173 -1.3378
17533TIP3   OH274013   1.466   0.535  15.026  0.0121 -0.3452 -0.2783
17533TIP3    H174014   1.488   0.455  14.979  0.5154 -0.2384 -0.2258
17533TIP3    H274015   1.392   0.511  15.082  0.7139 -0.9975  0.3853
17534TIP3   OH274016   1.203   2.694  14.472  0.0274  0.3555 -0.4054
17534TIP3    H174017   1.150   2.619  14.500  0.2514  0.0807 -0.7030
17534TIP3    H274018   1.208   2.684  14.376  4.1410 -2.0611 -0.2029
17535TIP3   OH274019   1.807   1.722   3.842  0.2165 -0.6927 -0.0094
17535TIP3    H174020   1.761   1.661   3.785 -0.4209  0.1510 -0.4312
17535TIP3    H274021   1.886   1.675   3.870 -0.5370 -1.9104  0.1536
17536TIP3   OH274022   1.681   2.565  11.985 -0.4894  0.1533  0.8023
17536TIP3    H174023   1.598   2.612  11.975 -0.8220 -0.5486  0.1840
17536TIP3    H274024   1.659   2.489  12.038 -0.4665 -0.5571 -0.1755
17537TIP3   OH274025   4.522   1.147   0.651  0.1700  0.0365 -0.9402
17537TIP3    H174026   4.508   1.208   0.579  3.2488  1.5378 -0.4066
17537TIP3    H274027   4.616   1.131   0.651  0.4081  0.5232  3.0362
17538TIP3   OH274028   0.041   2.140   0.084 -0.1321 -0.3835 -0.2090
17538TIP3    H174029  -0.034   2.107   0.133 -0.5496 -1.7270 -1.6743
17538TIP3    H274030   0.055   2.075   0.015  1.5768  0.5020 -0.7506
17539TIP3   OH274031   1.108   2.823   5.108  0.0683 -0.0529 -0.9877
17539TIP3    H174032   1.060   2.888   5.159  0.5737 -0.7805  0.4903
17539TIP3    H274033   1.164   2.875   5.049  2.0289  1.0056  1.5975
17540TIP3   OH274034   0.153   4.369   1.349 -0.0944 -0.7591  0.5692
17540TIP3    H174035   0.192   4.437   1.404  0.0512 -0.6946  0.3879
17540TIP3    H274036   0.077   4.338   1.399 -1.4182  0.9889 -0.2395
17541TIP3   OH274037   1.889   2.043   2.538 -0.3603 -0.2764  0.1564
17541TIP3    H174038   1.835   2.006   2.469 -0.6663 -0.0183  0.2545
17541TIP3    H274039   1.827   2.075   2.603 -0.0602 -1.3942  1.0219
17542TIP3   OH274040   3.383   3.714   2.871  0.1088  0.1554  0.3909
17542TIP3    H174041   3.402   3.663   2.949 -1.5173  0.4151  0.9925
17542TIP3    H274042   3.390   3.651   2.799 -0.7902 -0.6648  1.0107
17543TIP3   OH274043   6.201   4.642  17.138  0.2925 -1.0770  0.5400
17543TIP3    H174044   6.111   4.615  17.116  0.1716 -0.6792  0.5382
17543TIP3    H274045   6.196   4.737  17.146  0.4944 -1.1341  1.5122
17544TIP3   OH274046   4.712   2.541   2.514  0.5188 -0.2479 -0.2361
17544TIP3    H174047   4.794   2.492   2.515  0.5263 -0.2347 -0.1994
17544TIP3    H274048   4.717   2.598   2.590  1.4437  1.3601 -1.4360
17545TIP3   OH274049   2.178   5.743   5.486  0.4608 -0.1880 -0.5690
17545TIP3    H174050   2.243   5.810   5.505 -0.5197  0.3553  1.1277
17545TIP3    H274051   2.097   5.792   5.472 -0.6829 -0.9768  2.4640
17546TIP3   OH274052   0.752   2.033   5.171 -0.9522 -0.3900 -0.3784
17546TIP3    H174053   0.686   1.988   5.224  0.0584  1.2779  2.5112
17546TIP3    H274054   0.731   2.126   5.180  1.1699  0.1186 -0.1678
17547TIP3   OH274055   1.780   3.617   5.286 -0.1324  0.1134 -0.3106
17547TIP3    H174056   1.752   3.644   5.198 -1.0285  1.1311  0.2700
17547TIP3    H274057   1.826   3.534   5.271  1.3514  1.1528 -1.9671
17548TIP3   OH274058   6.582   0.300   1.703 -0.6882  0.8079 -0.3084
17548TIP3    H174059   6.592   0.395   1.709 -3.7161  1.2079 -0.0299
17548TIP3    H274060   6.528   0.286   1.625  0.2819 -0.7764 -0.7535
17549TIP3   OH274061   4.545   6.102  12.596 -0.3405  0.5785 -0.4666
17549TIP3    H174062   4.495   6.159  12.655 -0.7331  0.2693 -0.4966
17549TIP3    H274063   4.616   6.067  12.650 -1.7198 -1.1069  0.3283
17550TIP3   OH274064   0.986   4.650  15.434 -0.3815 -0.0233  0.6164
17550TIP3    H174065   0.966   4.743  15.443 -0.9126 -0.1050  0.3091
17550TIP3    H274066   1.004   4.638  15.341  2.1313  0.2398  1.0078
17551TIP3   OH274067   1.484   6.281  12.567 -0.0025  0.5221 -1.4202
17551TIP3    H174068   1.453   6.343  12.633 -1.3242 -0.2393 -1.2956
17551TIP3    H274069   1.566   6.319  12.535 -1.0672  2.6069 -1.7829
17552TIP3   OH274070   6.298   0.851  13.362 -0.6394  0.3503 -0.0868
17552TIP3    H174071   6.236   0.903  13.414 -0.3910 -1.7492  2.5360
17552TIP3    H274072   6.310   0.771  13.413  1.4027 -0.9215 -2.3781
17553TIP3   OH274073   0.937   1.117  12.889 -0.0201  0.1862  0.2440
17553TIP3    H174074   0.999   1.171  12.937  2.4277  0.1952 -2.6468
17553TIP3    H274075   0.922   1.042  12.946  2.7510  0.1415  1.0524
17554TIP3   OH274076   0.678   3.793  16.533 -0.2965 -0.0094  0.6821
17554TIP3    H174077   0.769   3.775  16.557  0.5208  1.8170 -0.7626
17554TIP3    H274078   0.669   3.759  16.444 -0.0625  2.4268 -0.3371
17555TIP3   OH274079   3.544   2.045  17.168 -0.0179  0.2507  0.2882
17555TIP3    H174080   3.594   2.096  17.232  2.1557 -1.2879 -0.0766
17555TIP3    H274081   3.476   2.002  17.219  2.1690 -1.5973  1.8343
17556TIP3   OH274082   4.258   0.132   4.285  0.0517  0.6065 -0.3771
17556TIP3    H174083   4.212   0.081   4.351 -1.4036  0.7883 -1.1987
17556TIP3    H274084   4.349   0.136   4.316 -0.5851  0.7279  1.6031
17557TIP3   OH274085   2.817   6.605  11.962  0.4120  0.6061  0.3464
17557TIP3    H174086   2.729   6.597  11.925  0.9722 -0.2155 -0.8426
17557TIP3    H274087   2.858   6.675  11.911  0.3903  1.1622  1.0654
17558TIP3   OH274088   6.251   3.397   5.104 -0.3311 -0.4737 -0.5329
17558TIP3    H174089   6.325   3.364   5.051  1.1386  1.3428  0.2696
17558TIP3    H274090   6.229   3.324   5.161  1.5597 -0.7663 -0.0927
17559TIP3   OH274091   6.058   1.490   0.192  0.1829  0.3000 -0.4360
17559TIP3    H174092   5.976   1.527   0.158  0.6802  0.6043 -1.3460
17559TIP3    H274093   6.123   1.559   0.178  0.7556 -0.2350 -0.4595
17560TIP3   OH274094   6.424   1.183  11.958  0.1980 -0.3005  1.0029
17560TIP3    H174095   6.487   1.249  11.928 -0.2148 -0.3167  0.0655
17560TIP3    H274096   6.468   1.140  12.032  0.9595  0.2206  0.8679
17561TIP3   OH274097   2.956   2.406   0.881 -0.1097  0.1552 -0.6041
17561TIP3    H174098   3.010   2.468   0.833  0.7261  1.1796  1.5283
17561TIP3    H274099   3.009   2.326   0.886  0.1446  0.3220 -0.6520
17562TIP3   OH274100   5.453   2.060   2.617 -0.0935 -0.0883  0.7147
17562TIP3    H174101   5.380   2.059   2.555 -1.9019 -2.3982  2.6669
17562TIP3    H274102   5.521   2.110   2.572 -1.3936 -1.2214 -2.9262
17563TIP3   OH274103   3.893   5.048  11.722  0.0476  0.5435  0.7153
17563TIP3    H174104   3.881   5.125  11.668  0.3406  0.6635  0.8178
17563TIP3    H274105   3.892   4.975  11.660  2.1041  0.8019  0.3087
17564TIP3   OH274106   0.616   0.369  15.635 -0.1437  0.4056 -0.3180
17564TIP3    H174107   0.592   0.449  15.588  1.1706  1.5369  0.8737
17564TIP3    H274108   0.537   0.314  15.631 -1.3874  2.1341 -0.3648
17565TIP3   OH274109   5.121   4.386  15.850 -0.1532  0.1254  0.7501
17565TIP3    H174110   5.189   4.435  15.896  0.2746  1.0787 -0.8224
17565TIP3    H274111   5.064   4.453  15.813 -1.4034 -0.6489  1.2168
17566TIP3   OH274112   5.594   1.542   5.960 -0.0180 -0.3138 -0.4437
17566TIP3    H174113   5.559   1.469   6.011  1.4271 -1.8223 -1.5184
17566TIP3    H274114   5.627   1.603   6.026 -0.0574 -1.2427  0.4731
17567TIP3   OH274115   5.047   0.211   2.581 -0.2178  0.8454 -0.2830
17567TIP3    H174116   4.960   0.174   2.564 -0.4049 -0.3419  2.6596
17567TIP3    H274117   5.106   0.163   2.523 -1.2371  0.0074 -0.6625
17568TIP3   OH274118   6.664   4.470   0.054 -0.5050 -0.1707  0.4113
17568TIP3    H174119   6.571   4.489   0.042 -0.5401  0.0273  0.9644
17568TIP3    H274120   6.666   4.391   0.108 -0.3507 -0.9957 -0.7865
17569TIP3   OH274121   4.351   3.483  13.528 -0.6788  0.1607  0.0759
17569TIP3    H174122   4.436   3.516  13.555 -1.9253  1.3262  2.9321
17569TIP3    H274123   4.370   3.428  13.451  2.6749 -0.0905  0.9314
17570TIP3   OH274124   2.227   0.784   6.082  0.1190  0.3209 -0.0610
17570TIP3    H174125   2.317   0.779   6.113  0.2713  0.2054 -0.5190
17570TIP3    H274126   2.181   0.717   6.131  0.1872  0.6640  0.4836
17571TIP3   OH274127   6.316   3.091   1.333  0.3408 -0.0202 -0.6697
17571TIP3    H174128   6.288   3.181   1.349 -1.1290 -0.3973 -0.9626
17571TIP3    H274129   6.361   3.094   1.248  0.4979  0.4734 -0.5698
17572TIP3   OH274130   3.749   5.338  11.882  0.6060 -0.3234  0.0395
17572TIP3    H174131   3.703   5.263  11.845  1.2317  0.3099 -2.2019
17572TIP3    H274132   3.680   5.395  11.917 -0.0785 -0.7388 -0.6217
17573TIP3   OH274133   1.243   3.760   6.809  0.2629  0.1363 -0.4148
17573TIP3    H174134   1.327   3.805   6.805  0.3191 -0.0219 -1.3027
17573TIP3    H274135   1.179   3.828   6.829  0.4797  0.4232 -0.6973
17574TIP3   OH274136   5.039   2.435   1.464  0.1146  0.3135 -0.4427
17574TIP3    H174137   4.968   2.378   1.435  0.6618 -0.1246 -0.9583
17574TIP3    H274138   5.118   2.382   1.452  0.3703 -0.1241  2.3867
17575TIP3   OH274139   5.151   4.177   5.777 -0.0002  0.1489 -0.5098
17575TIP3    H174140   5.173   4.225   5.697 -1.0026  1.1217 -0.2183
17575TIP3    H274141   5.235   4.140   5.806  0.4018 -0.1310 -1.9320
17576TIP3   OH274142   1.187   6.114   2.595  0.1853 -0.7234 -0.7193
17576TIP3    H174143   1.129   6.039   2.610 -0.7240 -0.1676 -1.3155
17576TIP3    H274144   1.133   6.191   2.616  1.0272 -0.2274 -0.3430
17577TIP3   OH274145   1.424   5.467  10.972 -0.1391  0.5361 -0.1333
17577TIP3    H174146   1.367   5.407  11.021 -2.3733  1.8226 -0.9828
17577TIP3    H274147   1.478   5.410  10.917  0.1294 -0.7822  1.4341
17578TIP3   OH274148   4.510   2.916  16.913 -0.0060  0.3509 -0.6842
17578TIP3    H174149   4.524   3.005  16.881 -0.1770  0.6636  0.1045
17578TIP3    H274150   4.530   2.861  16.837  0.5279  1.0328 -1.0565
17579TIP3   OH274151   1.861   6.398  15.597  0.0494  0.1798  0.4117
17579TIP3    H174152   1.947   6.379  15.634  0.6891  0.5586 -0.8625
17579TIP3    H274153   1.878   6.439  15.513 -1.3809  0.2955  0.1433
17580TIP3   OH274154   3.219   1.515   5.395  0.4281 -0.3629  0.6365
17580TIP3    H174155   3.287   1.575   5.424  0.5927  1.2435 -2.5964
17580TIP3    H274156   3.264   1.432   5.381  1.9693  0.7687 -1.8215
17581TIP3   OH274157   6.712   6.284  11.895  0.2534 -0.4855  0.3246
17581TIP3    H174158   6.765   6.223  11.945  1.1859  2.5558  3.4341
17581TIP3    H274159   6.636   6.302  11.951 -0.1509  0.9261 -0.6167
17582TIP3   OH274160   1.467   3.171  17.129  0.3207 -0.1393  0.4483
17582TIP3    H174161   1.559   3.179  17.105  0.1110 -0.0262 -0.3185
17582TIP3    H274162   1.463   3.202  17.220  0.9388  0.4067  0.2899
17583TIP3   OH274163   3.567   2.321   4.804 -0.0240 -0.4384  0.0087
17583TIP3    H174164   3.511   2.366   4.868  1.3361  1.4602 -0.0634
17583TIP3    H274165   3.642   2.379   4.792  1.1177 -2.0672 -1.2434
17584TIP3   OH274166   3.410   6.199  11.729 -0.1882  0.0052 -0.0962
17584TIP3    H174167   3.314   6.205  11.727 -0.3319 -1.4622  0.7024
17584TIP3    H274168   3.439   6.283  11.765 -1.0610  1.0481 -1.7029
17585TIP3   OH274169   3.682   2.961  15.973 -0.5423  0.2082 -0.4473
17585TIP3    H174170   3.592   2.948  16.001 -0.7684  0.5798 -0.9883
17585TIP3    H274171   3.698   3.054  15.988 -0.3327  0.1978 -0.6018
17586TIP3   OH274172   5.279   3.609   5.012 -0.0897  0.3094 -0.3739
17586TIP3    H174173   5.216   3.591   4.943 -0.5515  0.2092  0.0678
17586TIP3    H274174   5.226   3.626   5.090  0.4364 -1.1234  0.3355
17587TIP3   OH274175   3.552   1.349  11.673 -0.1059 -0.2793 -0.4962
17587TIP3    H174176   3.457   1.339  11.672 -0.1549  0.0099  0.4969
17587TIP3    H274177   3.572   1.381  11.761  0.9037 -0.2575 -0.7228
17588TIP3   OH274178   5.029   2.907  16.911 -0.1578 -0.5482  0.3517
17588TIP3    H174179   5.021   2.852  16.989 -0.7250  0.1813  0.8224
17588TIP3    H274180   5.059   2.992  16.944  1.9654 -0.9051 -0.5112
17589TIP3   OH274181   2.478   0.264   0.923 -0.5585  0.1369 -0.4062
17589TIP3    H174182   2.537   0.210   0.869  0.4023  0.7688 -0.0183
17589TIP3    H274183   2.514   0.257   1.011 -1.5651 -0.1231  0.0014
17590TIP3   OH274184   5.543   2.539  15.521  0.3917  0.6209  0.6039
17590TIP3    H174185   5.622   2.591  15.533  0.3004  0.9201 -0.0775
17590TIP3    H274186   5.573   2.456  15.485  0.3646  0.8509  0.0501
17591TIP3   OH274187   0.833   5.342  15.254  0.3090  0.4237  0.6749
17591TIP3    H174188   0.891   5.374  15.323 -0.9869  1.0998  1.4830
17591TIP3    H274189   0.777   5.416  15.233 -0.5292 -0.3272  0.1824
17592TIP3   OH274190   5.912   0.869  15.994  0.3955 -0.0512 -0.2192
17592TIP3    H174191   5.934   0.962  16.005 -1.2161  0.7027 -2.5894
17592TIP3    H274192   5.818   0.865  16.009  0.7224 -1.7172  1.7641
17593TIP3   OH274193   0.017   2.708   1.755 -0.0249  0.4441  0.8584
17593TIP3    H174194   0.082   2.771   1.726  1.8745 -0.8062  2.2067
17593TIP3    H274195   0.035   2.629   1.705 -1.4213  0.4517  0.2740
17594TIP3   OH274196   4.597   4.084  16.690 -0.0928  0.1015  0.7166
17594TIP3    H174197   4.633   4.094  16.602 -2.1990 -1.3329 -0.3861
17594TIP3    H274198   4.534   4.156  16.698  0.5650  0.6245  1.3497
17595TIP3   OH274199   4.592   1.926   3.228 -0.3772 -0.3330  0.0407
17595TIP3    H174200   4.536   1.883   3.292  1.3452  0.1233  1.9823
17595TIP3    H274201   4.667   1.867   3.219  0.2061  0.4375 -0.2222
17596TIP3   OH274202   4.117   6.300   5.697  0.0557 -0.3080 -0.1690
17596TIP3    H174203   4.054   6.372   5.689 -0.6881 -0.4027  3.4053
17596TIP3    H274204   4.203   6.343   5.700  0.1803 -0.0682 -3.1905
17597TIP3   OH274205   5.939   1.495   6.220 -0.4618  0.6703  0.2598
17597TIP3    H174206   5.926   1.403   6.194 -1.4134  0.6979  0.6015
17597TIP3    H274207   5.923   1.544   6.139  0.5799  0.5198 -0.0577
17598TIP3   OH274208   1.472   1.591   5.070  0.0089 -0.0980  0.1537
17598TIP3    H174209   1.522   1.540   5.006  0.1049 -1.7885  1.4888
17598TIP3    H274210   1.537   1.647   5.111 -0.4203  2.7754 -2.7053
17599TIP3   OH274211   0.951   2.510   0.229  0.3274  0.3118 -0.1043
17599TIP3    H174212   0.973   2.417   0.230  0.5858  0.3290  2.4248
17599TIP3    H274213   0.859   2.514   0.252  0.0887  0.6799 -1.0609
17600TIP3   OH274214   5.735   6.326  14.593 -0.5785 -0.4524 -0.0520
17600TIP3    H174215   5.675   6.393  14.560  1.3823  1.9729  0.9688
17600TIP3    H274216   5.818   6.344  14.550 -0.0487 -2.5023  0.0115
17601TIP3   OH274217   1.453   1.156  13.326  0.0720 -0.0438  0.1917
17601TIP3    H174218   1.485   1.094  13.392  2.0428  2.0256  1.2953
17601TIP3    H274219   1.358   1.144  13.326  0.2868 -2.2244  1.1840
17602TIP3   OH274220   2.672   3.991   5.288 -0.4182 -0.0145  0.2615
17602TIP3    H174221   2.598   3.931   5.292 -1.0168  0.7401  0.8304
17602TIP3    H274222   2.747   3.936   5.266 -1.2504 -0.6919 -1.0064
17603TIP3   OH274223   6.118   0.427  14.405 -0.1472  0.3317 -0.1564
17603TIP3    H174224   6.060   0.374  14.352 -0.2613  1.3503 -1.0763
17603TIP3    H274225   6.203   0.421  14.361 -0.3345  1.4961 -0.6972
17604TIP3   OH274226   4.306   5.453   1.117 -0.0842 -0.0315  0.0813
17604TIP3    H174227   4.281   5.429   1.206 -1.1689 -1.6505 -0.6051
17604TIP3    H274228   4.331   5.545   1.122  1.2409 -0.4517  2.3081
17605TIP3   OH274229   4.453   5.292  17.073  0.8097  0.6116  0.3941
17605TIP3    H174230   4.448   5.202  17.039 -2.5145  0.7644  0.1467
17605TIP3    H274231   4.420   5.347  17.002 -1.0080  1.5324  1.8658
17606TIP3   OH274232   1.204   0.145  15.500 -0.9636 -0.3012 -0.3383
17606TIP3    H174233   1.284   0.106  15.537 -0.0598  0.7886 -1.0745
17606TIP3    H274234   1.133   0.107  15.552  0.0220 -1.3289  0.3148
17607TIP3   OH274235   4.092   6.078   5.383  0.4182  0.3919  0.0174
17607TIP3    H174236   4.184   6.068   5.408  0.4623 -0.0667 -0.3197
17607TIP3    H274237   4.065   6.159   5.427  1.1863  0.9325 -0.4588
17608TIP3   OH274238   0.005   2.681   5.060 -0.6002 -0.5895  0.3024
17608TIP3    H174239   0.022   2.602   5.111 -1.1746 -0.9719 -0.0810
17608TIP3    H274240   0.002   2.650   4.969  2.0185  0.3270 -0.1644
17609TIP3   OH274241   0.692   0.830   2.583 -0.0136 -0.3984 -0.0994
17609TIP3    H174242   0.710   0.826   2.489 -0.0134 -2.0322 -0.0458
17609TIP3    H274243   0.761   0.887   2.618  1.7950 -2.1312 -0.6916
17610TIP3   OH274244   0.758   2.650   6.418  0.2993  0.0011  0.0608
17610TIP3    H174245   0.703   2.630   6.342  0.6666 -0.5719 -0.0598
17610TIP3    H274246   0.714   2.723   6.461  0.3664  0.7051 -1.0085
17611TIP3   OH274247   6.560   0.118  13.158  0.7154 -0.6758 -0.1241
17611TIP3    H174248   6.537   0.210  13.146  1.7784 -0.2544  0.8343
17611TIP3    H274249   6.480   0.070  13.141 -0.2012  0.5250  0.6450
17612TIP3   OH274250   3.613   1.361   5.170 -0.8208 -0.8582 -0.0685
17612TIP3    H174251   3.541   1.316   5.214 -0.5807 -0.2440  0.9857
17612TIP3    H274252   3.646   1.422   5.236  1.3746 -1.8908 -0.1513
17613TIP3   OH274253   5.394   3.262   5.686 -0.6186 -0.0325 -0.0549
17613TIP3    H174254   5.441   3.264   5.603 -0.3332  0.5314  0.1083
17613TIP3    H274255   5.368   3.171   5.698  3.6965 -1.3021  1.6466
17614TIP3   OH274256   1.804   5.526   4.898 -0.0690  0.7939  0.3997
17614TIP3    H174257   1.740   5.591   4.871 -0.0266  0.5886 -0.1963
17614TIP3    H274258   1.889   5.568   4.884 -0.0678  1.0430  1.1306
17615TIP3   OH274259   6.518   6.705  12.476  0.7794 -0.4228 -0.8678
17615TIP3    H174260   6.496   6.615  12.499 -1.5082 -0.2015 -1.9180
17615TIP3    H274261   6.495   6.713  12.384  1.2140  1.1731 -0.8741
17616TIP3   OH274262   0.106   1.971   1.884  0.4779 -0.0678 -0.2648
17616TIP3    H174263   0.186   1.961   1.832 -0.4822 -1.5451 -1.5631
17616TIP3    H274264   0.049   2.026   1.830 -0.5597 -1.6819 -0.8857
17617TIP3   OH274265   0.836   2.765   4.256 -0.3875  0.0066  0.4371
17617TIP3    H174266   0.764   2.713   4.292 -1.2717  0.9701  0.1116
17617TIP3    H274267   0.801   2.801   4.174  0.1289  1.2470  0.7363
17618TIP3   OH274268   4.315   0.185   5.762  0.1220 -0.1836 -0.3620
17618TIP3    H174269   4.253   0.185   5.835 -0.0970  0.0902 -0.5419
17618TIP3    H274270   4.276   0.246   5.699  2.3886  2.9913  1.0465
17619TIP3   OH274271   4.384   5.850  16.909  0.2216  0.8077 -0.2876
17619TIP3    H174272   4.401   5.941  16.932 -0.7540  0.5248  1.7022
17619TIP3    H274273   4.331   5.855  16.829  0.8396  1.9301 -0.6533
17620TIP3   OH274274   4.249   6.669   3.273  0.6691 -0.9128  0.7618
17620TIP3    H174275   4.205   6.699   3.194  1.1773 -0.5218  0.6222
17620TIP3    H274276   4.288   6.748   3.310 -0.8857 -0.7846  2.2655
17621TIP3   OH274277   3.646   6.582   5.317 -0.5256  0.2579 -1.1046
17621TIP3    H174278   3.638   6.625   5.403 -0.6661 -1.2424 -0.3455
17621TIP3    H274279   3.740   6.570   5.305 -0.5971 -2.1583  0.2266
17622TIP3   OH274280   2.109   3.277  13.376 -0.7496  0.2770  0.2695
17622TIP3    H174281   2.084   3.300  13.466  1.6799  0.7357  0.8883
17622TIP3    H274282   2.200   3.248  13.383 -0.8672 -0.8068 -1.8982
17623TIP3   OH274283   6.364   5.074  13.576  0.2121 -0.5467  0.1280
17623TIP3    H174284   6.293   5.073  13.640 -0.9639  0.6231 -1.1010
17623TIP3    H274285   6.374   5.166  13.552  1.8678 -0.7383 -0.0653
17624TIP3   OH274286   4.669   1.101   5.901 -0.2656 -0.0854 -0.3910
17624TIP3    H174287   4.663   1.011   5.932 -0.0934  0.4686  1.3937
17624TIP3    H274288   4.581   1.120   5.867 -0.4924 -0.7316 -0.1862
17625TIP3   OH274289   0.138   1.972  13.514  0.1105  0.0514 -0.1775
17625TIP3    H174290   0.210   2.010  13.565 -0.5722  0.1724  0.7375
17625TIP3    H274291   0.088   2.048  13.483  0.0752 -0.0428 -0.3530
17626TIP3   OH274292   4.839   0.349   2.263 -0.0048 -0.4904  0.3375
17626TIP3    H174293   4.841   0.283   2.332 -0.9933 -0.6977  0.1804
17626TIP3    H274294   4.813   0.301   2.184  1.5633 -0.3447 -0.2967
17627TIP3   OH274295   1.477   3.360  17.385 -0.3536  0.1109 -0.5670
17627TIP3    H174296   1.417   3.432  17.364 -2.4183 -2.0689 -2.9263
17627TIP3    H274297   1.420   3.291  17.419  1.4235 -0.7639  0.8089
17628TIP3   OH274298   3.270   2.306  13.095 -0.0909  0.2309 -0.3574
17628TIP3    H174299   3.322   2.309  13.014  1.0434  1.6533  0.3812
17628TIP3    H274300   3.212   2.382  13.088 -1.3342 -0.7149 -0.6594
17629TIP3   OH274301   0.624   2.300  16.915 -0.1432 -0.3688 -0.0786
17629TIP3    H174302   0.555   2.239  16.889 -2.5626  2.1154  0.0302
17629TIP3    H274303   0.631   2.289  17.009 -1.1488  0.0296  0.0594
17630TIP3   OH274304   4.185   0.861  17.239  0.1751  0.9253  0.5746
17630TIP3    H174305   4.219   0.942  17.201 -1.7209  1.9870  1.0396
17630TIP3    H274306   4.122   0.890  17.305  0.0573 -0.9282  1.3372
17631TIP3   OH274307   1.630   1.940   5.471 -0.5282 -0.5473  0.1832
17631TIP3    H174308   1.662   1.909   5.556  0.6968 -2.5029 -0.9233
17631TIP3    H274309   1.689   2.012   5.448  0.9581 -1.8301 -0.2208
17632TIP3   OH274310   6.512   3.337   3.648  0.3500 -0.0694 -0.8296
17632TIP3    H174311   6.419   3.358   3.658  0.5140 -0.2237  1.5670
17632TIP3    H274312   6.516   3.242   3.655  0.8086  0.0371  0.8217
17633TIP3   OH274313   3.073   6.279  16.522  0.3811 -0.8216  0.1800
17633TIP3    H174314   3.143   6.344  16.511 -0.0980 -0.3708 -0.2870
17633TIP3    H274315   3.008   6.302  16.455  0.4139 -2.0849 -0.3060
17634TIP3   OH274316   1.501   2.706   4.798 -0.6051 -0.4605  0.4096
17634TIP3    H174317   1.584   2.744   4.823  0.7074 -1.9470 -1.3748
17634TIP3    H274318   1.455   2.776   4.751 -0.7775  0.6099  2.0707
17635TIP3   OH274319   1.417   3.124   4.386 -0.7288 -0.5600 -0.3216
17635TIP3    H174320   1.417   3.167   4.472 -0.2082 -2.5970  0.7579
17635TIP3    H274321   1.500   3.149   4.346 -1.5618  1.5058 -0.8604
17636TIP3   OH274322   4.162   4.652  16.435 -0.7013  0.2299  0.0899
17636TIP3    H174323   4.157   4.599  16.514 -1.7993  1.3525  0.8059
17636TIP3    H274324   4.131   4.738  16.462  0.6384  1.1385 -1.1354
17637TIP3   OH274325   0.645   4.915   2.522  0.2218  0.1795 -0.2290
17637TIP3    H174326   0.611   4.836   2.564  0.9122 -0.3142 -0.5775
17637TIP3    H274327   0.708   4.882   2.458  0.4029  1.0112 -0.4844
17638TIP3   OH274328   2.001   2.068   1.945 -0.6043 -0.0483  0.1834
17638TIP3    H174329   2.017   2.005   1.875 -0.7618  1.7529 -1.5447
17638TIP3    H274330   1.916   2.106   1.924  0.4305  2.2717 -0.0861
17639TIP3   OH274331   6.278   3.302  17.102  0.1928 -0.5048  0.2315
17639TIP3    H174332   6.205   3.263  17.053 -0.8870  1.2713  0.3452
17639TIP3    H274333   6.332   3.344  17.035  1.3030 -2.0141  0.1219
17640TIP3   OH274334   3.736   4.915  12.143 -0.5742 -0.1537  0.0615
17640TIP3    H174335   3.795   4.845  12.170 -1.4635 -1.7513 -1.8854
17640TIP3    H274336   3.794   4.990  12.129  0.3992 -0.4374  2.1767
17641TIP3   OH274337   2.555   3.341   2.878 -0.0240 -0.5644 -0.1294
17641TIP3    H174338   2.608   3.362   2.801  0.0727 -0.3278  0.0003
17641TIP3    H274339   2.593   3.394   2.948 -0.7455 -0.0311 -0.1440
17642TIP3   OH274340   3.299   4.336   4.719  0.1640 -0.4996  0.1343
17642TIP3    H174341   3.232   4.339   4.651 -0.0933  1.5554  0.3995
17642TIP3    H274342   3.262   4.388   4.791  0.8637 -1.7451  1.4595
17643TIP3   OH274343   1.802   5.369   1.379 -0.5303 -0.5041  0.6791
17643TIP3    H174344   1.856   5.329   1.310  0.6269  0.6870  0.8440
17643TIP3    H274345   1.756   5.440   1.335 -1.1512 -0.8362  0.7776
17644TIP3   OH274346   2.000   3.901   0.955  0.2033  0.2132 -0.3355
17644TIP3    H174347   1.961   3.835   1.013  1.6200 -1.9304 -1.7015
17644TIP3    H274348   1.942   3.902   0.879  1.0613 -0.7265 -1.0300
17645TIP3   OH274349   5.274   3.549  11.849 -0.1836 -0.2499  0.4598
17645TIP3    H174350   5.243   3.466  11.886  2.1892 -0.9954  0.9665
17645TIP3    H274351   5.332   3.523  11.777 -0.0122  0.9923  0.1206
17646TIP3   OH274352   1.626   3.055   3.546 -0.0894  0.2449 -0.0404
17646TIP3    H174353   1.633   3.026   3.455  0.1619  2.7420 -0.8971
17646TIP3    H274354   1.553   3.005   3.581  0.3631 -1.4219 -1.3193
17647TIP3   OH274355   3.823   3.418  16.603  0.5527 -0.4861  0.3027
17647TIP3    H174356   3.815   3.329  16.568  1.1641 -0.4204 -0.0209
17647TIP3    H274357   3.840   3.472  16.526  0.9329 -0.2014  0.5824
17648TIP3   OH274358   4.074   1.181  14.328  0.0571  0.0197  0.1574
17648TIP3    H174359   4.022   1.103  14.309 -0.2360  0.3877 -0.5962
17648TIP3    H274360   4.010   1.252  14.330  0.3340  0.2550  0.7502
17649TIP3   OH274361   2.357   3.269  15.891  0.3741 -0.1764 -0.2568
17649TIP3    H174362   2.402   3.246  15.810 -0.0776 -1.6731 -0.1136
17649TIP3    H274363   2.411   3.232  15.960  0.3530  0.4295  0.0899
17650TIP3   OH274364   3.324   0.050   1.713 -0.3596 -0.2380  0.1327
17650TIP3    H174365   3.229   0.038   1.702 -0.3289  0.3353 -0.9188
17650TIP3    H274366   3.342   0.133   1.668  0.8121 -0.8686 -0.5987
17651TIP3   OH274367   0.319   1.049  13.356  0.0629  0.2310 -0.3672
17651TIP3    H174368   0.377   0.981  13.323 -0.5414 -0.2209 -0.5124
17651TIP3    H274369   0.256   1.002  13.412 -0.6797  0.5899 -0.8861
17652TIP3   OH274370   6.002   2.948   2.619 -0.1756  0.0420  0.3110
17652TIP3    H174371   6.058   2.922   2.692 -0.2721  1.0220  0.7442
17652TIP3    H274372   6.058   3.001   2.563 -0.3904  0.1808  0.2251
17653TIP3   OH274373   5.836   5.896   3.527  0.7167 -0.2661 -0.0438
17653TIP3    H174374   5.759   5.859   3.569 -1.6545  2.1960 -1.8189
17653TIP3    H274375   5.850   5.841   3.450 -0.9762  0.6925 -1.1048
17654TIP3   OH274376   2.529   5.296   0.130  0.2393 -0.4770 -0.2844
17654TIP3    H174377   2.478   5.243   0.070 -1.5166  1.3915 -0.5659
17654TIP3    H274378   2.609   5.318   0.082  0.1453 -1.3232 -0.8331
17655TIP3   OH274379   5.139   4.357   4.689  0.3205 -0.2222  0.1002
17655TIP3    H174380   5.163   4.353   4.782  0.5997 -0.4347  0.0207
17655TIP3    H274381   5.223   4.356   4.642  0.1605 -1.4158 -0.1909
17656TIP3   OH274382   1.365   5.496   2.039  0.6059 -0.3370  0.3285
17656TIP3    H174383   1.363   5.447   2.121 -0.2122 -1.0189 -0.0900
17656TIP3    H274384   1.374   5.430   1.970  1.5842  0.2472 -0.1306
17657TIP3   OH274385   2.653   3.042   5.748 -0.4662 -0.1602 -0.3312
17657TIP3    H174386   2.660   3.022   5.841 -0.8957 -0.7370 -0.4170
17657TIP3    H274387   2.632   2.959   5.707 -1.8858  0.3775 -0.7559
17658TIP3   OH274388   5.363   6.620   0.824 -0.5255  0.2357 -0.5504
17658TIP3    H174389   5.374   6.531   0.855  2.0563  0.6211 -0.2051
17658TIP3    H274390   5.327   6.667   0.900  0.5417  0.0187  0.1047
17659TIP3   OH274391   6.643   5.432  17.623  0.1297  0.0304  0.4758
17659TIP3    H174392   6.711   5.499  17.629 -0.1301  0.4139 -0.6370
17659TIP3    H274393   6.683   5.354  17.661  0.8595  0.4997  0.6870
17660TIP3   OH274394   1.589   1.810  17.168 -0.1702  0.1531  0.3806
17660TIP3    H174395   1.629   1.751  17.104 -0.9514 -0.5669  0.5416
17660TIP3    H274396   1.501   1.826  17.134 -0.6418 -0.3478  1.3460
17661TIP3   OH274397   5.125   0.803   3.348  0.6011  0.5274  0.6727
17661TIP3    H174398   5.065   0.844   3.410  1.4080  0.3457  1.6003
17661TIP3    H274399   5.083   0.720   3.324 -0.3901  1.2533 -0.1536
17662TIP3   OH274400   1.945   3.156  16.985 -0.2502  0.4141  0.9107
17662TIP3    H174401   2.037   3.182  16.983  0.0454 -0.5189 -1.8506
17662TIP3    H274402   1.947   3.060  16.987 -1.0587  0.2964 -1.3674
17663TIP3   OH274403   5.348   5.603  12.121  0.1803 -0.1864  0.1662
17663TIP3    H174404   5.419   5.631  12.177  1.0578  1.1877 -1.5273
17663TIP3    H274405   5.391   5.557  12.048 -0.8024 -0.7450 -0.0910
17664TIP3   OH274406   2.157   5.720   0.758 -0.0834 -0.6806  0.4520
17664TIP3    H174407   2.194   5.808   0.751 -2.5547  0.3784 -0.1991
17664TIP3    H274408   2.119   5.703   0.672 -0.4182 -2.0288  0.8370
17665TIP3   OH274409   5.505   3.355   1.613 -0.1544 -0.4213 -0.4247
17665TIP3    H174410   5.512   3.346   1.708 -1.1947 -1.5666 -0.4249
17665TIP3    H274411   5.418   3.391   1.598 -0.0044 -0.2588 -0.9485
17666TIP3   OH274412   6.412   0.203  10.708 -0.0970  0.3342 -0.3211
17666TIP3    H174413   6.391   0.157  10.626  2.4084  1.5251 -1.7573
17666TIP3    H274414   6.341   0.265  10.719 -1.2368 -0.8428 -0.7784
17667TIP3   OH274415   3.677   0.267  13.486  0.2344 -0.5132  0.0364
17667TIP3    H174416   3.681   0.328  13.560  2.3365 -0.5979  0.0418
17667TIP3    H274417   3.707   0.184  13.522  0.1525 -0.8430 -0.6447
17668TIP3   OH274418   1.324   3.832  16.919 -0.0989 -0.4841  0.4737
17668TIP3    H174419   1.288   3.885  16.990 -0.4530 -1.2129  0.8442
17668TIP3    H274420   1.419   3.839  16.930 -0.0681  1.4717 -0.5271
17669TIP3   OH274421   0.198   3.608  16.743  0.7289 -0.5957  0.3736
17669TIP3    H174422   0.178   3.515  16.748 -0.8536 -0.3281 -0.3213
17669TIP3    H274423   0.282   3.612  16.698  0.2710 -1.6576 -0.6311
17670TIP3   OH274424   4.283   4.786   3.721  0.4767 -0.2561  0.0917
17670TIP3    H174425   4.316   4.875   3.729  1.3307 -0.3310 -2.0015
17670TIP3    H274426   4.353   4.738   3.677  0.1897 -2.0854  1.4864
17671TIP3   OH274427   2.391   5.864  14.629  0.3311  0.3680 -0.4454
17671TIP3    H174428   2.424   5.797  14.569  0.3791 -0.7035  0.7347
17671TIP3    H274429   2.316   5.823  14.673  1.2116  0.5143  1.3115
17672TIP3   OH274430   3.553   3.529  12.329 -0.0524  0.2490  0.3797
17672TIP3    H174431   3.591   3.608  12.291  0.9214 -0.2312  0.3359
17672TIP3    H274432   3.469   3.559  12.366 -0.9591  0.7911 -1.8905
17673TIP3   OH274433   4.275   0.460   4.425  0.5990  0.1759  0.1920
17673TIP3    H174434   4.292   0.385   4.482  1.7913 -0.0361 -0.4145
17673TIP3    H274435   4.296   0.537   4.479 -1.7787  0.1855  1.2240
17674TIP3   OH274436   2.520   4.246   4.344 -0.6006  0.0633 -0.0302
17674TIP3    H174437   2.453   4.311   4.366 -1.0012  0.1036 -1.2711
17674TIP3    H274438   2.601   4.280   4.382 -0.8291  1.2530 -0.5558
17675TIP3   OH274439   2.995   2.204  12.812 -0.1396  0.1348 -0.2295
17675TIP3    H174440   2.969   2.194  12.721 -1.8173 -1.9328  0.3955
17675TIP3    H274441   3.002   2.115  12.845 -1.0627  0.8294  2.0478
17676TIP3   OH274442   3.378   0.854   4.498  0.4740  0.0780 -0.6194
17676TIP3    H174443   3.368   0.913   4.573  1.6971 -0.6737  0.1626
17676TIP3    H274444   3.331   0.775   4.523 -0.8999  0.5702 -1.5411
17677TIP3   OH274445   5.824   6.482  13.260 -0.1886 -0.3387  0.4679
17677TIP3    H174446   5.829   6.413  13.194  1.2634  1.6109 -1.5945
17677TIP3    H274447   5.733   6.511  13.258 -0.5413 -1.3666  0.5593
17678TIP3   OH274448   1.845   2.791   2.051 -0.8283 -0.1156  0.1889
17678TIP3    H174449   1.879   2.763   2.136 -1.5481  2.3386  1.3768
17678TIP3    H274450   1.847   2.712   1.997 -0.5575 -1.8160  2.5346
17679TIP3   OH274451   5.714   2.579   0.320 -0.4206  0.2731  0.2936
17679TIP3    H174452   5.682   2.537   0.240  0.8611 -0.7746  0.2910
17679TIP3    H274453   5.803   2.546   0.330 -0.6140  0.2394  2.2523
17680TIP3   OH274454   4.578   1.171   3.255 -0.1234  0.2680  0.7648
17680TIP3    H174455   4.654   1.116   3.275 -1.1939 -1.2700  0.8058
17680TIP3    H274456   4.572   1.231   3.329  2.3933  2.0787 -0.3242
17681TIP3   OH274457   3.472   5.986   5.214  0.2279  0.5469 -0.0124
17681TIP3    H174458   3.500   5.952   5.129 -0.4335 -1.0053  0.3613
17681TIP3    H274459   3.546   6.036   5.246  0.8666  0.2877 -1.0407
17682TIP3   OH274460   5.352   4.796  13.398  0.3186 -0.4415 -0.7155
17682TIP3    H174461   5.388   4.885  13.403  1.2346 -0.7577 -1.4347
17682TIP3    H274462   5.362   4.772  13.306 -2.3325 -0.3102 -1.1146
17683TIP3   OH274463   3.372   0.182   2.164  0.1431 -0.0863  0.1547
17683TIP3    H174464   3.365   0.183   2.260  1.3664 -0.6962  0.2768
17683TIP3    H274465   3.363   0.273   2.138 -1.3727 -0.0413  0.7362
17684TIP3   OH274466   4.114   0.165  16.818  0.0578 -0.3941 -0.6267
17684TIP3    H174467   4.091   0.073  16.804  0.1626 -0.3577 -1.0398
17684TIP3    H274468   4.146   0.195  16.733  1.2928 -0.3427 -0.1537
17685TIP3   OH274469   2.349   3.857   5.622 -0.0391 -0.0440 -0.4334
17685TIP3    H174470   2.385   3.811   5.546  0.1449 -1.7281  0.6131
17685TIP3    H274471   2.414   3.924   5.643  0.8789 -0.8581 -0.5941
17686TIP3   OH274472   3.729   1.053  17.176 -0.0853 -0.0080 -0.1150
17686TIP3    H174473   3.813   1.087  17.208 -0.0331 -0.4970  0.2859
17686TIP3    H274474   3.748   1.020  17.088 -0.3112  1.6868 -0.8368
17687TIP3   OH274475   4.731   4.706   5.862  0.3651  0.6823  0.1778
17687TIP3    H174476   4.709   4.721   5.953 -2.2203  0.7368 -0.3796
17687TIP3    H274477   4.672   4.637   5.834 -0.4491  2.1399 -1.9915
17688TIP3   OH274478   4.510   5.156  15.642 -0.3123  0.0104  0.1927
17688TIP3    H174479   4.546   5.113  15.565  1.2222  0.2041  0.7616
17688TIP3    H274480   4.420   5.177  15.618  0.0080 -0.2946 -1.3867
17689TIP3   OH274481   5.201   1.731   3.158  0.0398  0.4833  0.0310
17689TIP3    H174482   5.139   1.727   3.086 -0.4348  0.2984  0.4441
17689TIP3    H274483   5.287   1.731   3.116 -0.2421  1.1520 -0.5557
17690TIP3   OH274484   6.122   0.714   5.170 -0.1161  0.4408 -0.4729
17690TIP3    H174485   6.082   0.796   5.196  2.0706  1.0451  1.2903
17690TIP3    H274486   6.152   0.729   5.080  0.4539  1.6716 -0.0939
17691TIP3   OH274487   5.071   1.556  14.384  0.8078 -0.0714  0.2899
17691TIP3    H174488   4.994   1.499  14.378  1.0915 -0.5795  1.2815
17691TIP3    H274489   5.035   1.645  14.380  0.0402 -0.2829  1.8299
17692TIP3   OH274490   2.691   2.723  17.120 -0.0282  0.0680  0.0644
17692TIP3    H174491   2.706   2.634  17.153 -0.6798  0.3430  1.1490
17692TIP3    H274492   2.601   2.722  17.089  0.9280 -0.5441 -3.0151
17693TIP3   OH274493   4.435   3.965   3.845 -0.6167 -0.2920 -0.1056
17693TIP3    H174494   4.515   4.017   3.850 -1.0842  0.5795 -1.2504
17693TIP3    H274495   4.447   3.896   3.911  0.0051  1.2555  1.4823
17694TIP3   OH274496   3.865   6.016  15.759 -0.4626  0.3267  0.5341
17694TIP3    H174497   3.910   6.058  15.832 -0.9445  2.1179 -0.1456
17694TIP3    H274498   3.779   6.058  15.757 -0.1682  0.9364 -1.5583
17695TIP3   OH274499   1.981   4.648  12.180 -0.1313  0.1055  0.0097
17695TIP3    H174500   2.055   4.706  12.168 -0.6122  0.5976 -0.6631
17695TIP3    H274501   1.989   4.583  12.110  0.7680 -1.0659  1.1468
17696TIP3   OH274502   5.362   4.585  16.751 -0.0232 -0.4264 -0.5264
17696TIP3    H174503   5.305   4.510  16.771 -0.1817 -0.3110 -0.5415
17696TIP3    H274504   5.346   4.603  16.658 -0.3757 -0.0422 -0.3895
17697TIP3   OH274505   2.402   3.565   3.648  1.1144  0.0400 -0.2545
17697TIP3    H174506   2.338   3.585   3.717 -0.4336 -1.0915 -1.3010
17697TIP3    H274507   2.433   3.477   3.670  0.9221 -0.1560 -0.7566
17698TIP3   OH274508   6.569   4.838   2.204  0.2008 -0.4151  0.2225
17698TIP3    H174509   6.497   4.860   2.144 -0.7077 -0.1199  1.3846
17698TIP3    H274510   6.577   4.743   2.198 -1.3225 -0.6293  1.1957
17699TIP3   OH274511   5.974   0.392   3.964 -0.3245 -0.0008 -0.2030
17699TIP3    H174512   6.059   0.432   3.981 -0.2462 -0.2247 -0.0635
17699TIP3    H274513   5.936   0.445   3.894 -0.0502  0.0719 -0.2972
17700TIP3   OH274514   3.962   6.408   0.489 -0.2584 -0.2105 -0.4692
17700TIP3    H174515   4.050   6.390   0.523  0.2317  1.3430 -0.8071
17700TIP3    H274516   3.969   6.388   0.395 -0.3893 -0.5166 -0.4121
17701TIP3   OH274517   3.375   0.140   6.009 -0.4086  0.3757 -0.1424
17701TIP3    H174518   3.293   0.174   6.045 -0.6440 -1.3531  1.1039
17701TIP3    H274519   3.349   0.062   5.960  0.3881  0.4346 -0.6777
17702TIP3   OH274520   2.787   3.315  14.469 -0.3366  0.1909  0.1586
17702TIP3    H174521   2.833   3.398  14.455  1.8730 -0.7412  1.4560
17702TIP3    H274522   2.725   3.311  14.396  1.2399  1.8043 -1.4080
17703TIP3   OH274523   4.402   2.732   7.055 -0.3768  0.1186  0.4133
17703TIP3    H174524   4.415   2.652   7.005 -1.1300  0.6298 -0.6303
17703TIP3    H274525   4.485   2.779   7.047 -1.0339  1.0237 -1.9228
17704TIP3   OH274526   5.169   3.351   5.489  0.3356  0.4394  0.3232
17704TIP3    H174527   5.170   3.270   5.439  0.2611  0.5367  0.1629
17704TIP3    H274528   5.120   3.412   5.435 -3.9420 -0.6861  2.4459
17705TIP3   OH274529   0.753   5.702  11.624  0.1841 -0.3238  0.2207
17705TIP3    H174530   0.734   5.626  11.569  0.2412  0.9327 -1.6311
17705TIP3    H274531   0.796   5.764  11.565 -2.7567  2.4743  0.7164
17706TIP3   OH274532   2.530   6.470   1.698 -0.2905  0.0161  0.5658
17706TIP3    H174533   2.553   6.460   1.790  1.9760  0.1283  0.0656
17706TIP3    H274534   2.473   6.395   1.679 -1.2660  0.3024  2.1549
17707TIP3   OH274535   2.195   3.249   3.039  0.2863 -0.1342  0.1899
17707TIP3    H174536   2.154   3.207   2.964 -3.3757  1.8320  0.8810
17707TIP3    H274537   2.185   3.186   3.111 -0.9170 -0.0028  0.1588
17708TIP3   OH274538   2.379   4.588   6.632 -0.9065  0.1773 -0.4096
17708TIP3    H174539   2.449   4.628   6.684 -1.0182 -0.8820  0.5917
17708TIP3    H274540   2.420   4.570   6.547 -0.2337  0.4000 -0.1387
17709TIP3   OH274541   6.456   1.566   2.830  0.5886 -0.7059  0.2464
17709TIP3    H174542   6.443   1.651   2.872  2.7210  0.3343 -1.0220
17709TIP3    H274543   6.370   1.524   2.833 -0.9835  2.1875 -0.5457
17710TIP3   OH274544   4.278   1.328  15.765 -0.0739  0.2435 -0.4045
17710TIP3    H174545   4.272   1.408  15.817 -3.2352 -1.2124  1.7771
17710TIP3    H274546   4.196   1.326  15.715  0.0715 -1.4632 -0.6334
17711TIP3   OH274547   5.063   0.360   3.816 -0.2173 -0.3693 -0.3031
17711TIP3    H174548   5.074   0.369   3.911  0.4813 -0.7728 -0.3376
17711TIP3    H274549   5.091   0.444   3.781  1.4151 -0.8654 -0.2763
17712TIP3   OH274550   1.495   4.601  17.095  0.7732 -0.6471 -0.4130
17712TIP3    H174551   1.515   4.671  17.033  0.5033 -1.5782 -1.5810
17712TIP3    H274552   1.430   4.547  17.051  0.6854 -1.4254  0.6244
17713TIP3   OH274553   0.683   0.438  11.378  0.1951  0.5620 -0.0480
17713TIP3    H174554   0.674   0.377  11.304 -0.3942  0.2865  0.2445
17713TIP3    H274555   0.777   0.457  11.381  0.0809  1.6363 -1.7067
17714TIP3   OH274556   3.589   6.010   3.778  0.2056  0.0232 -0.7165
17714TIP3    H174557   3.553   5.997   3.690 -1.0044  0.1216 -0.2480
17714TIP3    H274558   3.566   6.100   3.801  0.2463 -0.1031 -0.1720
17715TIP3   OH274559   0.394   2.989  13.694 -0.1039 -0.3009 -0.4034
17715TIP3    H174560   0.347   3.007  13.613  1.2412 -0.2527 -1.2016
17715TIP3    H274561   0.399   2.894  13.699 -2.3414 -0.4339  0.9498
17716TIP3   OH274562   4.022   3.743  11.992  0.3408 -0.3286 -0.1064
17716TIP3    H174563   4.090   3.676  11.999 -0.5538 -1.6247 -2.9009
17716TIP3    H274564   3.979   3.726  11.909 -2.5821  1.2751  0.9394
17717TIP3   OH274565   1.227   4.171   2.732 -0.4778 -0.4770 -0.2340
17717TIP3    H174566   1.142   4.192   2.693 -0.0580 -1.7710 -1.9530
17717TIP3    H274567   1.229   4.076   2.735  1.4467 -0.5297 -1.5575
17718TIP3   OH274568   4.125   0.471  16.475  0.0381  0.4493  0.6924
17718TIP3    H174569   4.031   0.477  16.459  0.1762 -0.5602 -0.6629
17718TIP3    H274570   4.162   0.544  16.425 -0.0027  0.6539  0.9619
17719TIP3   OH274571   1.580   0.740  15.181  0.0469 -0.2874  0.4500
17719TIP3    H174572   1.578   0.691  15.098  1.1392  1.2888 -0.5655
17719TIP3    H274573   1.489   0.748  15.207 -0.1910 -2.6273  0.5412
17720TIP3   OH274574   2.935   6.495   2.301 -0.3634 -0.2979 -0.2267
17720TIP3    H174575   2.849   6.472   2.266  0.2305 -0.7643 -1.4278
17720TIP3    H274576   2.959   6.575   2.255  0.5207 -1.0349 -1.0806
17721TIP3   OH274577   3.182   6.574  11.805  0.5238 -0.4177  0.5415
17721TIP3    H174578   3.271   6.550  11.831  1.3244  0.2610 -1.3459
17721TIP3    H274579   3.191   6.664  11.772 -0.1739 -1.3361 -2.5092
17722TIP3   OH274580   0.038   3.606   0.706  0.5918  0.2345 -0.0354
17722TIP3    H174581   0.096   3.534   0.732 -0.9515 -1.5721 -1.3337
17722TIP3    H274582  -0.014   3.624   0.785  0.2481 -0.8588  0.0086
17723TIP3   OH274583   4.937   2.795   6.613 -0.5653  0.2631 -0.2079
17723TIP3    H174584   4.914   2.768   6.524  1.2706 -1.2426 -0.2968
17723TIP3    H274585   4.942   2.714   6.663  1.7249  0.7063  0.4051
17724TIP3   OH274586   0.664   2.270  16.149 -0.2078 -0.5465  0.4245
17724TIP3    H174587   0.744   2.221  16.129 -0.2047  0.1105 -1.3058
17724TIP3    H274588   0.594   2.210  16.125 -0.2062  0.3322 -2.0343
17725TIP3   OH274589   1.568   4.637   5.671 -0.3770 -0.0758 -0.3109
17725TIP3    H174590   1.542   4.727   5.651 -2.6767 -0.8597 -1.1466
17725TIP3    H274591   1.486   4.589   5.679  0.7629 -1.9521  1.0183
17726TIP3   OH274592   6.006   4.399   5.599  0.3126 -0.2147 -0.4675
17726TIP3    H174593   5.954   4.318   5.609 -2.0104  1.0974 -1.1480
17726TIP3    H274594   6.035   4.398   5.508  0.4677 -0.3685 -0.4179
17727TIP3   OH274595   0.990   0.884   0.068  0.3672  0.0307 -0.0966
17727TIP3    H174596   0.897   0.869   0.087  0.4444 -0.2985  0.0338
17727TIP3    H274597   0.993   0.901  -0.027  0.4809 -2.7961 -0.6894
17728TIP3   OH274598   5.250   2.125   3.368 -0.4999 -0.5388 -0.2136
17728TIP3    H174599   5.170   2.174   3.351 -0.9355 -0.9601  0.5397
17728TIP3    H274600   5.275   2.151   3.457  0.9966  0.6625 -0.9367
17729TIP3   OH274601   3.391   5.578  17.282  0.3243 -0.0634 -0.4268
17729TIP3    H174602   3.311   5.629  17.296  0.4821  0.4651 -1.3492
17729TIP3    H274603   3.377   5.497  17.332  0.1608  0.9570  1.2451
17730TIP3   OH274604   0.249   5.682   2.282 -0.1306  0.3015 -0.4095
17730TIP3    H174605   0.254   5.622   2.356 -0.4965  0.1727 -0.4883
17730TIP3    H274606   0.167   5.729   2.295  0.0806  0.6812 -0.4270
17731TIP3   OH274607   0.248   2.911  14.555 -0.1275 -0.7417 -0.5037
17731TIP3    H174608   0.306   2.987  14.554 -0.1923 -0.6291  1.1140
17731TIP3    H274609   0.305   2.837  14.537  0.2543 -0.4738 -0.4094
17732TIP3   OH274610   5.919   1.754  16.326 -0.5768 -0.0302 -0.0125
17732TIP3    H174611   5.937   1.667  16.362  2.8337  0.9338  1.0799
17732TIP3    H274612   5.980   1.762  16.252 -0.3125  1.6515  0.3475
17733TIP3   OH274613   3.981   2.701   2.925 -0.1529  0.4697 -0.3595
17733TIP3    H174614   4.011   2.642   2.995  0.5050  1.6837  0.4287
17733TIP3    H274615   3.910   2.654   2.882 -0.8607 -0.1658  1.4034
17734TIP3   OH274616   2.443   3.552   0.397  0.7974  0.1232  0.0359
17734TIP3    H174617   2.400   3.637   0.393 -0.0137 -0.2858 -0.2276
17734TIP3    H274618   2.519   3.566   0.454  0.9955  1.1491 -0.4527
17735TIP3   OH274619   1.883   3.179   3.947  0.1134  0.2216 -0.5690
17735TIP3    H174620   1.924   3.181   4.033  1.2164  0.5691 -1.0785
17735TIP3    H274621   1.789   3.177   3.965  0.2474  2.0437  0.6375
17736TIP3   OH274622   3.352   1.549  15.686  0.2667 -0.3682 -0.1021
17736TIP3    H174623   3.374   1.471  15.735 -0.5807 -0.0911  0.7536
17736TIP3    H274624   3.270   1.580  15.726  1.3230  1.7571  0.5495
17737TIP3   OH274625   4.617   4.701  13.344 -0.0084  0.1573 -0.2929
17737TIP3    H174626   4.618   4.653  13.427 -1.7378  0.0874 -0.2742
17737TIP3    H274627   4.690   4.762  13.350  1.2491 -1.3414  0.3572
17738TIP3   OH274628   4.500   6.063  13.881  0.2004  0.2046  0.2909
17738TIP3    H174629   4.569   6.130  13.876  1.3183 -0.8491  1.0459
17738TIP3    H274630   4.421   6.112  13.902  1.0369  1.2816  1.0621
17739TIP3   OH274631   6.127   5.539   3.795  0.2739 -0.2284 -0.1572
17739TIP3    H174632   6.143   5.502   3.882 -1.6835  0.3348  0.4862
17739TIP3    H274633   6.152   5.470   3.734  1.8103 -0.5868  0.8245
17740TIP3   OH274634   4.872   1.135   5.722  0.4830 -0.9356  0.1690
17740TIP3    H174635   4.923   1.215   5.737  0.9070 -1.0128 -0.7940
17740TIP3    H274636   4.812   1.131   5.796  1.4767 -0.5329  1.0216
17741TIP3   OH274637   3.043   1.383   4.467  0.1230 -0.3595 -0.0870
17741TIP3    H174638   3.031   1.289   4.453 -3.6624 -0.0719  0.3681
17741TIP3    H274639   3.026   1.423   4.382 -0.7412  0.0327  0.2569
17742TIP3   OH274640   3.266   1.902   6.402 -0.4709 -0.0800 -0.1085
17742TIP3    H174641   3.216   1.947   6.469 -1.6893 -2.4355  0.6675
17742TIP3    H274642   3.323   1.842   6.450  3.1586  2.3337 -0.9506
17743TIP3   OH274643   6.657   4.391   3.735 -0.2128 -0.5186 -0.9961
17743TIP3    H174644   6.605   4.448   3.792  2.4378  0.9608  0.1811
17743TIP3    H274645   6.627   4.411   3.647 -0.3986  1.7019 -0.4948
17744TIP3   OH274646   3.685   0.809   6.003 -0.5056  0.0899 -0.2768
17744TIP3    H174647   3.623   0.854   6.061 -2.5229  0.6389 -2.6932
17744TIP3    H274648   3.704   0.872   5.934  0.5662 -1.0565 -1.0811
17745TIP3   OH274649   2.769   1.886   5.263 -0.1768  0.8485 -0.0271
17745TIP3    H174650   2.862   1.907   5.258 -0.3600  1.8709  0.4457
17745TIP3    H274651   2.738   1.933   5.341 -0.9021 -0.2279  0.3680
17746TIP3   OH274652   4.847   5.052   4.490  0.1623 -0.2880 -0.3248
17746TIP3    H174653   4.862   5.096   4.574  0.8832  0.7794 -0.9815
17746TIP3    H274654   4.765   5.090   4.458 -0.8283 -1.6682  0.4762
17747TIP3   OH274655   2.063   3.570  12.558 -0.1380  0.5728  0.3934
17747TIP3    H174656   2.075   3.646  12.500  1.4654  0.2589  0.2535
17747TIP3    H274657   2.092   3.601  12.643 -0.0199  0.2807  0.4597
17748TIP3   OH274658   5.739   1.957  11.985 -0.1162  0.4163  0.0947
17748TIP3    H174659   5.746   1.864  12.009  0.4324  0.2036 -0.8689
17748TIP3    H274660   5.645   1.971  11.974 -0.1860 -0.0767  0.0307
17749TIP3   OH274661   4.872   6.222  15.173  0.1231  0.7139 -0.5199
17749TIP3    H174662   4.948   6.167  15.193 -0.3123  0.4957  0.6109
17749TIP3    H274663   4.898   6.310  15.198  1.0845  1.2116 -3.0084
17750TIP3   OH274664   5.764   4.991   5.413 -0.3295  0.0103  0.2512
17750TIP3    H174665   5.772   4.908   5.459  0.3850  0.5706  1.1644
17750TIP3    H274666   5.678   5.024   5.437 -0.1882  0.0306  0.7337
17751TIP3   OH274667   2.117   5.988   1.854 -0.3300 -0.5150 -0.7645
17751TIP3    H174668   2.149   6.045   1.923 -0.3727 -0.9020 -0.4232
17751TIP3    H274669   2.026   5.971   1.877 -0.7269  0.3671 -1.5892
17752TIP3   OH274670   1.609   0.292   4.638  0.0580 -1.0803  0.5126
17752TIP3    H174671   1.632   0.360   4.701 -2.3684 -0.2674  0.6388
17752TIP3    H274672   1.610   0.210   4.687  1.8949 -1.0034  0.6385
17753TIP3   OH274673   4.779   6.360  11.790 -0.1606  0.1340  0.3006
17753TIP3    H174674   4.813   6.270  11.791  0.4881  0.3524 -0.6016
17753TIP3    H274675   4.792   6.389  11.700 -0.2725  1.1686  0.6104
17754TIP3   OH274676   6.012   2.455  14.838  0.3491  0.9478 -0.4874
17754TIP3    H174677   5.956   2.514  14.887 -0.3982 -0.6919  0.7512
17754TIP3    H274678   5.974   2.452  14.750 -2.1690 -0.7806  0.5271
17755TIP3   OH274679   5.495   5.982   0.029 -0.0873 -0.2770  0.1360
17755TIP3    H174680   5.418   5.931   0.004  0.1496 -0.6923  0.2457
17755TIP3    H274681   5.475   6.015   0.117 -0.4267  0.1942 -0.1157
17756TIP3   OH274682   0.842   6.416   2.470  0.1360  0.1935  0.4282
17756TIP3    H174683   0.864   6.467   2.392 -1.0108  0.0633  0.0054
17756TIP3    H274684   0.757   6.451   2.498 -0.5056 -1.2285  0.3326
17757TIP3   OH274685   4.317   1.925   1.897 -0.2785  0.6430  0.5140
17757TIP3    H174686   4.301   1.850   1.840 -1.5334 -0.6490  2.4362
17757TIP3    H274687   4.294   2.001   1.844 -1.4438 -0.5129 -0.7085
17758TIP3   OH274688   3.228   1.282   3.128 -0.3261  0.2382  0.2685
17758TIP3    H174689   3.320   1.304   3.113 -0.2015 -2.6093 -5.5258
17758TIP3    H274690   3.228   1.189   3.149 -1.9013  0.0852 -0.2378
17759TIP3   OH274691   2.977   1.470  13.889  0.2140  0.5497 -0.4139
17759TIP3    H174692   3.058   1.431  13.856 -1.0202 -1.4484 -1.2038
17759TIP3    H274693   2.970   1.438  13.979  0.1634  0.5133 -0.4311
17760TIP3   OH274694   6.526   1.818  13.404 -0.0453  0.0014 -0.2604
17760TIP3    H174695   6.537   1.906  13.440  0.1050  0.0446 -0.4080
17760TIP3    H274696   6.488   1.767  13.476  0.3305  0.0663 -0.0117
17761TIP3   OH274697   3.968   1.177  17.247 -0.0611  0.1206  0.1430
17761TIP3    H174698   4.037   1.176  17.313 -0.0429 -0.8871  0.1274
17761TIP3    H274699   4.013   1.194  17.164  0.2803 -1.2192  0.0319
17762TIP3   OH274700   2.545   4.524  13.194 -0.0199 -0.5961 -0.3675
17762TIP3    H174701   2.637   4.518  13.220 -0.0015  1.4246  0.2100
17762TIP3    H274702   2.542   4.602  13.139 -1.2087 -1.2948 -1.3288
17763TIP3   OH274703   3.752   2.475   0.441  0.2171  0.2844  0.7565
17763TIP3    H174704   3.792   2.508   0.522  1.9825  0.0302  0.0346
17763TIP3    H274705   3.798   2.393   0.424 -0.4041  0.1441 -0.2989
17764TIP3   OH274706   3.091   4.345  11.508  0.5611  0.5706 -0.1795
17764TIP3    H174707   3.181   4.336  11.540  1.7501  3.0200 -2.4736
17764TIP3    H274708   3.040   4.371  11.585  1.3099 -2.5828  1.5832
17765TIP3   OH274709   4.920   5.045   5.505 -0.3957 -0.4539  0.0657
17765TIP3    H174710   4.891   5.115   5.446 -1.6230 -1.4991 -0.6370
17765TIP3    H274711   5.004   5.018   5.470  0.3065  0.9279  0.6036
17766TIP3   OH274712   0.396   5.487   5.617 -0.3400 -0.9352 -0.5350
17766TIP3    H174713   0.333   5.436   5.565 -0.3023 -1.6599  0.1161
17766TIP3    H274714   0.439   5.423   5.672  0.8491 -0.4170 -0.8270
17767TIP3   OH274715   1.706   0.869   2.325  0.0571 -0.2093  0.1579
17767TIP3    H174716   1.789   0.821   2.314 -0.8453 -2.4656  2.1808
17767TIP3    H274717   1.713   0.908   2.412 -0.4884  0.7517 -0.2208
17768TIP3   OH274718   0.582   1.190   1.575 -0.6427  0.0787 -0.2132
17768TIP3    H174719   0.581   1.280   1.607  1.2853  1.2988 -3.1641
17768TIP3    H274720   0.663   1.153   1.611  0.4414  0.7707 -1.8429
17769TIP3   OH274721   4.835   1.716   0.902  0.0099 -0.2889 -0.5764
17769TIP3    H174722   4.884   1.684   0.977  1.2322  0.4140 -1.0324
17769TIP3    H274723   4.748   1.734   0.936 -0.5523 -3.3638 -0.1658
17770TIP3   OH274724   0.564   5.729  13.702  0.3369 -0.4376  0.3131
17770TIP3    H174725   0.600   5.755  13.787 -0.1767  2.1134 -0.1547
17770TIP3    H274726   0.641   5.714  13.647  0.7147  0.9194  0.4337
17771TIP3   OH274727   5.611   0.884  17.268 -0.2116 -0.1052 -0.8300
17771TIP3    H174728   5.659   0.958  17.304 -0.2287 -0.9555  1.0673
17771TIP3    H274729   5.678   0.817  17.254 -0.4658 -0.3964 -0.6668
17772TIP3   OH274730   3.072   5.755   5.418 -0.0502  0.6789 -0.7324
17772TIP3    H174731   3.069   5.746   5.322 -1.4544 -0.0190 -0.6542
17772TIP3    H274732   3.150   5.808   5.435  0.4061  0.5313 -2.2404
17773TIP3   OH274733   1.502   1.904  14.627 -0.0413 -0.1214  0.2537
17773TIP3    H174734   1.552   1.970  14.674  0.3940  0.0322 -0.4170
17773TIP3    H274735   1.414   1.941  14.619 -0.2092 -0.2790  1.1943
17774TIP3   OH274736   5.632   0.756  14.917  0.1699  0.2721 -0.0538
17774TIP3    H174737   5.702   0.691  14.917 -1.0550 -1.0980  1.1559
17774TIP3    H274738   5.554   0.708  14.889 -0.6920  1.3117  0.4854
17775TIP3   OH274739   4.891   5.271   1.257  0.3177 -0.6605  0.1848
17775TIP3    H174740   4.811   5.301   1.301  0.3828 -1.0424  0.5716
17775TIP3    H274741   4.860   5.209   1.191  0.0768  1.0945 -1.4248
17776TIP3   OH274742   1.977   6.563   3.987  0.2742  0.1099  0.1344
17776TIP3    H174743   1.903   6.558   3.926 -0.4597 -0.3818  1.0306
17776TIP3    H274744   1.989   6.656   4.003 -1.7266  0.1555  1.7833
17777TIP3   OH274745   3.210   4.945   4.739 -0.2284  0.1593  0.0521
17777TIP3    H174746   3.297   4.944   4.781 -0.1061 -0.6516 -0.2080
17777TIP3    H274747   3.193   5.038   4.723  0.2044  0.4039  0.9045
17778TIP3   OH274748   2.389   3.221   0.215  0.0620 -0.0732 -0.2140
17778TIP3    H174749   2.479   3.233   0.187 -0.0592 -0.8247 -0.9597
17778TIP3    H274750   2.343   3.298   0.181  0.6699  1.0307  1.3782
17779TIP3   OH274751   0.034   3.722   4.392 -0.2354 -0.1951 -0.1443
17779TIP3    H174752  -0.028   3.665   4.348 -1.2901  0.0588  0.9537
17779TIP3    H274753  -0.003   3.810   4.382  0.5340  0.1066 -0.4353
17780TIP3   OH274754   2.925   5.971   0.911 -0.1285 -0.1742  0.2486
17780TIP3    H174755   2.842   5.935   0.942 -1.3840  1.4105 -1.0587
17780TIP3    H274756   2.921   6.064   0.935  1.7450 -0.2538  1.0498
17781TIP3   OH274757   0.162   2.247  11.554  0.1536 -0.4931 -0.3866
17781TIP3    H174758   0.253   2.276  11.558  0.4016 -1.3214  0.4169
17781TIP3    H274759   0.129   2.261  11.643 -0.5687 -0.0415 -0.7134
17782TIP3   OH274760   5.814   5.964  13.968  0.1279 -0.3029 -0.5689
17782TIP3    H174761   5.861   5.912  13.904  1.9204  2.2864 -1.5196
17782TIP3    H274762   5.731   5.918  13.979  1.8445 -3.7275 -0.6678
17783TIP3   OH274763   1.003   5.204  14.704  0.1917 -0.3400 -0.1043
17783TIP3    H174764   1.085   5.247  14.679 -1.1752  1.6195 -1.4706
17783TIP3    H274765   0.984   5.237  14.792 -0.0293  0.6169 -0.5055
17784TIP3   OH274766   3.607   6.550  13.989 -0.5291 -0.3794  0.5755
17784TIP3    H174767   3.660   6.579  14.064  2.5091 -2.6042 -0.5063
17784TIP3    H274768   3.583   6.460  14.011 -0.8186 -0.5710 -0.5023
17785TIP3   OH274769   3.500   6.222   1.709  0.1797 -0.0097 -0.4189
17785TIP3    H174770   3.573   6.182   1.756  0.5081 -1.3289 -1.9351
17785TIP3    H274771   3.431   6.156   1.711 -1.3635  1.5222  1.6841
17786TIP3   OH274772   2.239   1.373   6.658  0.4508  0.1052 -0.4025
17786TIP3    H174773   2.187   1.327   6.724 -0.7102 -0.0196 -1.3773
17786TIP3    H274774   2.314   1.315   6.643  0.6827  0.0836  0.6998
17787TIP3   OH274775   4.878   2.505   1.076 -0.0317  0.1284  0.6282
17787TIP3    H174776   4.899   2.547   0.993  0.2737 -0.6015  0.3239
17787TIP3    H274777   4.928   2.423   1.074  0.9812  0.6819  2.0848
17788TIP3   OH274778   4.419   2.188   1.147 -0.1933 -0.1103 -0.0577
17788TIP3    H174779   4.512   2.211   1.154  0.3232 -2.3758  2.0664
17788TIP3    H274780   4.388   2.238   1.072  2.5092  1.4383 -0.2920
17789TIP3   OH274781   4.347   1.488  14.091 -0.5191 -0.0047 -0.9805
17789TIP3    H174782   4.330   1.499  13.998 -0.2991  0.4072 -0.9724
17789TIP3    H274783   4.373   1.575  14.122  0.7702 -0.4259 -0.8207
17790TIP3   OH274784   5.038   6.573  11.820  0.0275  0.0210 -0.2193
17790TIP3    H174785   5.125   6.604  11.794  0.4560  0.1464  1.2890
17790TIP3    H274786   4.989   6.569  11.738  1.6679 -0.7667 -1.2056
17791TIP3   OH274787   1.332   6.508  14.264  0.1008  0.5953  0.0527
17791TIP3    H174788   1.323   6.551  14.349  1.1451 -0.7152  0.8599
17791TIP3    H274789   1.307   6.575  14.201 -2.3443  1.1323  1.4318
17792TIP3   OH274790   5.550   1.783   1.331  0.5111 -0.8687  0.3880
17792TIP3    H174791   5.641   1.779   1.301  0.0504 -0.6529 -1.1370
17792TIP3    H274792   5.507   1.711   1.284 -0.2643 -0.4690  0.4847
17793TIP3   OH274793   6.166   0.927   4.311  0.6933 -0.2018 -0.1025
17793TIP3    H174794   6.098   0.913   4.245  1.3729  2.1786 -1.4416
17793TIP3    H274795   6.185   0.840   4.346 -2.6352 -1.0300 -0.0178
17794TIP3   OH274796   5.834   6.685  14.715  0.3616 -0.4046 -0.3765
17794TIP3    H174797   5.812   6.619  14.781 -2.0225  0.1879 -0.4578
17794TIP3    H274798   5.925   6.667  14.691  0.4595 -2.2694  1.1637
17795TIP3   OH274799   5.543   0.490  13.385  0.0506  0.6651  0.1200
17795TIP3    H174800   5.609   0.515  13.449 -1.0085  1.4148  0.9580
17795TIP3    H274801   5.516   0.573  13.344 -0.5808  0.4119  0.0054
17796TIP3   OH274802   2.253   3.761  12.684 -0.4927  0.5368  0.1891
17796TIP3    H174803   2.321   3.717  12.632 -1.7021 -1.1727 -0.0576
17796TIP3    H274804   2.281   3.749  12.775 -0.3128  0.0708  0.0779
17797TIP3   OH274805   2.604   1.333   1.467  0.2119 -0.1791 -0.1855
17797TIP3    H174806   2.612   1.382   1.549 -1.1522 -0.8817  0.3816
17797TIP3    H274807   2.585   1.243   1.494 -1.9097 -0.1032 -1.2645
17798TIP3   OH274808   1.120   5.733   5.091 -0.5282  0.3956 -0.0730
17798TIP3    H174809   1.168   5.677   5.030  0.3323  0.0217  0.9247
17798TIP3    H274810   1.060   5.783   5.036  0.8218  0.6810 -1.3139
17799TIP3   OH274811   3.612   1.630   0.716  0.5239 -0.4806  0.2637
17799TIP3    H174812   3.694   1.579   0.714 -0.1759 -1.6689 -1.7166
17799TIP3    H274813   3.544   1.564   0.704 -0.6218  0.6672  0.3679
17800TIP3   OH274814   2.661   2.840  12.998  0.0595 -0.1441 -0.6032
17800TIP3    H174815   2.576   2.811  13.033  0.9981 -0.6792  1.3705
17800TIP3    H274816   2.674   2.926  13.036  1.4267 -1.0321  1.0611
17801TIP3   OH274817   5.666   2.234   4.706  0.3873 -0.0456 -0.5764
17801TIP3    H174818   5.598   2.228   4.773  1.8130 -1.8200  0.8068
17801TIP3    H274819   5.729   2.297   4.741  0.1225  0.5931 -1.2343
17802TIP3   OH274820   4.522   4.496   1.510  0.2153  0.0156  0.8112
17802TIP3    H174821   4.556   4.407   1.496 -0.2565 -0.4959  2.5629
17802TIP3    H274822   4.433   4.493   1.474  0.4860  0.0329  0.1328
17803TIP3   OH274823   0.045   4.249  17.526  0.1090 -0.3661 -0.5218
17803TIP3    H174824   0.057   4.257  17.431  0.6798  0.3138 -0.4049
17803TIP3    H274825  -0.037   4.295  17.544  0.5819  0.5105 -0.5525
17804TIP3   OH274826   6.435   2.946  15.589 -0.0511 -0.0393  0.4695
17804TIP3    H174827   6.353   2.961  15.543 -0.4007  1.3811  1.5046
17804TIP3    H274828   6.492   3.018  15.562  0.6414 -0.6300  0.2909
17805TIP3   OH274829   1.868   1.142   0.532  0.7496  0.0411  0.6148
17805TIP3    H174830   1.948   1.091   0.522  0.9834  0.3760  0.7422
17805TIP3    H274831   1.798   1.085   0.500  1.3067  0.5409 -1.7003
17806TIP3   OH274832   5.855   1.595  17.437  0.1883  0.4283 -0.1321
17806TIP3    H174833   5.781   1.535  17.432 -0.5523  1.2434  0.6722
17806TIP3    H274834   5.840   1.645  17.517  2.0825  0.0132  0.5463
17807TIP3   OH274835   6.413   3.480   5.376 -0.0670 -0.5214 -0.4826
17807TIP3    H174836   6.363   3.402   5.401  0.5980  0.1925  4.0889
17807TIP3    H274837   6.347   3.547   5.361 -0.5666 -1.1900 -1.3656
17808TIP3   OH274838   2.815   1.431  15.893  0.0684 -0.0542  0.1270
17808TIP3    H174839   2.758   1.505  15.874 -1.7076 -1.4843 -0.3504
17808TIP3    H274840   2.865   1.417  15.812  1.0794  1.1359  0.5141
17809TIP3   OH274841   5.493   1.326  13.550 -1.0560  0.3410  0.5264
17809TIP3    H174842   5.487   1.364  13.462 -1.8458  0.2928  0.5519
17809TIP3    H274843   5.417   1.361  13.597 -1.5276 -0.8639  0.7030
17810TIP3   OH274844   6.632   2.104  12.193  0.0789 -0.0808 -0.0050
17810TIP3    H174845   6.584   2.171  12.241  0.2892 -0.2210  0.4030
17810TIP3    H274846   6.721   2.137  12.186  0.5004 -0.8512  1.2873
17811TIP3   OH274847   5.848   3.424   1.094  0.0990  0.2725 -0.1566
17811TIP3    H174848   5.852   3.471   1.177 -1.2918 -0.3335  0.2748
17811TIP3    H274849   5.938   3.429   1.060  1.0416 -0.5712  1.9971
17812TIP3   OH274850   6.657   1.904  14.495 -0.0904  0.0051  0.5085
17812TIP3    H174851   6.687   1.966  14.428 -0.1449 -0.2397  0.2565
17812TIP3    H274852   6.606   1.958  14.556 -2.1150 -0.1554 -0.9304
17813TIP3   OH274853   2.560   3.606   4.083  0.6773 -0.5371 -0.2840
17813TIP3    H174854   2.554   3.701   4.073  1.2233 -0.5499 -0.7565
17813TIP3    H274855   2.652   3.590   4.103  0.3314 -0.8497  1.2321
17814TIP3   OH274856   5.912   2.874   2.214  0.2318  0.3189 -0.6076
17814TIP3    H174857   5.979   2.935   2.243 -0.6653  0.3747  1.5869
17814TIP3    H274858   5.853   2.927   2.160  0.2769  1.0458  0.0338
17815TIP3   OH274859   6.252   2.669  12.320  0.4414 -0.2389  0.0989
17815TIP3    H174860   6.302   2.746  12.292 -0.8286  0.1003 -1.4037
17815TIP3    H274861   6.194   2.702  12.389  0.5845 -0.0804  0.1444
17816TIP3   OH274862   1.939   5.630  14.074 -0.1974  0.3012 -0.1993
17816TIP3    H174863   1.867   5.624  14.136  0.3433  0.1234  0.4274
17816TIP3    H274864   1.997   5.698  14.110  0.5412 -0.3901 -0.0488
17817TIP3   OH274865   4.444   1.884   4.780  0.4582  0.1168  0.1543
17817TIP3    H174866   4.427   1.865   4.687 -0.0788  4.4110 -0.8306
17817TIP3    H274867   4.372   1.842   4.826  1.2391 -2.9437 -1.1340
17818TIP3   OH274868   1.903   2.313   5.463 -0.4711 -0.6932  0.1213
17818TIP3    H174869   1.976   2.359   5.421 -1.1393 -0.5564 -0.9279
17818TIP3    H274870   1.945   2.239   5.507  0.6276  0.8766  1.8689
17819TIP3   OH274871   4.832   6.092  15.568  0.6308  0.0416  0.2154
17819TIP3    H174872   4.898   6.160  15.565  0.8237 -0.1044  0.9554
17819TIP3    H274873   4.751   6.137  15.593  0.3006  0.3143 -1.2367
17820TIP3   OH274874   1.383   2.874  12.022 -0.2650 -0.0806 -0.5271
17820TIP3    H174875   1.328   2.797  12.009 -0.7031  0.4297 -1.8774
17820TIP3    H274876   1.323   2.948  12.015  0.1966  0.4097  0.5060
17821TIP3   OH274877   0.574   4.004   1.157  0.1246 -0.3681  0.4732
17821TIP3    H174878   0.578   3.932   1.094  0.2815  0.7676 -0.8568
17821TIP3    H274879   0.482   4.032   1.155  0.4174  0.6010 -0.3720
17822TIP3   OH274880   5.547   3.126  16.183 -0.0518 -0.1584 -0.5660
17822TIP3    H174881   5.507   3.112  16.097 -0.2716 -0.4775 -0.4132
17822TIP3    H274882   5.505   3.206  16.216 -0.1011 -0.1385 -0.6806
17823TIP3   OH274883   5.022   0.899   0.102  0.2792 -0.4914 -1.0073
17823TIP3    H174884   5.068   0.933   0.025 -0.3257 -2.5517 -2.3800
17823TIP3    H274885   4.935   0.877   0.069 -0.4235 -0.2408  0.6141
17824TIP3   OH274886   3.568   6.431  13.610 -0.4374  0.0377  0.0450
17824TIP3    H174887   3.507   6.438  13.684 -0.8053 -0.9194 -0.1507
17824TIP3    H274888   3.629   6.362  13.635 -0.2358  0.0808 -0.3169
17825TIP3   OH274889   2.332   4.665   1.325  0.4173 -0.2348  0.5298
17825TIP3    H174890   2.405   4.673   1.264 -1.8728  0.4179 -2.3508
17825TIP3    H274891   2.307   4.755   1.344  1.0349 -0.4255  2.4962
17826TIP3   OH274892   5.888   3.786  13.498  0.1837 -0.2009  0.0479
17826TIP3    H174893   5.848   3.725  13.560 -0.8250  2.1177  1.7972
17826TIP3    H274894   5.921   3.730  13.428 -1.8206 -2.6396  0.9132
17827TIP3   OH274895   3.953   3.704   1.583 -0.4537  0.4324 -0.0281
17827TIP3    H174896   3.913   3.652   1.653 -1.8798  1.3685 -0.0999
17827TIP3    H274897   3.947   3.794   1.614 -0.9356  0.8461 -1.2545
17828TIP3   OH274898   2.296   2.083  12.365 -0.6907  0.6206 -0.2289
17828TIP3    H174899   2.361   2.062  12.298  2.0309  0.9031  2.1365
17828TIP3    H274900   2.268   2.172  12.344  1.2947  1.3102 -0.1595
17829TIP3   OH274901   6.326   1.900   1.174 -0.0867  0.1212  0.2099
17829TIP3    H174902   6.361   1.984   1.146  0.7626 -0.8857 -1.9903
17829TIP3    H274903   6.380   1.874   1.248  1.4371  0.2950 -0.8088
17830TIP3   OH274904   0.791   5.802  11.001 -0.1779  0.3967  0.3551
17830TIP3    H174905   0.785   5.795  10.906  0.3976 -2.8418  0.4424
17830TIP3    H274906   0.820   5.715  11.030  0.3790  1.4762  3.4486
17831TIP3   OH274907   1.548   6.199   4.014 -0.4771 -0.4161  0.4711
17831TIP3    H174908   1.463   6.212   4.056 -0.2534 -0.9170  1.0937
17831TIP3    H274909   1.611   6.199   4.086 -0.0323 -0.8166  0.0930
17832TIP3   OH274910   0.022   6.613  16.187  0.4536  0.1960  0.3653
17832TIP3    H174911  -0.062   6.653  16.209  0.3663  0.7135 -0.8516
17832TIP3    H274912   0.074   6.684  16.151  0.0152 -0.8239 -2.6018
17833TIP3   OH274913   5.925   4.828   3.812  0.2102 -0.2353  0.5196
17833TIP3    H174914   5.916   4.876   3.730  1.1493 -0.0240  0.5329
17833TIP3    H274915   5.837   4.830   3.850 -1.0572 -2.8816 -1.8600
17834TIP3   OH274916   5.746   3.620   6.112 -0.0265  0.6253  0.4316
17834TIP3    H174917   5.771   3.563   6.186 -0.2460  1.5206  1.2148
17834TIP3    H274918   5.652   3.632   6.122  0.2870  2.6031  1.3758
17835TIP3   OH274919   1.427   4.471  13.593 -0.1442 -0.0388 -0.5946
17835TIP3    H174920   1.404   4.490  13.684 -2.0985  0.1911 -1.1087
17835TIP3    H274921   1.521   4.493  13.588  0.2505 -0.9623  1.5713
17836TIP3   OH274922   0.001   4.230  15.276  0.3431  0.4321  0.1403
17836TIP3    H174923   0.089   4.205  15.303  0.7441  2.0564  0.4503
17836TIP3    H274924  -0.057   4.181  15.335  1.0289 -0.3303  0.2047
17837TIP3   OH274925   1.221   5.051   2.372 -0.1398 -0.1316 -0.3107
17837TIP3    H174926   1.216   4.955   2.364 -0.2799 -0.1540  0.0455
17837TIP3    H274927   1.174   5.083   2.295 -0.8620 -0.3525  0.0240
17838TIP3   OH274928   1.743   5.936   3.961 -0.2439  0.3014  0.0607
17838TIP3    H174929   1.723   5.941   4.055 -0.6131 -0.7726  0.0584
17838TIP3    H274930   1.702   6.013   3.923 -0.8618  0.2771  0.6593
17839TIP3   OH274931   5.150   1.800  16.320  0.5441 -0.2481  0.2967
17839TIP3    H174932   5.081   1.840  16.372  0.4059  1.1676 -0.9300
17839TIP3    H274933   5.230   1.847  16.345  0.6415 -0.2095 -0.0821
17840TIP3   OH274934   3.410   1.775   1.323 -0.0068  0.0649 -0.2020
17840TIP3    H174935   3.407   1.856   1.271 -1.0565  0.5128  0.5331
17840TIP3    H274936   3.374   1.708   1.265  2.6645 -0.3524 -1.5512
17841TIP3   OH274937   4.841   4.098   3.290  0.3677  0.7605  0.3007
17841TIP3    H174938   4.881   4.172   3.243  0.9014  1.4659  1.7689
17841TIP3    H274939   4.900   4.025   3.274 -0.1765  0.6182 -1.1926
17842TIP3   OH274940   5.083   1.972   1.560 -0.4127  0.0643  0.3830
17842TIP3    H174941   5.086   1.896   1.618 -0.2200 -0.2297 -0.0166
17842TIP3    H274942   5.043   2.041   1.614 -1.2221 -0.5022  0.5217
17843TIP3   OH274943   1.891   0.395  14.141 -0.3864 -0.2449 -0.1628
17843TIP3    H174944   1.984   0.419  14.140 -0.6978  1.3466  2.2619
17843TIP3    H274945   1.852   0.447  14.071  0.2167  0.7675  0.2233
17844TIP3   OH274946   2.641   2.552   0.923 -0.6226 -0.2096  0.1760
17844TIP3    H174947   2.596   2.627   0.884  0.3492  0.7174  0.7674
17844TIP3    H274948   2.652   2.490   0.851 -0.4996  0.6699 -0.5842
17845TIP3   OH274949   4.905   3.792   1.907  0.3763  0.2395 -0.2678
17845TIP3    H174950   4.918   3.854   1.835  0.6264 -1.0890 -1.4052
17845TIP3    H274951   4.968   3.722   1.890 -0.3054 -0.6179  0.6493
17846TIP3   OH274952   4.029   2.157   2.614  0.1147 -0.0520  0.5571
17846TIP3    H174953   4.073   2.098   2.675 -0.6956 -0.4208  0.7983
17846TIP3    H274954   4.034   2.113   2.530  0.3251 -0.0298  0.5584
17847TIP3   OH274955   1.872   5.152   5.158  0.5472 -0.3725  0.3496
17847TIP3    H174956   1.942   5.201   5.115  0.6308 -0.1085  0.7767
17847TIP3    H274957   1.805   5.142   5.091  1.3019 -1.2900 -0.2964
17848TIP3   OH274958   5.547   6.083  16.271 -0.1293 -0.7439 -0.1953
17848TIP3    H174959   5.562   6.078  16.365 -1.8151  0.7666  0.2085
17848TIP3    H274960   5.604   6.153  16.241 -0.8911 -0.0076  0.0408
17849TIP3   OH274961   2.805   6.546  12.235 -0.3068  0.0703  0.3364
17849TIP3    H174962   2.796   6.548  12.140  1.1819 -0.6565  0.1497
17849TIP3    H274963   2.741   6.481  12.263  0.4357 -0.9971 -0.3636
17850TIP3   OH274964   0.162   0.455  15.911  0.3190  0.0347 -0.0247
17850TIP3    H174965   0.068   0.437  15.908  0.4517 -0.7221  0.1044
17850TIP3    H274966   0.179   0.478  16.002  0.3626 -0.4503  0.0931
17851TIP3   OH274967   2.040   3.846  13.173 -0.4489  0.1171  0.4618
17851TIP3    H174968   2.002   3.885  13.095 -0.4666  0.9485  0.8738
17851TIP3    H274969   1.969   3.794  13.211 -0.3030 -0.6568 -0.3067
17852TIP3   OH274970   0.026   0.137  17.447  0.6597  0.3609  0.1927
17852TIP3    H174971  -0.055   0.096  17.416  1.2175  0.6060 -1.7228
17852TIP3    H274972   0.016   0.142  17.542 -1.2127 -0.3634  0.0675
17853TIP3   OH274973   5.617   1.647  15.816 -0.2242  0.1373  0.2982
17853TIP3    H174974   5.579   1.580  15.872  0.3926  0.1841  0.7872
17853TIP3    H274975   5.687   1.685  15.869  1.6054 -1.0604 -1.1068
17854TIP3   OH274976   1.914   0.425  13.386  0.3025 -0.1517  0.1192
17854TIP3    H174977   1.975   0.436  13.459 -1.1267  1.6991  1.1520
17854TIP3    H274978   1.832   0.399  13.428 -0.0805 -0.8333 -1.0319
17855TIP3   OH274979   4.105   2.332   4.665 -0.3209  0.1287  0.5591
17855TIP3    H174980   4.107   2.240   4.690  0.0861 -0.1840 -0.5496
17855TIP3    H274981   4.187   2.368   4.698  0.0172 -0.1746  0.0625
17856TIP3   OH274982   1.091   0.069  14.856  0.3786 -0.1735  0.5045
17856TIP3    H174983   1.185   0.083  14.868  0.3042  0.2697  0.5723
17856TIP3    H274984   1.049   0.143  14.899  0.0252  0.0688 -0.2254
17857TIP3   OH274985   2.640   5.026  14.593  0.5730 -0.4330 -0.4058
17857TIP3    H174986   2.725   4.993  14.562  0.3915 -0.7057 -0.6128
17857TIP3    H274987   2.589   5.040  14.514  0.8093  0.8061 -0.3504
17858TIP3   OH274988   5.789   5.809   1.235  0.2357 -0.2022 -0.2940
17858TIP3    H174989   5.795   5.905   1.236  2.1118 -0.2852  0.1920
17858TIP3    H274990   5.757   5.787   1.323  1.1686 -0.0588  0.0972
17859TIP3   OH274991   2.669   1.524   4.117 -0.8699  0.0125 -0.8001
17859TIP3    H174992   2.734   1.594   4.106 -0.6246 -0.2279 -0.9079
17859TIP3    H274993   2.701   1.452   4.062 -0.4064 -0.6680  0.3041
17860TIP3   OH274994   1.928   4.496   2.487  0.6748 -0.1115  0.4018
17860TIP3    H174995   1.904   4.513   2.396 -1.9331  0.6632  1.1759
17860TIP3    H274996   2.024   4.493   2.486  0.7040 -0.7267 -2.4494
17861TIP3   OH274997   2.691   2.157  16.247  0.3005  0.4112 -0.3027
17861TIP3    H174998   2.652   2.244  16.257  0.8979  0.6836 -0.3313
17861TIP3    H274999   2.627   2.098  16.288 -0.9268  0.6532 -1.8054
17862TIP3   OH275000   1.916   0.599   6.056 -0.4130  0.0958 -0.2764
17862TIP3    H175001   1.968   0.583   6.135  0.1823  1.2567 -0.4058
17862TIP3    H275002   1.966   0.558   5.985  0.0049  0.6422 -0.3048
17863TIP3   OH275003   1.851   3.385  14.989  0.8484 -0.1930  0.2173
17863TIP3    H175004   1.783   3.406  14.926  0.5676  0.6892  0.7937
17863TIP3    H275005   1.893   3.306  14.954  0.7327  0.2919 -1.0813
17864TIP3   OH275006   1.541   5.034  16.741  0.0974 -0.2246  1.0960
17864TIP3    H175007   1.515   5.033  16.649 -1.2338  1.1418  1.4004
17864TIP3    H275008   1.636   5.046  16.740  0.1545 -0.7280 -0.0922
17865TIP3   OH275009   6.628   0.936  17.313 -0.0037  0.4366  0.3486
17865TIP3    H175010   6.619   0.943  17.408  1.2169  0.7066  0.4644
17865TIP3    H275011   6.577   1.008  17.278 -0.6403  0.2074  0.7838
17866TIP3   OH275012   2.529   3.141   3.784 -0.3258 -0.2440  0.2160
17866TIP3    H175013   2.439   3.169   3.796 -0.1041  0.2757  0.7094
17866TIP3    H275014   2.563   3.196   3.714  0.3693  1.4067  1.7583
17867TIP3   OH275015   3.703   4.149   0.619  0.1256 -0.3937  0.4855
17867TIP3    H175016   3.749   4.170   0.701  3.2907  0.6473 -1.3985
17867TIP3    H275017   3.686   4.234   0.578 -1.1671 -0.9145 -0.1053
17868TIP3   OH275018   0.325   5.241   5.243 -0.3740  0.7673  0.3656
17868TIP3    H175019   0.312   5.288   5.325  1.8100  0.1526  1.1136
17868TIP3    H275020   0.384   5.296   5.192  0.8920 -0.3583  0.5741
17869TIP3   OH275021   2.731   6.253  14.704  0.3663 -0.4754  0.8058
17869TIP3    H175022   2.643   6.254  14.665  1.6128 -0.7292 -2.2300
17869TIP3    H275023   2.754   6.345  14.714  2.1235  0.0574 -4.6658
17870TIP3   OH275024   5.513   1.919  10.967  0.0294 -0.0799 -0.0075
17870TIP3    H175025   5.496   1.876  10.883  0.0357 -0.4256  0.1650
17870TIP3    H275026   5.490   2.011  10.952 -0.8181 -0.2980 -0.1365
17871TIP3   OH275027   6.189   1.412   3.771 -0.3196 -0.3902  0.3633
17871TIP3    H175028   6.094   1.397   3.774 -0.4586  0.2667 -0.4664
17871TIP3    H275029   6.212   1.396   3.680 -0.0839  2.0554 -0.0527
17872TIP3   OH275030   0.225   6.144   2.094 -0.1676 -0.3270 -0.3622
17872TIP3    H175031   0.180   6.114   2.015 -0.2411  0.0076 -0.4482
17872TIP3    H275032   0.316   6.154   2.068 -0.1877 -0.2385 -0.3990
17873TIP3   OH275033   3.304   5.661   0.228  0.4490 -0.2930  0.3969
17873TIP3    H175034   3.388   5.617   0.216  0.4274 -0.4964  0.9864
17873TIP3    H275035   3.308   5.737   0.169  0.8496 -0.5713  0.0619
17874TIP3   OH275036   4.008   6.038   3.483 -0.2642  0.3380 -0.8886
17874TIP3    H175037   3.971   6.006   3.566 -0.0205  2.1878 -0.0110
17874TIP3    H275038   3.949   6.109   3.457  0.2651  0.4657 -1.7535
17875TIP3   OH275039   5.796   2.857   4.397 -0.1194  0.1821 -0.0266
17875TIP3    H175040   5.786   2.803   4.475  1.0407  1.2084  0.8560
17875TIP3    H275041   5.789   2.947   4.429  2.1962  0.6857 -0.7815
17876TIP3   OH275042   4.564   4.052  11.309 -0.3839  0.8207 -0.4317
17876TIP3    H175043   4.541   4.139  11.277  1.1887  0.6831 -2.0689
17876TIP3    H275044   4.644   4.066  11.361  0.9592  0.1595 -2.2408
17877TIP3   OH275045   1.963   2.071  12.158 -0.4811  0.6910  0.0739
17877TIP3    H175046   2.012   2.149  12.133 -1.0974  1.5654  1.4361
17877TIP3    H275047   1.978   2.063  12.253  1.1593 -2.0190 -0.3243
17878TIP3   OH275048   1.626   6.061   1.028 -0.3068 -0.3920 -0.0272
17878TIP3    H175049   1.674   6.077   1.110  0.7742 -1.2071 -0.4676
17878TIP3    H275050   1.534   6.066   1.053 -0.0477  2.0950  0.6758
17879TIP3   OH275051   0.636   0.461  14.834  0.6106 -0.2028 -0.1216
17879TIP3    H175052   0.657   0.487  14.744 -0.4047  0.2282 -0.2484
17879TIP3    H275053   0.632   0.543  14.883  0.8327 -0.4079  0.2409
17880TIP3   OH275054   0.346   4.550   0.293  0.3277 -0.2293  0.5897
17880TIP3    H175055   0.381   4.471   0.335  2.3609 -0.1718 -0.8369
17880TIP3    H275056   0.358   4.535   0.199 -2.9579  0.1549 -0.0163
17881TIP3   OH275057   3.204   1.333  13.882  0.5868 -0.1263  0.4304
17881TIP3    H175058   3.147   1.263  13.852  0.0384 -0.1180  1.4054
17881TIP3    H275059   3.261   1.351  13.808  1.0202 -1.8785  0.2895
17882TIP3   OH275060   2.342   4.789   4.477  0.2008  0.5534 -0.1917
17882TIP3    H175061   2.436   4.789   4.465  0.1062 -0.6465 -1.0268
17882TIP3    H275062   2.325   4.723   4.544 -0.1713 -0.5008 -1.2938
17883TIP3   OH275063   4.857   2.245  11.868  0.2459  0.4749 -0.6165
17883TIP3    H175064   4.851   2.155  11.900  1.7727  1.2849  2.2834
17883TIP3    H275065   4.766   2.274  11.861 -0.2309 -0.9106 -0.4596
17884TIP3   OH275066   3.297   1.863   2.762  0.2619 -1.0817  0.3254
17884TIP3    H175067   3.385   1.858   2.798 -0.4750  1.3515  2.7912
17884TIP3    H275068   3.298   1.802   2.688  3.8214 -1.4988  0.5431
17885TIP3   OH275069   6.261   1.718   1.558 -0.1587 -0.3939 -0.0882
17885TIP3    H175070   6.245   1.702   1.651 -1.5197  0.4198 -0.1669
17885TIP3    H275071   6.174   1.731   1.520  0.2476 -2.0602 -1.7555
17886TIP3   OH275072   1.753   4.250  13.458  0.4458  0.2691  0.2537
17886TIP3    H175073   1.770   4.204  13.376  0.9502 -0.8101  0.9361
17886TIP3    H275074   1.789   4.192  13.525  0.7023  1.4744  1.1858
17887TIP3   OH275075   0.194   2.745  15.563 -0.1871 -0.0404  0.0524
17887TIP3    H175076   0.269   2.712  15.513  0.1137  0.2375  0.3077
17887TIP3    H275077   0.129   2.675  15.559 -0.0695 -0.1172 -0.5191
17888TIP3   OH275078   5.590   0.015  16.115 -0.1933  0.1425  0.6619
17888TIP3    H175079   5.664  -0.010  16.060 -0.1469 -1.0515  1.2300
17888TIP3    H275080   5.601   0.109  16.130  1.4993 -0.1043  1.1444
17889TIP3   OH275081   2.016   5.733  12.466  0.1940  0.1083 -0.1695
17889TIP3    H175082   2.029   5.680  12.544  0.8883  0.8293  0.2202
17889TIP3    H275083   2.047   5.678  12.394  0.4118 -0.2155  0.1671
17890TIP3   OH275084   5.436   2.608   3.129 -0.1882 -0.1554  0.1497
17890TIP3    H175085   5.399   2.687   3.169 -1.1993 -0.8794  0.6978
17890TIP3    H275086   5.492   2.640   3.059 -0.0837  1.0701  0.7785
17891TIP3   OH275087   0.761   0.670   4.732 -0.3565 -0.4689 -0.2811
17891TIP3    H175088   0.761   0.685   4.826  0.6591 -2.9518  0.2087
17891TIP3    H275089   0.670   0.650   4.710 -0.3588 -1.4508  0.5265
17892TIP3   OH275090   1.517   4.278  14.050 -0.4165  0.2160 -0.0841
17892TIP3    H175091   1.519   4.198  14.102  1.6542 -0.2566 -0.8092
17892TIP3    H275092   1.491   4.346  14.111  0.2359 -0.6205  1.1539
17893TIP3   OH275093   4.028   5.573   4.057 -0.0518 -0.8517 -0.6848
17893TIP3    H175094   3.958   5.513   4.034 -1.1309 -0.2652  0.9045
17893TIP3    H275095   4.078   5.527   4.124 -1.6415  0.3960  1.4967
17894TIP3   OH275096   5.548   3.341  13.429  0.0555 -0.4161 -0.0664
17894TIP3    H175097   5.580   3.264  13.382  1.8097  0.6804 -0.7498
17894TIP3    H275098   5.499   3.391  13.364  1.5493  0.5507 -0.4963
17895TIP3   OH275099   0.599   4.317  16.006 -0.1187 -0.3228  1.0487
17895TIP3    H175100   0.543   4.317  16.084  0.5696  0.1794  1.5611
17895TIP3    H275101   0.641   4.231  16.006 -0.0441 -0.2891  1.2998
17896TIP3   OH275102   3.578   1.668   3.154  0.4150 -0.2025  0.1031
17896TIP3    H175103   3.535   1.611   3.090  0.6247 -0.6584  0.3649
17896TIP3    H275104   3.612   1.741   3.102 -1.3962  0.6039  0.0003
17897TIP3   OH275105   5.315   2.740  16.560 -0.1318  0.0462 -0.0194
17897TIP3    H175106   5.386   2.683  16.532  1.0198  0.1735  2.3751
17897TIP3    H275107   5.236   2.697  16.528  0.9398 -0.6438 -1.8689
17898TIP3   OH275108   0.271   2.692  16.569  0.3489  0.2705  0.3351
17898TIP3    H175109   0.271   2.744  16.489 -0.8030 -3.0294 -2.0267
17898TIP3    H275110   0.181   2.697  16.602 -0.0050 -0.8361 -0.4075
17899TIP3   OH275111   4.730   6.051   5.225 -0.3304  0.5940 -0.0898
17899TIP3    H175112   4.678   5.970   5.223  0.7196 -0.1298  0.7666
17899TIP3    H275113   4.820   6.022   5.206  0.2571  1.3772  1.3745
17900TIP3   OH275114   2.001   3.656   5.509  0.2637  0.0107 -0.3900
17900TIP3    H175115   2.025   3.743   5.542  0.4488 -0.5205  0.9577
17900TIP3    H275116   1.957   3.673   5.426  0.1753  1.3997 -0.0823
17901TIP3   OH275117   2.352   2.173  13.501 -0.2951 -0.0534 -0.1681
17901TIP3    H175118   2.274   2.220  13.472 -1.8164 -0.6438  2.6434
17901TIP3    H275119   2.397   2.235  13.559 -0.2506 -0.6983  0.5021
17902TIP3   OH275120   2.076   5.684  12.846  0.4815 -0.2440  0.3247
17902TIP3    H175121   2.171   5.677  12.847  0.6447  1.0917 -1.2764
17902TIP3    H275122   2.059   5.779  12.849 -0.6444 -0.2704 -2.6715
17903TIP3   OH275123   2.731   1.480   1.677 -0.0168  0.7873 -0.1176
17903TIP3    H175124   2.817   1.491   1.635  0.5070  0.5625  0.8544
17903TIP3    H275125   2.741   1.400   1.729 -1.0283  0.4167 -0.4723
17904TIP3   OH275126   0.661   3.270  17.105 -0.2542 -0.1638  0.4409
17904TIP3    H175127   0.688   3.358  17.131  3.2997 -0.4428 -1.6913
17904TIP3    H275128   0.732   3.213  17.135  0.0352 -1.5303 -2.4886
17905TIP3   OH275129   5.564   0.036  14.698  0.1516 -1.0070 -0.2260
17905TIP3    H175130   5.540   0.000  14.784  0.4468  0.8708  0.6965
17905TIP3    H275131   5.659   0.029  14.695  0.3568  0.8327  0.5626
17906TIP3   OH275132   5.714   5.000  16.591 -0.8114 -0.0801 -0.4260
17906TIP3    H175133   5.673   5.016  16.676  1.8293 -0.6609  1.0787
17906TIP3    H275134   5.730   4.906  16.589  1.3036  0.2208 -0.4206
17907TIP3   OH275135   3.836   1.562  11.537 -0.1901  0.4435 -0.2517
17907TIP3    H175136   3.898   1.631  11.513  1.9633 -1.0929  0.5001
17907TIP3    H275137   3.751   1.596  11.513  1.0339  2.2734 -2.3589
17908TIP3   OH275138   4.684   6.295   2.281  0.1928  0.3320 -0.0725
17908TIP3    H175139   4.689   6.330   2.370 -0.0412 -1.3966  0.6526
17908TIP3    H275140   4.619   6.351   2.237  1.2689  2.0244  0.4096
17909TIP3   OH275141   4.103   5.921   6.344 -0.0002  0.2195 -0.0404
17909TIP3    H175142   4.170   5.863   6.309 -0.0769 -0.8301  1.4541
17909TIP3    H275143   4.031   5.915   6.281  0.2512 -0.7938 -0.2387
17910TIP3   OH275144   4.106   5.191  14.113 -0.3889  0.1001  0.4293
17910TIP3    H175145   4.018   5.226  14.131  0.2315  1.1583  1.5311
17910TIP3    H275146   4.093   5.096  14.108 -1.3821  0.1097  1.9916
17911TIP3   OH275147   5.228   3.974  16.513 -0.0130 -0.0414 -0.5391
17911TIP3    H175148   5.151   4.024  16.489 -0.4097 -0.9399 -1.2131
17911TIP3    H275149   5.284   3.976  16.435  0.5785  0.4795 -0.1082
17912TIP3   OH275150   5.683   0.188  13.504 -0.3292 -0.6435 -0.6044
17912TIP3    H175151   5.680   0.282  13.520  1.6425 -0.7096  0.4267
17912TIP3    H275152   5.602   0.154  13.542 -1.0423  0.6207 -0.9669
17913TIP3   OH275153   4.084   5.684   3.505 -0.3115  0.5106 -0.1670
17913TIP3    H175154   4.176   5.682   3.533 -0.3676  1.7308  0.1603
17913TIP3    H275155   4.035   5.682   3.587 -0.6677 -1.8713 -0.3616
17914TIP3   OH275156   4.707   1.544  17.254  0.5227 -0.2751  0.2462
17914TIP3    H175157   4.705   1.516  17.162  0.5711 -3.1575  1.0449
17914TIP3    H275158   4.622   1.585  17.268  0.7511  0.8100 -1.2021
17915TIP3   OH275159   6.400   2.301  13.137  0.2801 -0.0963  0.2820
17915TIP3    H175160   6.426   2.384  13.097 -1.4411  0.8835  1.0875
17915TIP3    H275161   6.388   2.322  13.230  0.1507 -1.3256  0.5593
17916TIP3   OH275162   6.065   3.768  16.142 -0.1125  0.2713  0.1191
17916TIP3    H175163   6.110   3.842  16.182  1.7983 -0.0187 -1.3713
17916TIP3    H275164   6.126   3.694  16.150 -1.2162 -0.6977 -0.0488
17917TIP3   OH275165   3.636   5.609   6.675 -0.8109  0.5020  0.2964
17917TIP3    H175166   3.602   5.685   6.628  0.2728  0.1811 -1.0762
17917TIP3    H275167   3.689   5.646   6.746 -1.2004  1.0157  0.3238
17918TIP3   OH275168   2.111   4.642  16.845  0.4717 -0.6157  0.6733
17918TIP3    H175169   2.021   4.615  16.866  0.0489 -0.1849 -0.4601
17918TIP3    H275170   2.101   4.732  16.812  1.3743 -0.4200  0.9301
17919TIP3   OH275171   2.551   2.425  11.998 -0.0774 -0.7717 -0.5872
17919TIP3    H175172   2.486   2.487  11.966  0.6117 -0.6937 -1.8930
17919TIP3    H275173   2.531   2.343  11.954 -0.1005 -1.1124  0.0351
17920TIP3   OH275174   4.408   4.682   5.699 -0.1088  0.3814  0.3177
17920TIP3    H175175   4.334   4.625   5.719 -1.5099  1.6824 -0.9482
17920TIP3    H275176   4.484   4.637   5.738 -1.7401 -0.1640  3.1614
17921TIP3   OH275177   1.655   2.189   4.475  0.1329 -0.0565  0.3119
17921TIP3    H175178   1.699   2.274   4.470  0.5058 -0.3262 -2.9220
17921TIP3    H275179   1.571   2.203   4.432 -0.1514 -1.1278  0.4893
17922TIP3   OH275180   0.293   5.329  12.455 -0.2618 -0.0042  0.3121
17922TIP3    H175181   0.322   5.415  12.487 -2.1710  0.2232  1.6011
17922TIP3    H275182   0.288   5.275  12.534  1.6334 -1.5898 -0.5673
17923TIP3   OH275183   2.819   5.026   4.833  0.0887  0.7003  0.5032
17923TIP3    H175184   2.894   4.991   4.880 -0.0246 -0.1373  0.0736
17923TIP3    H275185   2.774   4.949   4.798 -0.2803  1.2613 -0.2873
17924TIP3   OH275186   0.024   5.101  14.596  0.2971 -0.2154  0.0086
17924TIP3    H175187   0.020   5.051  14.677 -1.5977  0.4050  0.3666
17924TIP3    H275188   0.041   5.191  14.625  1.1993 -0.2389 -0.4249
17925TIP3   OH275189   5.618   2.272   1.591  0.0721  0.0274  0.0054
17925TIP3    H175190   5.613   2.187   1.548 -3.3077  0.9999 -1.9040
17925TIP3    H275191   5.685   2.320   1.542 -0.0665 -0.5935 -0.8154
17926TIP3   OH275192   2.736   0.041  15.725 -0.3730 -0.0139  0.1646
17926TIP3    H175193   2.673   0.030  15.795 -0.9908  0.6455 -0.2719
17926TIP3    H275194   2.771   0.129  15.737 -0.1955 -0.0394 -0.1288
17927TIP3   OH275195   4.515   5.057   4.280  0.1343 -0.4805  0.0564
17927TIP3    H175196   4.443   5.000   4.250 -1.6331  1.0866  1.0937
17927TIP3    H275197   4.527   5.034   4.372 -1.9537  1.9806  1.0762
17928TIP3   OH275198   2.862   2.080   2.461 -0.4938  0.3308  0.3446
17928TIP3    H175199   2.864   2.003   2.517  1.2424  0.6537  0.7884
17928TIP3    H275200   2.952   2.088   2.427 -0.4186  2.5520  0.8818
17929TIP3   OH275201   5.255   4.595  16.459  0.2619  0.4821 -0.8390
17929TIP3    H175202   5.198   4.657  16.504  0.5670 -0.3381  0.7595
17929TIP3    H275203   5.320   4.650  16.414  1.3532  1.3670  1.6365
17930TIP3   OH275204   5.417   1.718  12.714  0.7649 -0.0816  0.1903
17930TIP3    H175205   5.496   1.749  12.759  1.2138  0.2593 -0.8096
17930TIP3    H275206   5.418   1.764  12.630  0.1684 -1.0284 -0.3484
17931TIP3   OH275207   2.380   5.603  11.611  0.3247  0.1502  0.8522
17931TIP3    H175208   2.378   5.689  11.570  0.5498 -0.6813 -1.0197
17931TIP3    H275209   2.413   5.619  11.700 -1.9752  2.2790  1.4227
17932TIP3   OH275210   5.483   1.429   1.735 -0.1195  0.1398 -0.6993
17932TIP3    H175211   5.557   1.420   1.676  0.6645  0.9420  0.1271
17932TIP3    H275212   5.452   1.340   1.749  0.4846 -0.1731 -1.3116
17933TIP3   OH275213   4.453   5.213   1.021 -0.0339 -0.2458  0.3765
17933TIP3    H175214   4.468   5.167   1.104 -2.4136 -0.0698  0.9863
17933TIP3    H275215   4.417   5.298   1.047  2.4436  1.2660 -0.7944
17934TIP3   OH275216   1.132   4.458  16.486  0.7691  0.2496  0.8093
17934TIP3    H175217   1.082   4.391  16.532 -1.7722  0.4693 -1.3909
17934TIP3    H275218   1.184   4.500  16.554 -0.8155 -1.1045  2.9930
17935TIP3   OH275219   2.186   2.999   6.158 -0.2497  0.0534 -0.3753
17935TIP3    H175220   2.167   2.944   6.234  1.1028 -0.6534 -0.5162
17935TIP3    H275221   2.263   3.050   6.183  1.2062 -1.3361 -1.7746
17936TIP3   OH275222   0.339   6.209  16.550 -0.4639  0.1695 -0.3620
17936TIP3    H175223   0.336   6.156  16.630 -2.2258  0.9472  0.1463
17936TIP3    H275224   0.279   6.165  16.490  0.3189 -0.0230 -1.0138
17937TIP3   OH275225   3.623   6.044   4.113 -0.2421  0.1234 -0.1065
17937TIP3    H175226   3.572   6.032   4.033 -1.3919 -0.8162  0.7429
17937TIP3    H275227   3.673   5.962   4.122  1.5499  1.0549 -0.9690
17938TIP3   OH275228   4.636   3.828   3.216 -0.1913  0.3212  0.2500
17938TIP3    H175229   4.650   3.853   3.125 -0.6846 -1.6255 -0.4144
17938TIP3    H275230   4.558   3.876   3.243 -0.9867 -0.2904 -0.8895
17939TIP3   OH275231   3.609   2.324   3.379 -0.1130 -0.1540  0.1083
17939TIP3    H175232   3.581   2.336   3.470  0.3975  2.2083  0.0053
17939TIP3    H275233   3.697   2.287   3.385  0.0230  0.2451  0.5662
17940TIP3   OH275234   5.824   5.872   0.624  0.0281  0.1140 -0.2435
17940TIP3    H175235   5.828   5.852   0.531 -1.9547  0.9823 -0.5582
17940TIP3    H275236   5.751   5.933   0.633 -0.1738 -0.3545  1.9487
17941TIP3   OH275237   5.266   3.013   5.682 -0.0694 -0.2300 -0.3938
17941TIP3    H175238   5.209   3.010   5.759  0.1192  0.2268 -0.2374
17941TIP3    H275239   5.208   3.035   5.609 -0.0484  0.4908 -0.1932
17942TIP3   OH275240   3.520   4.329  15.682  0.1875  0.1791 -0.7206
17942TIP3    H175241   3.508   4.242  15.722 -0.0600 -0.3794 -1.9513
17942TIP3    H275242   3.450   4.334  15.617  0.0405  1.4331 -0.4832
17943TIP3   OH275243   5.560   2.255  13.732 -0.0091 -0.2468  0.0675
17943TIP3    H175244   5.513   2.222  13.808 -1.6412  0.0585 -0.7689
17943TIP3    H275245   5.495   2.306  13.684  0.9954 -0.3901 -1.5008
17944TIP3   OH275246   1.287   2.881   4.376 -0.4060  0.2664 -0.5325
17944TIP3    H175247   1.337   2.961   4.357  0.6833 -0.2259  0.2104
17944TIP3    H275248   1.202   2.897   4.335 -0.6670  2.3401  0.6603
17945TIP3   OH275249   5.451   4.054  17.493 -0.4201  0.4203  0.5176
17945TIP3    H175250   5.492   4.126  17.541 -0.2023  0.8630 -0.3126
17945TIP3    H275251   5.517   3.985  17.492  0.2051  1.0163 -0.5448
17946TIP3   OH275252   1.218   3.815  16.390  0.0920  0.6352  0.1379
17946TIP3    H175253   1.206   3.727  16.426 -0.2530  0.7293  0.2593
17946TIP3    H275254   1.148   3.824  16.325  0.9351  0.3328 -0.8256
17947TIP3   OH275255   1.827   3.730  13.267  0.1955 -0.5209 -0.2057
17947TIP3    H175256   1.865   3.645  13.289 -0.5680 -0.3922  1.7781
17947TIP3    H275257   1.737   3.710  13.241 -0.3011 -0.2609  1.2384
17948TIP3   OH275258   6.364   5.811   2.028 -0.4589 -0.4143 -0.4112
17948TIP3    H175259   6.447   5.858   2.039  0.4561 -1.2442 -2.8784
17948TIP3    H275260   6.297   5.879   2.024  0.3113  0.3849 -0.0598
17949TIP3   OH275261   2.815   5.339   0.111 -0.2016 -0.5814  0.6049
17949TIP3    H175262   2.819   5.254   0.068 -0.5717 -0.8874  1.1547
17949TIP3    H275263   2.862   5.326   0.194  1.5475  0.3253 -0.2047
17950TIP3   OH275264   0.392   2.539  15.673  1.0376 -0.3216  0.3852
17950TIP3    H175265   0.462   2.533  15.607 -0.6149 -0.6335 -1.4438
17950TIP3    H275266   0.414   2.616  15.725  1.9215  0.5058 -1.1563
17951TIP3   OH275267   4.312   2.497   1.553  0.5826 -0.3719  0.1447
17951TIP3    H175268   4.383   2.458   1.502 -0.2333 -0.9026 -0.6035
17951TIP3    H275269   4.282   2.571   1.500  1.0959  0.3515  0.8366
17952TIP3   OH275270   3.117   4.306  16.967 -0.0613 -0.2376  0.2174
17952TIP3    H175271   3.212   4.297  16.959 -0.1703 -0.8865 -0.4308
17952TIP3    H275272   3.082   4.224  16.932 -0.8350 -0.3063  1.1059
17953TIP3   OH275273   6.589   5.507  16.011 -0.5574 -0.1947 -0.0761
17953TIP3    H175274   6.633   5.550  16.084 -2.7045  0.8092  0.7066
17953TIP3    H275275   6.531   5.444  16.052 -0.8496 -0.5404 -0.9999
17954TIP3   OH275276   2.344   6.614   3.311  0.2425 -0.0338 -0.2032
17954TIP3    H175277   2.357   6.703   3.344  1.3720 -0.3180  0.1889
17954TIP3    H275278   2.292   6.571   3.379 -1.9739  0.8243 -1.2725
17955TIP3   OH275279   1.797   0.401  11.139 -0.1241  0.1410 -0.0812
17955TIP3    H175280   1.811   0.420  11.231  0.3197 -2.1570  0.3875
17955TIP3    H275281   1.798   0.486  11.096  2.3863  1.0849  1.6706
17956TIP3   OH275282   3.375   0.439   2.289  0.4154  0.0350 -0.4890
17956TIP3    H175283   3.382   0.533   2.279  0.2998  0.1017  0.0268
17956TIP3    H275284   3.348   0.426   2.380 -0.6149 -0.4463 -0.8432
17957TIP3   OH275285   0.141   0.856  13.851 -0.8996 -0.0283 -0.4210
17957TIP3    H175286   0.127   0.786  13.787 -2.1934 -0.8039  0.6537
17957TIP3    H275287   0.213   0.825  13.905 -0.5394  0.1312 -0.7973
17958TIP3   OH275288   1.095   6.483   1.056 -0.6618  0.7240  0.3684
17958TIP3    H175289   1.181   6.481   1.014 -1.8102  1.3788 -2.2722
17958TIP3    H275290   1.113   6.474   1.149  2.0165 -2.7493 -0.2825
17959TIP3   OH275291   2.417   1.814  16.081  0.5450 -0.0039  0.1661
17959TIP3    H175292   2.456   1.773  16.004 -2.3125  0.6885 -1.8125
17959TIP3    H275293   2.368   1.744  16.124 -1.5194  0.4995 -1.2617
17960TIP3   OH275294   5.563   1.241  14.777  0.4866 -0.3204  0.3223
17960TIP3    H175295   5.622   1.315  14.767 -2.0185  1.6518 -0.9358
17960TIP3    H275296   5.539   1.217  14.687 -1.6622 -0.0853  0.7715
17961TIP3   OH275297   4.691   1.322  16.969 -0.6765 -0.0892  0.1503
17961TIP3    H175298   4.655   1.339  16.882 -0.5546  1.7526  0.4053
17961TIP3    H275299   4.778   1.287  16.952 -0.6879  0.1609 -0.4689
17962TIP3   OH275300   0.565   3.406   1.061 -0.2456  0.1883 -0.2664
17962TIP3    H175301   0.641   3.441   1.016  1.6726 -2.1492  0.9291
17962TIP3    H275302   0.589   3.316   1.084 -2.7536 -0.1451  1.5522
17963TIP3   OH275303   0.995   6.121  12.712  0.2176  0.2777  0.2234
17963TIP3    H175304   0.966   6.118  12.803  0.2528 -0.3356  0.2201
17963TIP3    H275305   1.054   6.197  12.708 -0.7757  1.0808  0.4067
17964TIP3   OH275306   1.546   0.781   4.281 -0.1102  0.6086  0.2133
17964TIP3    H175307   1.588   0.867   4.293 -1.4603  1.0358  2.4583
17964TIP3    H275308   1.596   0.723   4.339  0.4571 -0.0242 -0.8926
17965TIP3   OH275309   5.943   4.875   1.053 -0.5049  0.0007 -0.1518
17965TIP3    H175310   6.033   4.850   1.075 -0.3258 -1.0152 -1.8318
17965TIP3    H275311   5.953   4.950   0.995 -0.8210  0.6755  0.6454
17966TIP3   OH275312   4.938   4.831   1.055 -0.2315 -0.3042  0.5723
17966TIP3    H175313   4.955   4.841   0.961 -0.1218 -0.5083  0.5691
17966TIP3    H275314   4.896   4.746   1.062  0.8543 -0.8367  0.8402
17967TIP3   OH275315   4.921   4.497   1.900  0.0658  0.0480  0.7273
17967TIP3    H175316   4.993   4.515   1.840  1.2543 -2.0481  1.4470
17967TIP3    H275317   4.906   4.403   1.892 -1.4767  0.1580  1.8475
17968TIP3   OH275318   2.147   1.414  17.598  0.4964  0.5367  0.3105
17968TIP3    H175319   2.129   1.474  17.671 -0.9594  0.5147  0.0051
17968TIP3    H275320   2.084   1.438  17.531 -0.3453 -1.4951  0.2817
17969TIP3   OH275321   6.146   0.429  12.490 -0.1245 -0.4249  0.1641
17969TIP3    H175322   6.147   0.367  12.418  0.7256  3.0136 -3.1338
17969TIP3    H275323   6.054   0.457  12.497 -0.4816 -1.8024  1.5525
17970TIP3   OH275324   3.803   4.453  16.480  0.3355  0.5888  0.3229
17970TIP3    H175325   3.752   4.531  16.501  1.7033  0.8558  3.1785
17970TIP3    H275326   3.768   4.385  16.538  2.2658  0.4577  1.4392
17971TIP3   OH275327   0.360   2.028  13.091  0.2035  0.0963 -0.3510
17971TIP3    H175328   0.267   2.014  13.105  0.4906 -1.1412  0.4500
17971TIP3    H275329   0.365   2.083  13.013 -1.2183  1.0604  0.2038
17972TIP3   OH275330   6.690   1.833  13.873 -0.0852 -0.6603  0.7702
17972TIP3    H175331   6.595   1.840  13.878 -0.0754  0.0061  0.0895
17972TIP3    H275332   6.722   1.920  13.895  0.3476 -0.7590  0.5410
17973TIP3   OH275333   1.741   5.235  14.983  0.3993  0.1525  0.5070
17973TIP3    H175334   1.755   5.254  15.076  0.1536  1.7160  0.2485
17973TIP3    H275335   1.719   5.320  14.945 -0.5364 -0.6551 -0.7948
17974TIP3   OH275336   2.868   4.929  13.402  0.1072 -0.0459  0.1110
17974TIP3    H175337   2.794   4.868  13.405 -0.5130  0.6389 -0.9642
17974TIP3    H275338   2.876   4.955  13.311  2.1795 -0.6753  0.0473
17975TIP3   OH275339   4.191   0.968   5.198 -0.6195  0.1701 -0.3226
17975TIP3    H175340   4.284   0.971   5.220 -0.7254  1.2192  0.0436
17975TIP3    H275341   4.147   0.957   5.282 -0.8137 -1.3420 -0.5807
17976TIP3   OH275342   5.054   3.826  12.297 -0.5433  0.1659 -0.0350
17976TIP3    H175343   4.963   3.821  12.323 -0.7398  0.6893 -0.5812
17976TIP3    H275344   5.092   3.743  12.325 -0.9769  0.2850  0.9463
17977TIP3   OH275345   4.679   0.149   0.297  0.1304  0.4458 -0.5945
17977TIP3    H175346   4.597   0.196   0.282 -1.0480 -1.3352 -0.0270
17977TIP3    H275347   4.747   0.216   0.290 -1.4948  2.3481  0.8056
17978TIP3   OH275348   6.706   5.772   2.348  0.1278 -0.1193 -0.0937
17978TIP3    H175349   6.736   5.861   2.331 -0.9092  0.3146  0.2255
17978TIP3    H275350   6.628   5.784   2.403 -0.3400 -1.2040 -0.5060
17979TIP3   OH275351   2.489   2.766   4.727  0.2919  0.6153 -0.5021
17979TIP3    H175352   2.565   2.811   4.767 -0.9208  1.3431  1.1287
17979TIP3    H275353   2.456   2.829   4.663 -0.4538  1.4568  0.6545
17980TIP3   OH275354   3.670   1.497  15.698  0.5723 -0.2614  0.5060
17980TIP3    H175355   3.624   1.577  15.722  1.1193  0.5366 -0.9410
17980TIP3    H275356   3.736   1.526  15.635  0.8092 -1.8523 -0.0232
17981TIP3   OH275357   2.472   6.450  13.774  0.3949  1.1751  0.1919
17981TIP3    H175358   2.465   6.356  13.793 -0.9360  1.2709  0.2343
17981TIP3    H275359   2.540   6.481  13.834 -0.0570  0.4761  1.0865
17982TIP3   OH275360   0.372   4.937  13.981  0.1954  0.1081 -1.1414
17982TIP3    H175361   0.459   4.918  14.018  0.9756  0.4900 -2.6822
17982TIP3    H275362   0.311   4.890  14.038  1.3792  0.0839  0.1698
17983TIP3   OH275363   2.973   4.418   0.534 -0.0252 -0.5236  0.2845
17983TIP3    H175364   2.887   4.429   0.492  0.5287  0.3550 -0.6611
17983TIP3    H275365   2.981   4.494   0.592  1.2647  0.9973 -1.7470
17984TIP3   OH275366   5.649   3.316   4.197 -0.3369  0.1012 -0.5081
17984TIP3    H175367   5.704   3.394   4.197  1.1624 -0.9110 -0.3721
17984TIP3    H275368   5.706   3.247   4.163 -1.1886 -1.2307  0.6663
17985TIP3   OH275369   5.201   0.815  17.389  0.0277 -0.2346 -0.0711
17985TIP3    H175370   5.221   0.758  17.314 -0.5795  0.2901 -0.6398
17985TIP3    H275371   5.264   0.788  17.456  0.1527 -1.1571 -0.5398
17986TIP3   OH275372   4.968   0.114  14.251  0.1228  0.6332  0.0936
17986TIP3    H175373   4.912   0.051  14.296  1.0897  0.8478  1.6585
17986TIP3    H275374   4.913   0.149  14.181 -0.3660 -2.1424 -1.0443
17987TIP3   OH275375   5.429   1.245   3.793  0.2483  0.4213 -0.5258
17987TIP3    H175376   5.485   1.183   3.746  1.2304  0.5894  0.3924
17987TIP3    H275377   5.419   1.207   3.880 -0.8241  0.5580 -0.5715
17988TIP3   OH275378   0.215   1.608  15.315  0.0062 -0.2381  0.9236
17988TIP3    H175379   0.299   1.651  15.332 -0.7780  1.1148  1.5313
17988TIP3    H275380   0.177   1.596  15.401 -1.2754  0.9648  0.5558
17989TIP3   OH275381   0.140   5.176  12.209 -0.3459 -0.0482  0.4252
17989TIP3    H175382   0.190   5.225  12.274  1.5307 -0.5399 -0.5950
17989TIP3    H275383   0.155   5.222  12.127 -0.2836 -1.1077 -0.1744
17990TIP3   OH275384   1.703   0.043  14.014  0.0282  0.0515 -0.1818
17990TIP3    H175385   1.689   0.095  14.093  3.7483 -0.5224  1.0108
17990TIP3    H275386   1.745   0.103  13.953  2.7180 -0.9361  0.5682
17991TIP3   OH275387   5.225   5.914   3.212  0.4580 -0.3869 -0.7278
17991TIP3    H175388   5.253   5.997   3.175 -1.2890  0.5446 -0.1159
17991TIP3    H275389   5.302   5.880   3.258  1.0751  1.1187 -0.6033
17992TIP3   OH275390   5.611   5.086  15.050  0.2007 -0.3522 -0.0801
17992TIP3    H175391   5.695   5.060  15.088 -0.4392 -0.9119  1.0153
17992TIP3    H275392   5.634   5.131  14.969  1.5764 -0.0851  0.4310
17993TIP3   OH275393   4.876   1.227   1.323 -0.0179  0.1613 -0.2767
17993TIP3    H175394   4.936   1.153   1.315 -1.1520 -0.8170  0.0656
17993TIP3    H275395   4.872   1.264   1.235 -1.0714 -1.5039 -0.9610
17994TIP3   OH275396   0.471   3.695  12.235 -0.2750  0.1549  0.9232
17994TIP3    H175397   0.504   3.617  12.280 -0.6553 -0.5994 -0.0604
17994TIP3    H275398   0.376   3.695  12.252 -0.4881 -0.3532 -0.1449
17995TIP3   OH275399   0.709   2.380   3.554  0.4757  0.0045  0.2997
17995TIP3    H175400   0.618   2.350   3.561  0.2699  0.8752  2.1515
17995TIP3    H275401   0.704   2.474   3.573  1.9780 -0.3162  2.6743
17996TIP3   OH275402   1.562   2.450   1.578  0.0277  0.2678  0.1693
17996TIP3    H175403   1.540   2.367   1.535 -1.2636  0.2557  0.7786
17996TIP3    H275404   1.503   2.513   1.537  0.6756  0.7983  0.0453
17997TIP3   OH275405   0.873   1.606   3.695 -0.2146  0.0277  0.2945
17997TIP3    H175406   0.938   1.574   3.632  0.5196 -1.5393  1.7602
17997TIP3    H275407   0.833   1.526   3.730 -0.5244  0.8430  1.8645
17998TIP3   OH275408   0.343   2.453   4.263  0.0448  0.3745  0.1786
17998TIP3    H175409   0.408   2.396   4.304 -0.2053 -0.0808 -0.0515
17998TIP3    H275410   0.379   2.473   4.177  0.6516  1.4719  0.6584
17999TIP3   OH275411   2.427   0.026   2.915  0.1084  0.2993  0.1065
17999TIP3    H175412   2.454   0.099   2.971  0.8364 -0.5156  0.8524
17999TIP3    H275413   2.437   0.059   2.826  3.6665  0.1052  0.3003
18000TIP3   OH275414   4.819   1.947  14.070 -0.0692 -0.0409  0.2599
18000TIP3    H175415   4.834   1.854  14.051 -0.3347  0.1527 -0.9948
18000TIP3    H275416   4.899   1.991  14.038 -0.9042  0.3927 -1.3619
18001TIP3   OH275417   4.383   1.474  13.082  0.3836  0.1837  0.1587
18001TIP3    H175418   4.458   1.532  13.066  0.8119 -0.6443 -0.9417
18001TIP3    H275419   4.399   1.439  13.170  0.4134  1.2778  0.6070
18002TIP3   OH275420   5.447   4.412  15.135 -0.3234  0.6761  0.3614
18002TIP3    H175421   5.370   4.398  15.190 -0.5842  0.5829 -0.0182
18002TIP3    H275422   5.460   4.328  15.091 -0.5192  0.9400 -0.2111
18003TIP3   OH275423   0.747   4.373  17.242  0.2473  0.5226  0.1346
18003TIP3    H175424   0.685   4.381  17.169 -1.0543 -1.3572  0.9634
18003TIP3    H275425   0.790   4.289  17.228  0.4750  0.4585  1.1832
18004TIP3   OH275426   4.013   3.978   4.166 -0.4676  0.0908  1.0483
18004TIP3    H175427   3.935   3.922   4.165 -1.1867  1.0438 -0.7561
18004TIP3    H275428   4.063   3.950   4.089  0.5373  0.1187  1.6718
18005TIP3   OH275429   6.598   5.146  17.566  0.2655  0.2215 -0.4656
18005TIP3    H175430   6.574   5.085  17.636 -0.8707 -0.2462 -1.2305
18005TIP3    H275431   6.518   5.197  17.551  0.9380  1.3063 -0.4537
18006TIP3   OH275432   1.556   3.319  12.995 -0.2321  0.0341  0.5150
18006TIP3    H175433   1.626   3.259  13.023 -0.3174  0.1174  0.9137
18006TIP3    H275434   1.551   3.307  12.900  0.4314  0.1448  0.4596
18007TIP3   OH275435   5.958   1.067   4.480 -0.1446 -0.5232 -0.0290
18007TIP3    H175436   6.017   1.032   4.414  2.7321  2.2172  0.8723
18007TIP3    H275437   5.988   1.028   4.562 -1.4143 -1.1501  0.1795
18008TIP3   OH275438   4.178   2.629   2.744 -0.2657  0.1348 -0.3026
18008TIP3    H175439   4.140   2.555   2.698  0.4585 -0.3053 -0.2094
18008TIP3    H275440   4.121   2.643   2.820 -0.7300  0.0463 -0.6362
18009TIP3   OH275441   2.250   5.064   6.618  0.1901  0.7726  0.0299
18009TIP3    H175442   2.346   5.071   6.616  0.1792  0.9775 -1.7345
18009TIP3    H275443   2.220   5.127   6.551 -1.2626  1.7102  1.4866
18010TIP3   OH275444   5.279   0.405  11.835 -0.2206  0.4241  0.5124
18010TIP3    H175445   5.306   0.496  11.845  0.9869 -0.0017  1.2997
18010TIP3    H275446   5.232   0.385  11.915 -0.2899  0.2833  0.4365
18011TIP3   OH275447   6.349   4.058  16.579  0.4676 -0.7341  0.1717
18011TIP3    H175448   6.416   4.126  16.567 -0.2426 -0.4193 -2.9800
18011TIP3    H275449   6.392   3.978  16.550 -0.3314 -0.5955 -1.4945
18012TIP3   OH275450   1.618   0.001   2.952  0.0477 -0.0498  0.0548
18012TIP3    H175451   1.703   0.045   2.965  0.1350 -0.7343  2.2050
18012TIP3    H275452   1.640  -0.092   2.947 -0.5219 -0.1758 -0.1803
18013TIP3   OH275453   6.137   4.845  15.569 -0.0045  0.2687 -0.3596
18013TIP3    H175454   6.162   4.828  15.478 -1.2020  0.4641 -0.7473
18013TIP3    H275455   6.125   4.758  15.607  0.5754  0.1850 -0.3691
18014TIP3   OH275456   4.725   2.746   4.229  0.0315  0.0999  0.0864
18014TIP3    H175457   4.635   2.776   4.227 -0.4121 -1.0123  1.3211
18014TIP3    H275458   4.718   2.650   4.229  1.2139  0.0008 -0.0130
18015TIP3   OH275459   2.750   1.160  15.784 -0.4047  0.7117 -0.5529
18015TIP3    H175460   2.830   1.111  15.801 -1.7782 -1.6172 -0.4257
18015TIP3    H275461   2.772   1.250  15.808  1.4366 -0.2778  1.9457
18016TIP3   OH275462   2.535   4.196   3.150 -0.2774  0.0312  0.6361
18016TIP3    H175463   2.526   4.273   3.206  0.3520  0.9546 -0.4724
18016TIP3    H275464   2.511   4.122   3.205  0.1343  0.9241  2.0494
18017TIP3   OH275465   3.207   0.348   4.789 -0.7083 -0.2232  0.3533
18017TIP3    H175466   3.193   0.324   4.697  1.9911 -2.6431  0.4294
18017TIP3    H275467   3.188   0.268   4.838 -1.8853  0.9624  1.9402
18018TIP3   OH275468   5.535   2.263   0.783  0.8341  0.0636 -0.2477
18018TIP3    H175469   5.619   2.220   0.768  0.7560 -0.0881 -0.2555
18018TIP3    H275470   5.496   2.271   0.696 -0.0586 -1.7212 -0.0498
18019TIP3   OH275471   3.022   4.319  11.247  0.3650 -0.2050  0.1250
18019TIP3    H175472   3.079   4.251  11.210  0.6042  0.4000 -0.6464
18019TIP3    H275473   3.057   4.335  11.334  1.9290  0.7678 -0.6454
18020TIP3   OH275474   6.469   6.382   1.189 -0.1300 -0.1924 -0.1149
18020TIP3    H175475   6.530   6.443   1.230 -1.3205  1.1873 -0.3261
18020TIP3    H275476   6.523   6.330   1.130  0.8183  1.1279 -0.4560
18021TIP3   OH275477   0.070   5.557  10.997  0.1899  0.2679  0.1500
18021TIP3    H175478  -0.020   5.574  11.026 -0.8185  1.2274 -3.1056
18021TIP3    H275479   0.068   5.466  10.967  0.0189  0.5404 -0.7019
18022TIP3   OH275480   5.530   0.754  14.288 -0.5864 -0.6677 -0.3588
18022TIP3    H175481   5.563   0.669  14.317  0.3004 -0.3649 -0.4737
18022TIP3    H275482   5.501   0.797  14.369  3.4193  0.8586  0.4791
18023TIP3   OH275483   6.088   4.073  14.253  0.0853  0.4413  0.1136
18023TIP3    H175484   6.158   4.009  14.241 -1.1707 -0.8975 -0.2832
18023TIP3    H275485   6.033   4.037  14.322 -0.7591  0.9855 -0.2602
18024TIP3   OH275486   3.833   3.435   3.544  0.2569 -0.4327  0.0953
18024TIP3    H175487   3.809   3.421   3.635 -0.5969 -1.1960 -0.2332
18024TIP3    H275488   3.843   3.530   3.536  0.4364 -0.3708  0.9983
18025TIP3   OH275489   3.074   1.891  12.260 -0.4385 -0.3371 -0.0440
18025TIP3    H175490   2.987   1.923  12.284 -0.5231 -1.5504  1.3533
18025TIP3    H275491   3.058   1.829  12.189 -0.3453  1.9254 -2.1908
18026TIP3   OH275492   2.274   1.425   5.459 -0.1209  0.0139  0.4457
18026TIP3    H175493   2.296   1.419   5.552  1.1144  0.4913  0.2094
18026TIP3    H275494   2.331   1.495   5.426 -0.8911  0.1800 -0.5752
18027TIP3   OH275495   3.186   0.102  11.460  0.0789 -0.0183 -0.3996
18027TIP3    H175496   3.193   0.006  11.454  1.1138 -0.0175  0.5372
18027TIP3    H275497   3.259   0.135  11.409 -0.5375  0.3022 -1.0971
18028TIP3   OH275498   0.772   4.115   4.418 -0.0877 -0.0422 -0.4052
18028TIP3    H175499   0.841   4.049   4.419  1.2697  1.2223 -2.5303
18028TIP3    H275500   0.818   4.198   4.426 -1.8308  0.7402  3.3440
18029TIP3   OH275501   6.356   0.724   3.958 -0.3267  0.2063  0.3850
18029TIP3    H175502   6.406   0.783   3.902 -0.6718  0.8025  0.6951
18029TIP3    H275503   6.369   0.758   4.047 -1.7533  0.7208  0.4129
18030TIP3   OH275504   0.995   2.846  15.081 -0.1047  0.3810  0.3100
18030TIP3    H175505   0.918   2.801  15.117 -0.2107 -1.4690 -2.0091
18030TIP3    H275506   0.970   2.869  14.992  1.4314  1.3396  0.0985
18031TIP3   OH275507   3.331   1.376  14.432  0.1346  0.1875  0.0132
18031TIP3    H175508   3.374   1.291  14.434  0.9511  0.5243 -1.8156
18031TIP3    H275509   3.238   1.357  14.444  0.5765 -0.6128  3.3400
18032TIP3   OH275510   5.602   6.261  15.966 -0.4501 -0.7750 -0.1622
18032TIP3    H175511   5.525   6.205  15.954 -1.0396 -0.3389  1.3059
18032TIP3    H275512   5.676   6.202  15.955 -0.9722 -1.2235 -1.5139
18033TIP3   OH275513   1.394   5.332  11.429 -0.0079  0.1555 -0.1475
18033TIP3    H175514   1.411   5.313  11.337 -1.4119 -0.6743 -0.2575
18033TIP3    H275515   1.393   5.428  11.434 -0.1319  0.2041 -1.0370
18034TIP3   OH275516   1.827   5.043   1.634  0.0776  0.0235  0.1544
18034TIP3    H175517   1.917   5.076   1.634 -0.3288  1.1849  0.4378
18034TIP3    H275518   1.836   4.948   1.643  1.2441  0.2050  1.1382
18035TIP3   OH275519   6.148   0.424   5.986 -0.2005 -0.0511  0.0270
18035TIP3    H175520   6.221   0.477   5.954  0.2964  0.6900  2.2701
18035TIP3    H275521   6.152   0.344   5.933  0.2442  1.2814 -2.0722
18036TIP3   OH275522   2.650   1.611  14.152  0.1624 -0.3071 -0.2766
18036TIP3    H175523   2.618   1.689  14.196  1.0096  0.9893 -1.8461
18036TIP3    H275524   2.602   1.609  14.069  1.2522 -0.5768 -0.9172
18037TIP3   OH275525   4.573   5.446  16.795 -0.8441  0.1596 -0.2250
18037TIP3    H175526   4.515   5.435  16.720 -0.1688 -1.4487 -0.5563
18037TIP3    H275527   4.632   5.371  16.790  1.9726  2.2250 -0.5159
18038TIP3   OH275528   1.718   3.960   5.654  0.2500  0.2017 -0.1176
18038TIP3    H175529   1.659   4.033   5.640  0.8768  0.9861  1.0725
18038TIP3    H275530   1.672   3.883   5.620 -0.7955  1.0176 -0.5680
18039TIP3   OH275531   0.236   3.536  17.081  0.2081  0.0044  0.2126
18039TIP3    H175532   0.161   3.479  17.100 -0.1724 -0.4347 -2.2878
18039TIP3    H275533   0.202   3.625  17.094 -0.1518 -0.2314  0.9757
18040TIP3   OH275534   1.802   5.659   4.227  0.0965 -0.2831 -0.0228
18040TIP3    H175535   1.711   5.633   4.241 -0.8244  2.0265 -1.2321
18040TIP3    H275536   1.834   5.600   4.159 -0.6628 -0.7999  0.0633
18041TIP3   OH275537   0.145   1.196   2.578  0.0451 -0.1674 -0.2308
18041TIP3    H175538   0.127   1.244   2.659 -3.2843 -0.1490 -0.8491
18041TIP3    H275539   0.209   1.250   2.532  1.1966  0.3575  1.8499
18042TIP3   OH275540   1.490   0.902  17.619 -0.1103 -0.4105 -0.0240
18042TIP3    H175541   1.562   0.962  17.600  0.4341 -0.8313  0.6648
18042TIP3    H275542   1.414   0.942  17.578  0.6918 -0.4566 -1.6606
18043TIP3   OH275543   1.708   3.129  13.358 -0.0294  0.5238 -0.0829
18043TIP3    H175544   1.735   3.135  13.266 -0.5554  0.7874 -0.2251
18043TIP3    H275545   1.790   3.117  13.406  0.1960 -0.3105 -0.6414
18044TIP3   OH275546   2.195   0.344   4.490  0.2733  0.5601  0.9424
18044TIP3    H175547   2.126   0.279   4.505  0.0016  0.6062 -0.0426
18044TIP3    H275548   2.166   0.392   4.413  2.4235 -0.8354 -0.8493
18045TIP3   OH275549   3.112   6.569   4.501  0.2333  0.1170 -0.9394
18045TIP3    H175550   3.192   6.614   4.526  0.6046 -0.4794 -1.0212
18045TIP3    H275551   3.131   6.476   4.516 -1.2800  0.1025  1.4408
18046TIP3   OH275552   2.108   3.876   1.861  0.0658 -0.2143  0.0049
18046TIP3    H175553   2.062   3.948   1.903  1.2612 -0.0285  1.0414
18046TIP3    H275554   2.122   3.812   1.931  0.6544 -0.6250 -0.4765
18047TIP3   OH275555   3.651   1.958  16.561  0.0506  0.1922  0.1543
18047TIP3    H175556   3.710   1.942  16.635 -0.5029  0.8960  0.7678
18047TIP3    H275557   3.676   2.044  16.528  0.1342 -0.0163 -0.3261
18048TIP3   OH275558   0.838   5.499   4.839  0.3375 -0.2367 -0.5156
18048TIP3    H175559   0.914   5.457   4.880 -0.5497 -1.2500  0.1356
18048TIP3    H275560   0.809   5.564   4.903  0.1131 -0.4855 -0.3611
18049TIP3   OH275561   6.535   4.027  15.840 -0.3421  0.1304 -0.1926
18049TIP3    H175562   6.476   4.005  15.912 -0.0290 -0.4814 -0.1141
18049TIP3    H275563   6.532   4.123  15.834 -0.2126  0.2028  0.7665
18050TIP3   OH275564   2.247   0.818  14.910  0.3629 -0.0021  0.0073
18050TIP3    H175565   2.203   0.837  14.993 -2.0714  0.4539 -1.2916
18050TIP3    H275566   2.328   0.869  14.914  0.6773 -0.5592  2.3699
18051TIP3   OH275567   0.733   4.514   1.897 -0.0030  0.1799  0.0616
18051TIP3    H175568   0.702   4.603   1.883 -1.7213 -0.1207  1.6564
18051TIP3    H275569   0.714   4.469   1.815 -1.4799  0.6610  0.1086
18052TIP3   OH275570   6.468   6.681   4.152 -0.3926  0.0753 -0.3694
18052TIP3    H175571   6.490   6.606   4.097 -0.0516 -1.2383  1.4705
18052TIP3    H275572   6.402   6.647   4.213  0.6498  0.9211  1.2784
18053TIP3   OH275573   2.300   5.016  11.892  0.0654  0.2959 -0.1877
18053TIP3    H175574   2.366   5.006  11.823 -0.2774  0.3686 -0.5317
18053TIP3    H275575   2.218   4.989  11.851 -0.1998  0.6641  0.0887
18054TIP3   OH275576   1.916   2.598  15.737 -0.1177  0.3256 -0.6020
18054TIP3    H175577   1.922   2.657  15.812 -1.2451  1.9651 -1.7444
18054TIP3    H275578   1.827   2.564  15.739  1.4285 -4.5839  2.2390
18055TIP3   OH275579   5.127   2.040  12.278 -0.3990  0.4131  0.1358
18055TIP3    H175580   5.033   2.051  12.260 -0.3491  0.1607 -0.2754
18055TIP3    H275581   5.167   2.119  12.243 -0.6289  1.2769  1.7103
18056TIP3   OH275582   1.486   6.087   3.338  0.0910 -0.0404 -0.5418
18056TIP3    H175583   1.539   6.133   3.403  1.9810 -2.0875 -0.5036
18056TIP3    H275584   1.398   6.123   3.348  0.7872  1.2217  1.6480
18057TIP3   OH275585   0.456   2.184  12.875 -0.9201  0.3879  0.0685
18057TIP3    H175586   0.518   2.251  12.847 -0.4346 -0.1224 -0.0892
18057TIP3    H275587   0.372   2.230  12.880 -0.6052  0.9912 -0.0972
18058TIP3   OH275588   5.970   0.713  17.003 -0.4021 -0.5987 -0.4031
18058TIP3    H175589   6.047   0.738  17.055 -0.7227  0.0328 -0.2333
18058TIP3    H275590   5.944   0.792  16.957 -2.2684 -0.1922  1.2127
18059TIP3   OH275591   6.176   3.156   5.711  0.3987 -0.3535  0.1402
18059TIP3    H175592   6.194   3.098   5.786  1.4679  1.0739  1.0388
18059TIP3    H275593   6.175   3.244   5.749  0.4300  0.3571 -1.4442
18060TIP3   OH275594   3.708   4.355  14.337 -0.1238 -0.0268  0.1611
18060TIP3    H175595   3.795   4.315  14.331 -0.4722 -1.0602  1.5438
18060TIP3    H275596   3.721   4.432  14.392  0.3027  1.0785 -1.4358
18061TIP3   OH275597   1.925   3.487  14.035  0.0677 -0.3133 -0.2822
18061TIP3    H175598   1.936   3.402  13.993 -0.9940 -0.4909 -0.2263
18061TIP3    H275599   1.858   3.473  14.101  0.1042  0.4964 -0.0617
18062TIP3   OH275600   0.645   1.011  14.930 -0.3375 -0.4172 -0.1025
18062TIP3    H175601   0.680   1.051  15.010 -0.1318 -0.3233 -0.2397
18062TIP3    H275602   0.691   1.055  14.859 -0.8157 -0.2131 -0.2911
18063TIP3   OH275603   6.262   4.646   4.108 -0.0272 -0.3100 -0.0619
18063TIP3    H175604   6.342   4.597   4.086  0.6208  0.6082  0.1645
18063TIP3    H275605   6.248   4.628   4.201 -1.5830 -2.5303 -0.6575
18064TIP3   OH275606   0.014   5.499  14.403 -0.4327  0.2257 -0.2457
18064TIP3    H175607  -0.032   5.476  14.484  1.3523 -0.6066  0.5849
18064TIP3    H275608   0.015   5.417  14.353 -0.7354  0.5035 -0.7051
18065TIP3   OH275609   6.544   3.240   1.271 -0.2238  0.9858  0.2432
18065TIP3    H175610   6.604   3.222   1.343 -2.1820 -0.3866  1.6340
18065TIP3    H275611   6.540   3.336   1.267  1.7769  1.1209  0.2661
18066TIP3   OH275612   3.499   0.257   2.623  0.0928  0.4569  0.0977
18066TIP3    H175613   3.545   0.304   2.692  0.5878  0.9841 -0.5699
18066TIP3    H275614   3.554   0.180   2.606 -0.2946  0.0564  0.6326
18067TIP3   OH275615   5.769   4.204  14.945  0.2988  0.3679  0.0338
18067TIP3    H175616   5.842   4.143  14.932 -0.0734 -0.4086  1.4362
18067TIP3    H275617   5.799   4.286  14.904  0.7347 -0.7673 -2.0280
18068TIP3   OH275618   3.891   6.429   2.018  0.8369 -0.0942 -0.0820
18068TIP3    H175619   3.832   6.442   1.943 -0.9849 -1.1010  1.0851
18068TIP3    H275620   3.977   6.453   1.985 -0.2426  1.8296 -1.8013
18069TIP3   OH275621   1.672   3.977   3.286  0.2116 -0.2860  0.7569
18069TIP3    H175622   1.634   4.013   3.206 -0.0296  0.7955  1.3452
18069TIP3    H275623   1.750   4.031   3.302 -0.5928  0.5340  2.0833
18070TIP3   OH275624   0.991   0.202   4.490 -0.0247 -0.3649 -0.5218
18070TIP3    H175625   1.073   0.187   4.536 -0.9655 -0.1015  1.3579
18070TIP3    H275626   0.981   0.297   4.488 -0.7988 -0.4049  0.3232
18071TIP3   OH275627   0.137   0.582   2.594 -0.2830  0.1738  0.0511
18071TIP3    H175628   0.172   0.591   2.506  0.3413  1.9851  0.4481
18071TIP3    H275629   0.127   0.487   2.606  1.2137 -0.2025 -1.3418
18072TIP3   OH275630   2.645   2.979   1.614  0.2458  0.0940 -0.2318
18072TIP3    H175631   2.663   2.932   1.533 -2.9765  0.6642 -1.4170
18072TIP3    H275632   2.708   3.052   1.614  1.6428 -1.0451 -1.1079
18073TIP3   OH275633   4.013   3.778  12.979  0.0859 -0.1410 -0.2498
18073TIP3    H175634   4.074   3.781  12.905  1.0131  1.1427  0.5306
18073TIP3    H275635   3.959   3.857  12.969 -0.1884 -0.2779  0.1194
18074TIP3   OH275636   2.621   1.385  12.670 -0.0446 -0.1530  0.3166
18074TIP3    H175637   2.536   1.423  12.647 -1.9676 -4.5515 -1.0933
18074TIP3    H275638   2.635   1.410  12.761 -0.8054  3.8229 -0.4551
18075TIP3   OH275639   2.219   1.666  12.977 -0.4285 -0.6777  0.1251
18075TIP3    H175640   2.204   1.755  13.009 -0.8056 -0.6984  0.0072
18075TIP3    H275641   2.286   1.676  12.909 -0.3769 -0.5021  0.2000
18076TIP3   OH275642   5.216   6.436   5.109 -0.1299  0.1799  0.4460
18076TIP3    H175643   5.183   6.502   5.171  0.6264  0.3819  0.6445
18076TIP3    H275644   5.310   6.453   5.104 -0.2930  0.6909 -1.3978
18077TIP3   OH275645   4.790   0.120   6.242  0.3484 -0.3940 -0.0368
18077TIP3    H175646   4.863   0.160   6.196 -1.8851  2.5390 -1.4096
18077TIP3    H275647   4.813   0.124   6.335  1.9544  0.3182 -0.4504
18078TIP3   OH275648   0.432   4.095   0.413 -0.4853 -0.5778 -0.7340
18078TIP3    H175649   0.372   4.054   0.350 -0.8541 -1.5509  0.2201
18078TIP3    H275650   0.479   4.022   0.453  1.0936  0.1482 -1.1821
18079TIP3   OH275651   5.071   1.922  14.694 -0.3978  0.0890 -0.3179
18079TIP3    H175652   5.057   1.981  14.768 -1.4182  1.6846 -1.7204
18079TIP3    H275653   5.014   1.847  14.711 -1.0834  0.7218  0.2084
18080TIP3   OH275654   2.922   0.537  17.436 -0.0057 -0.3570  0.2234
18080TIP3    H175655   2.951   0.472  17.372  0.0916  1.1215 -1.3001
18080TIP3    H275656   2.890   0.486  17.510  0.4650 -2.1154 -0.7478
18081TIP3   OH275657   1.279   6.275   3.657  0.5879  0.5568 -0.1896
18081TIP3    H175658   1.361   6.267   3.608  1.7254  1.6254  1.4383
18081TIP3    H275659   1.268   6.369   3.671  1.6024  0.2896  3.5023
18082TIP3   OH275660   6.276   1.771   2.056 -0.3702  0.2616  0.0476
18082TIP3    H175661   6.239   1.745   2.141  2.3291 -2.1043  0.6805
18082TIP3    H275662   6.316   1.856   2.072 -2.4382  1.2738  0.2302
18083TIP3   OH275663   4.137   0.026  11.319  0.3638  0.0813 -0.4901
18083TIP3    H175664   4.131  -0.064  11.289  0.0655 -0.5341  1.2644
18083TIP3    H275665   4.046   0.052  11.335  0.5494 -0.0119  0.8552
18084TIP3   OH275666   2.897   1.019  11.779  0.3980  0.0331  0.0895
18084TIP3    H175667   2.949   0.987  11.705  0.9256 -0.5619  0.7090
18084TIP3    H275668   2.846   1.091  11.742  1.1044  0.1425 -0.7177
18085TIP3   OH275669   4.654   0.159  14.112  0.8428 -0.3350 -0.6648
18085TIP3    H175670   4.734   0.189  14.070 -0.0728  0.8566 -1.6416
18085TIP3    H275671   4.593   0.232  14.103  0.3637 -0.2677  2.2006
18086TIP3   OH275672   4.028   2.759   5.353 -0.3280  0.1799 -0.0500
18086TIP3    H175673   3.949   2.709   5.331 -0.0520 -0.3839  0.2192
18086TIP3    H275674   4.080   2.700   5.406  0.1155  0.6791  0.0842
18087TIP3   OH275675   2.244   1.336  11.755  0.1889 -0.0752  0.2306
18087TIP3    H175676   2.204   1.384  11.828 -1.4235 -0.6585 -0.2341
18087TIP3    H275677   2.180   1.343  11.684  1.0171 -0.8866 -0.6126
18088TIP3   OH275678   0.338   6.606   2.403 -0.7223  0.3553  0.4573
18088TIP3    H175679   0.287   6.539   2.357  0.8451 -1.9244  1.8347
18088TIP3    H275680   0.370   6.663   2.334 -0.8038 -1.2567 -0.9829
18089TIP3   OH275681   6.655   3.903  14.681  0.3680  0.4481  0.1761
18089TIP3    H175682   6.732   3.853  14.651 -0.3813 -1.1046  0.7307
18089TIP3    H275683   6.600   3.910  14.603  0.2198 -0.1029  0.2275
18090TIP3   OH275684   6.244   2.122   4.265 -0.0144 -0.4497 -0.0718
18090TIP3    H175685   6.302   2.088   4.333 -0.3882 -0.7013  0.1205
18090TIP3    H275686   6.186   2.049   4.244 -0.5224 -0.0735  0.0188
18091TIP3   OH275687   3.320   5.808   3.284 -0.4946 -0.0456 -0.4823
18091TIP3    H175688   3.370   5.752   3.224  0.2116 -0.2205  0.2387
18091TIP3    H275689   3.269   5.747   3.337 -1.1094  0.1061 -0.8962
18092TIP3   OH275690   0.791   1.675  16.893 -0.1939 -0.0168  0.0741
18092TIP3    H175691   0.739   1.693  16.972 -0.3921  1.0882 -0.2886
18092TIP3    H275692   0.739   1.713  16.822  0.1408 -0.7177 -0.5563
18093TIP3   OH275693   5.820   1.902   3.275  0.6177 -0.0086 -0.6470
18093TIP3    H175694   5.851   1.977   3.326 -0.6825 -0.5716  1.0802
18093TIP3    H275695   5.826   1.931   3.184 -1.6457  2.9928 -0.0023
18094TIP3   OH275696   4.444   3.023   3.051  0.0090  0.5177  0.4533
18094TIP3    H175697   4.443   3.071   3.134  1.8558 -1.3755  1.6656
18094TIP3    H275698   4.390   2.946   3.067 -2.4489  1.7559 -1.2843
18095TIP3   OH275699   4.296   3.157  14.414  0.4094 -0.4732 -0.0902
18095TIP3    H175700   4.383   3.154  14.454  0.4683  1.2962 -0.0011
18095TIP3    H275701   4.286   3.249  14.387 -2.0760 -0.2463  1.3618
18096TIP3   OH275702   0.296   4.772  13.348  0.4755 -0.2972 -0.3819
18096TIP3    H175703   0.339   4.857  13.348  0.7904 -0.3774  1.7581
18096TIP3    H275704   0.223   4.782  13.409  0.5345 -1.5268 -0.0691
18097TIP3   OH275705   0.279   3.511   3.427  1.1001 -0.1057 -0.8300
18097TIP3    H175706   0.295   3.419   3.407  0.1111 -0.3066 -0.7645
18097TIP3    H275707   0.316   3.524   3.515 -0.3797 -0.9371 -0.0450
18098TIP3   OH275708   2.047   4.853  13.906 -1.0111  0.1190  0.7434
18098TIP3    H175709   1.965   4.889  13.871 -0.9262 -1.5166 -1.3218
18098TIP3    H275710   2.026   4.830  13.997 -2.5876  0.4847  0.5027
18099TIP3   OH275711   5.993   5.882   2.694 -0.0997  0.1968 -0.1542
18099TIP3    H175712   6.046   5.959   2.717  0.2821 -0.2996  0.6504
18099TIP3    H275713   6.032   5.849   2.613  1.9787 -1.1816  1.3152
18100TIP3   OH275714   4.031   1.025  15.965  0.2234  0.0857  0.7499
18100TIP3    H175715   3.942   1.038  15.933  0.8103  1.0578 -0.5782
18100TIP3    H275716   4.031   0.935  16.000 -0.6131 -0.8769 -1.5319
18101TIP3   OH275717   5.327   0.403   2.102  0.4732  0.4820 -0.5436
18101TIP3    H175718   5.328   0.469   2.033 -1.1330  1.9593  0.7629
18101TIP3    H275719   5.235   0.393   2.126  1.0232  0.7091  1.9972
18102TIP3   OH275720   5.475   4.930   2.024 -0.5717 -0.7960  0.0334
18102TIP3    H175721   5.486   4.838   2.046 -0.1900 -0.1931  2.7174
18102TIP3    H275722   5.439   4.970   2.103  0.6829  1.6283 -0.5074
18103TIP3   OH275723   6.335   2.526  15.935  0.2329  0.6037 -0.0517
18103TIP3    H175724   6.246   2.506  15.905  0.2710  0.1685  0.1277
18103TIP3    H275725   6.322   2.581  16.012  0.0935 -0.6434  0.8300
18104TIP3   OH275726   5.674   1.688  14.866 -0.3220  0.4498 -0.0851
18104TIP3    H175727   5.724   1.759  14.825  0.7851  0.5161  1.2958
18104TIP3    H275728   5.603   1.733  14.913 -0.5596  0.5032 -0.4870
18105TIP3   OH275729   1.712   3.369   5.402 -0.1879  0.2867 -0.2060
18105TIP3    H175730   1.688   3.337   5.489 -0.7303 -1.6242 -0.9975
18105TIP3    H275731   1.805   3.349   5.394 -0.1761  0.3123 -0.1338
18106TIP3   OH275732   6.657   0.645  15.304 -0.4748 -0.1073  0.6983
18106TIP3    H175733   6.566   0.660  15.282 -1.1654 -1.4052  2.4125
18106TIP3    H275734   6.658   0.558  15.345  1.3496  0.3015  1.6332
18107TIP3   OH275735   4.668   3.184   5.667  0.1879 -0.5193 -0.0663
18107TIP3    H175736   4.667   3.101   5.620  0.5962 -1.5992  1.7163
18107TIP3    H275737   4.585   3.226   5.644  0.8418 -0.4295 -2.5633
18108TIP3   OH275738   5.216   0.605  14.665 -0.6608  0.9214  0.0071
18108TIP3    H175739   5.127   0.629  14.692 -1.3876 -0.8565 -0.6662
18108TIP3    H275740   5.213   0.608  14.569 -0.4343 -0.5802 -0.0583
18109TIP3   OH275741   2.009   1.689   2.918 -0.4582  0.2980  0.3997
18109TIP3    H175742   1.981   1.702   2.828  1.2708 -0.1190 -0.2492
18109TIP3    H275743   2.084   1.629   2.911 -0.0970  0.4997  2.0803
18110TIP3   OH275744   2.797   6.428  13.146 -0.4735  0.0865 -0.4902
18110TIP3    H175745   2.737   6.388  13.209 -0.6838  0.2315 -0.5962
18110TIP3    H275746   2.830   6.506  13.190 -0.7749  0.2972 -0.6337
18111TIP3   OH275747   0.174   2.901  10.959 -0.3395  0.1336  0.0253
18111TIP3    H175748   0.237   2.830  10.966 -1.1600 -0.8659 -1.8436
18111TIP3    H275749   0.186   2.953  11.038  2.5246 -0.2277 -0.0865
18112TIP3   OH275750   2.073   4.997  12.644  0.2548  0.5572 -0.0411
18112TIP3    H175751   1.995   5.052  12.642 -0.8002 -0.8377  0.9960
18112TIP3    H275752   2.119   5.023  12.724 -0.2458 -0.0476  0.4509
18113TIP3   OH275753   4.892   3.430  11.287  0.2020 -0.2220 -1.0769
18113TIP3    H175754   4.959   3.376  11.246 -0.2500 -1.9119  0.2696
18113TIP3    H275755   4.909   3.519  11.256  2.7458 -0.6726 -1.1463
18114TIP3   OH275756   6.704   3.960  12.225  0.1904 -0.6120  0.6036
18114TIP3    H175757   6.637   3.938  12.161  2.1076 -0.9197 -1.3890
18114TIP3    H275758   6.702   4.056  12.230 -0.6601 -0.6414  0.8728
18115TIP3   OH275759   5.494   3.232  16.873 -0.1292 -0.1583 -0.5570
18115TIP3    H175760   5.589   3.229  16.860 -0.3462 -0.9804 -2.0304
18115TIP3    H275761   5.482   3.304  16.935  1.4005  0.3832 -0.8375
18116TIP3   OH275762   5.372   5.443  11.255  0.5284 -0.1424 -0.3236
18116TIP3    H175763   5.380   5.364  11.309 -0.4817 -1.2153 -1.6766
18116TIP3    H275764   5.459   5.455  11.216  0.7337 -0.4771  0.0280
18117TIP3   OH275765   0.990   4.136   3.255  0.1149  0.1873 -0.0306
18117TIP3    H175766   1.077   4.112   3.285 -0.0385 -0.2003  0.1043
18117TIP3    H275767   0.969   4.216   3.303  1.2326  1.4682 -1.5792
18118TIP3   OH275768   4.291   0.193   5.036 -0.0965 -0.0174 -0.8973
18118TIP3    H175769   4.221   0.210   5.098 -1.0913 -0.4404 -1.8759
18118TIP3    H275770   4.343   0.274   5.035 -2.6165  1.7200 -2.7649
18119TIP3   OH275771   1.082   4.008   2.475 -0.7003 -0.3574  0.0823
18119TIP3    H175772   1.110   4.010   2.384 -1.3594 -0.3032 -0.1208
18119TIP3    H275773   1.079   4.100   2.502  1.3295 -0.4238  0.7465
18120TIP3   OH275774   5.993   2.469   0.156  0.3267  0.4916 -0.0672
18120TIP3    H175775   5.941   2.520   0.094 -1.1710  2.4388  2.6065
18120TIP3    H275776   6.060   2.530   0.188  0.2858 -0.0573  1.1382
18121TIP3   OH275777   5.117   2.549  13.449 -0.3554 -0.0413 -0.3908
18121TIP3    H175778   5.202   2.567  13.408  0.4747 -0.8401  0.8964
18121TIP3    H275779   5.087   2.468  13.407  0.6134 -0.9988  0.6962
18122TIP3   OH275780   4.056   1.308  16.961 -0.4131 -0.3940 -0.0822
18122TIP3    H175781   3.964   1.324  16.943 -0.5617 -0.2553  0.7760
18122TIP3    H275782   4.097   1.306  16.874 -0.9733  1.0598 -0.4010
18123TIP3   OH275783   0.290   6.211   4.650 -0.2274  0.5043  0.6441
18123TIP3    H175784   0.289   6.127   4.695 -1.6767  0.1989  0.1205
18123TIP3    H275785   0.245   6.271   4.709 -0.1022  0.6520  0.5889
18124TIP3   OH275786   3.293   3.209  15.907  0.0700 -0.3840 -0.2956
18124TIP3    H175787   3.291   3.126  15.859 -0.7615 -0.9411  0.6932
18124TIP3    H275788   3.249   3.271  15.849  0.3443 -0.7127 -0.8670
18125TIP3   OH275789   5.014   5.974  16.157 -0.5822 -0.4935  0.2529
18125TIP3    H175790   5.104   5.946  16.173  0.2411  2.6101  1.5857
18125TIP3    H275791   5.010   5.985  16.062 -0.2025 -2.4207 -0.0420
18126TIP3   OH275792   4.156   6.415   3.010 -0.6351  0.0725 -0.0082
18126TIP3    H175793   4.238   6.387   2.969 -1.9179 -2.6216 -0.9661
18126TIP3    H275794   4.169   6.398   3.103  0.9438  2.7285  0.3826
18127TIP3   OH275795   6.629   6.033  17.230 -0.3860  0.1267 -0.1859
18127TIP3    H175796   6.724   6.023  17.241 -0.4739  0.5298  1.0381
18127TIP3    H275797   6.600   5.948  17.197  0.1319 -0.7216  1.4463
18128TIP3   OH275798   5.640   6.400   5.333  0.2319 -0.4600  0.0677
18128TIP3    H175799   5.619   6.384   5.425 -0.7119 -1.2414 -0.2653
18128TIP3    H275800   5.734   6.417   5.332  0.3906 -1.1890  1.0839
18129TIP3   OH275801   5.425   6.254   0.791  0.6999 -0.0907 -0.8812
18129TIP3    H175802   5.506   6.245   0.840  1.6855  1.2264 -2.1728
18129TIP3    H275803   5.367   6.187   0.827  1.8511 -0.1125  1.0487
18130TIP3   OH275804   5.824   4.924   2.974  0.5065 -0.1664 -0.2063
18130TIP3    H175805   5.860   4.847   2.931  1.5981 -0.4136  1.1029
18130TIP3    H275806   5.729   4.913   2.966  0.6555 -0.6209 -1.7574
18131TIP3   OH275807   1.288   2.233  15.485 -0.0079  0.0193  0.3795
18131TIP3    H175808   1.337   2.250  15.404 -0.3129 -0.7096  0.0352
18131TIP3    H275809   1.265   2.320  15.517  0.9540  0.3495  0.2015
18132TIP3   OH275810   4.507   0.310   5.888 -0.0367 -0.2122 -0.4265
18132TIP3    H175811   4.429   0.263   5.858  1.7028 -2.8463 -1.2868
18132TIP3    H275812   4.545   0.252   5.954  0.1783  1.9915  1.5041
18133TIP3   OH275813   5.079   1.805  13.679 -0.6655  0.4143  0.2117
18133TIP3    H175814   5.084   1.717  13.641 -1.5830  0.4029  0.1041
18133TIP3    H275815   5.036   1.857  13.612 -1.4734  0.6027  0.8680
18134TIP3   OH275816   5.755   0.489  13.550 -0.1814  0.1692  0.1389
18134TIP3    H175817   5.778   0.580  13.567 -0.6069  0.0229  1.6381
18134TIP3    H275818   5.825   0.439  13.592  0.2332 -0.2055 -0.9701
18135TIP3   OH275819   3.277   5.513   1.165 -0.0939  0.2155  0.3291
18135TIP3    H175820   3.262   5.444   1.230 -0.6895  1.1134  1.1723
18135TIP3    H275821   3.249   5.474   1.082 -1.6610 -0.1328  0.9888
18136TIP3   OH275822   5.909   1.496  14.169 -0.3883 -0.0818 -0.0494
18136TIP3    H175823   5.863   1.412  14.180 -2.1999  0.6262 -1.5559
18136TIP3    H275824   5.900   1.515  14.076 -1.6396  2.6386  0.5352
18137TIP3   OH275825   4.851   0.496  11.414  0.3887  0.2299 -0.4148
18137TIP3    H175826   4.761   0.502  11.444  1.0092  1.3339  1.3687
18137TIP3    H275827   4.852   0.420  11.356 -1.6917  0.2809 -0.5808
18138TIP3   OH275828   1.465   6.275  14.264  0.9144  0.5295 -0.5743
18138TIP3    H175829   1.480   6.282  14.170 -2.3065 -0.5603 -1.2903
18138TIP3    H275830   1.421   6.356  14.288 -3.2928 -1.2690 -1.3250
18139TIP3   OH275831   0.698   1.048  17.271  0.2404  1.2257  0.7521
18139TIP3    H175832   0.621   1.014  17.225 -0.6512  0.7354  2.4934
18139TIP3    H275833   0.771   0.996  17.239  0.1071  2.4527 -1.7872
18140TIP3   OH275834   4.381   4.379  10.967 -0.3447  0.1735  0.6203
18140TIP3    H175835   4.323   4.309  10.938  0.6396 -0.5286  0.3294
18140TIP3    H275836   4.322   4.454  10.979 -1.4329 -0.7060  1.0390
18141TIP3   OH275837   4.841   0.156   6.715  0.5953  0.5898 -0.3342
18141TIP3    H175838   4.884   0.228   6.762 -1.9326  0.7871  1.9391
18141TIP3    H275839   4.855   0.079   6.771  0.4023  0.0584 -1.0054
18142TIP3   OH275840   5.735   3.687  14.900 -0.3936 -0.5888 -0.3586
18142TIP3    H175841   5.789   3.629  14.846  0.7248  0.6485 -0.6124
18142TIP3    H275842   5.666   3.716  14.841  0.2253 -0.0622 -0.8413
18143TIP3   OH275843   5.694   5.460  13.097  0.9056 -0.2163 -0.1679
18143TIP3    H175844   5.734   5.401  13.034  2.7100  0.8043 -0.0534
18143TIP3    H275845   5.767   5.510  13.133  0.1070 -1.1915  3.2399
18144TIP3   OH275846   4.738   6.573  17.536  0.2722  0.3790  0.0497
18144TIP3    H175847   4.740   6.639  17.605 -1.2850  1.7462 -1.1331
18144TIP3    H275848   4.663   6.518  17.558  0.0827  0.5068 -0.2756
18145TIP3   OH275849   2.416   3.813   3.880 -0.3592  0.1323  0.1576
18145TIP3    H175850   2.340   3.765   3.849  0.6788 -2.4859  1.3617
18145TIP3    H275851   2.391   3.841   3.969 -0.8859  1.7636 -0.4659
18146TIP3   OH275852   1.686   2.511  13.457  0.2900  0.7850  0.5400
18146TIP3    H175853   1.655   2.594  13.420 -1.5994 -0.2853 -0.4264
18146TIP3    H275854   1.614   2.481  13.513  0.8746 -0.2875  0.7501
18147TIP3   OH275855   4.238   5.801  15.304  1.0240  0.0364 -0.0922
18147TIP3    H175856   4.328   5.830  15.292  0.5514  1.3064 -0.8173
18147TIP3    H275857   4.185   5.871  15.266 -0.3050 -0.2684  1.0992
18148TIP3   OH275858   5.565   6.129  13.676  0.0817  0.2124 -0.1176
18148TIP3    H175859   5.630   6.092  13.616 -0.8574  2.5651 -2.8182
18148TIP3    H275860   5.482   6.089  13.649 -0.4917  1.9650 -1.1627
18149TIP3   OH275861   5.835   5.314   5.806 -0.1287  0.0505  0.1163
18149TIP3    H175862   5.855   5.281   5.894 -0.1363 -0.1509  0.0440
18149TIP3    H275863   5.902   5.379   5.789  0.6132 -0.7752 -0.2120
18150TIP3   OH275864   2.623   3.283   0.481 -0.2548 -0.3412 -0.1551
18150TIP3    H175865   2.649   3.299   0.391 -1.6259 -2.2618 -0.9788
18150TIP3    H275866   2.547   3.340   0.495  0.5486  0.6724  0.1345
18151TIP3   OH275867   4.036   0.319  11.493  0.0079 -0.3056  0.4452
18151TIP3    H175868   4.105   0.360  11.440 -1.1231  0.2699 -0.6474
18151TIP3    H275869   4.033   0.370  11.574 -0.3125  0.8018 -0.2450
18152TIP3   OH275870   4.418   1.877  11.947 -0.4222 -0.7469 -0.3520
18152TIP3    H175871   4.327   1.881  11.916 -0.6647 -0.0383  0.4287
18152TIP3    H275872   4.467   1.841  11.872 -1.5023 -2.2098 -0.3903
18153TIP3   OH275873   5.552   4.895   4.935 -0.0149  0.0993 -0.4988
18153TIP3    H175874   5.484   4.845   4.891 -1.7656  0.3184  1.7594
18153TIP3    H275875   5.525   4.986   4.925  0.7026  0.2931 -0.7277
18154TIP3   OH275876   5.857   6.081   0.967 -0.8347 -0.7429  0.1675
18154TIP3    H175877   5.832   6.134   1.042 -0.8033 -0.6668  0.1247
18154TIP3    H275878   5.843   6.139   0.892  1.5409  0.0851  0.2854
18155TIP3   OH275879   1.981   4.787  14.158  0.1041  0.3432 -0.0741
18155TIP3    H175880   2.012   4.700  14.134  1.0812  0.1739  1.6186
18155TIP3    H275881   1.909   4.770  14.219 -0.4914  0.7418 -0.6525
18156TIP3   OH275882   3.230   6.708   5.839 -0.1653 -0.0843  0.2479
18156TIP3    H175883   3.138   6.731   5.853 -0.7256 -2.2757  0.3993
18156TIP3    H275884   3.228   6.625   5.792  1.7594 -0.0929  0.0937
18157TIP3   OH275885   0.614   3.194   1.730  0.5023  0.4764 -0.1561
18157TIP3    H175886   0.637   3.286   1.714  0.4113  0.4676 -0.3411
18157TIP3    H275887   0.605   3.188   1.825  0.1955  0.7343 -0.1673
18158TIP3   OH275888   1.333   5.395  16.451  0.7317  0.4647 -0.1553
18158TIP3    H175889   1.320   5.467  16.389  0.9413  0.6713  0.0360
18158TIP3    H275890   1.417   5.357  16.424  0.6323  0.3061 -0.2417
18159TIP3   OH275891   5.982   2.379  12.974 -0.3023 -0.0214  0.1520
18159TIP3    H175892   5.905   2.338  13.012 -1.5800 -0.5253 -2.6794
18159TIP3    H275893   6.048   2.309  12.971 -0.5024 -0.2280  0.5823
18160TIP3   OH275894   6.171   0.841  16.453  0.2220  0.1541  0.0405
18160TIP3    H175895   6.083   0.807  16.438 -0.7024  1.4313  2.1549
18160TIP3    H275896   6.229   0.772  16.419 -1.5258 -0.2770 -2.3012
18161TIP3   OH275897   1.464   6.638  11.418 -1.0409  0.2437  0.0986
18161TIP3    H175898   1.401   6.567  11.404 -0.5030 -0.2706  0.2465
18161TIP3    H275899   1.494   6.661  11.331 -1.4269  0.4889  0.0274
18162TIP3   OH275900   5.440   2.327  12.148 -0.1043 -0.2797  0.4550
18162TIP3    H175901   5.451   2.239  12.184 -1.3517 -0.3603  0.6899
18162TIP3    H275902   5.363   2.320  12.092  0.0174  0.5791  0.1735
18163TIP3   OH275903   3.644   0.046  15.867 -0.3146  0.1863 -0.4681
18163TIP3    H175904   3.676   0.100  15.940 -1.4943  0.1214  0.1280
18163TIP3    H275905   3.678   0.089  15.789  0.4617  0.6200  0.0979
18164TIP3   OH275906   1.459   0.463  12.008 -0.6003 -0.2918  0.1619
18164TIP3    H175907   1.477   0.426  12.095  2.2546 -0.9229 -0.6006
18164TIP3    H275908   1.381   0.416  11.978 -0.6252 -1.3004  1.6814
18165TIP3   OH275909   1.158   2.550  17.608  0.5688 -0.5930  0.2593
18165TIP3    H175910   1.087   2.485  17.605  1.0125 -1.1552  1.3934
18165TIP3    H275911   1.116   2.632  17.583 -0.1502 -1.1900 -0.5626
18166TIP3   OH275912   4.102   1.003   0.420  0.4148  0.8978 -0.3706
18166TIP3    H175913   4.075   1.029   0.508 -0.1438  0.8264 -0.5137
18166TIP3    H275914   4.193   0.976   0.429 -0.3101 -1.5267  0.7132
18167TIP3   OH275915   5.352   1.000  14.013 -0.3347  0.2300 -0.4685
18167TIP3    H175916   5.341   0.945  13.935 -0.4425  0.2997 -0.5024
18167TIP3    H275917   5.445   0.993  14.034 -0.5878 -1.0245  0.3134
18168TIP3   OH275918   6.105   6.592  13.289 -0.1825  0.0238  0.1198
18168TIP3    H175919   6.130   6.499  13.288 -0.4956 -0.0898  1.4028
18168TIP3    H275920   6.020   6.594  13.246 -0.4370 -0.3697  0.5935
18169TIP3   OH275921   0.919   3.865   3.915 -0.2142 -0.5948 -0.3062
18169TIP3    H175922   0.968   3.924   3.973 -0.6693 -0.8675  0.3674
18169TIP3    H275923   0.845   3.918   3.884 -0.0200 -0.4769 -0.5732
18170TIP3   OH275924   6.402   0.523  12.172 -0.7632  0.6239 -0.1082
18170TIP3    H175925   6.441   0.485  12.094  0.3826  1.7940 -0.1248
18170TIP3    H275926   6.466   0.508  12.241 -1.3264  0.4872  0.3984
18171TIP3   OH275927   3.452   2.258   5.818  0.5928  0.0743 -0.6538
18171TIP3    H175928   3.361   2.260   5.846  0.1802 -1.7140 -1.7118
18171TIP3    H275929   3.470   2.347   5.787 -0.3824  0.7783  0.7369
18172TIP3   OH275930   6.196   6.422  13.584 -0.3297  0.0086  0.2527
18172TIP3    H175931   6.279   6.390  13.617  0.2804  1.8436  0.6487
18172TIP3    H275932   6.219   6.487  13.518 -1.4996 -0.7793 -0.9911
18173TIP3   OH275933   6.075   5.528   2.704 -0.3644 -0.2199 -0.3414
18173TIP3    H175934   6.118   5.607   2.735 -0.9569  0.5254 -1.3534
18173TIP3    H275935   6.084   5.466   2.776  4.8491 -1.1842 -1.4179
18174TIP3   OH275936   5.811   0.483  12.295  0.2525  1.1596 -0.3164
18174TIP3    H175937   5.796   0.408  12.352 -0.7618  0.4416 -1.4910
18174TIP3    H275938   5.902   0.509  12.313 -0.2804  1.4831  2.1839
18175TIP3   OH275939   3.775   2.711  16.889  0.0499  0.1493 -0.0810
18175TIP3    H175940   3.848   2.650  16.899  1.7294  2.2331  1.3434
18175TIP3    H275941   3.720   2.695  16.966  1.0154  1.0565  0.8194
18176TIP3   OH275942   5.226   3.945   3.879 -0.7700 -0.3199 -0.1309
18176TIP3    H175943   5.203   3.879   3.813 -1.8736  0.0768 -0.1576
18176TIP3    H275944   5.153   4.006   3.879 -0.6088 -0.0920  1.1896
18177TIP3   OH275945   3.978   0.436  15.418  0.0803 -0.0201 -0.4603
18177TIP3    H175946   4.057   0.408  15.462 -1.1708 -1.0987  1.2268
18177TIP3    H275947   3.989   0.531  15.406  1.9677 -0.2807 -1.1181
18178TIP3   OH275948   6.379   2.519   4.334 -0.3365  0.0984 -0.1176
18178TIP3    H175949   6.459   2.479   4.300 -1.2553 -1.6464 -0.3681
18178TIP3    H275950   6.312   2.497   4.269 -1.1361  1.0407  0.3660
18179TIP3   OH275951   3.648   2.151   2.962 -0.0708 -0.0031  0.2141
18179TIP3    H175952   3.566   2.183   2.924  0.1600  1.0757  0.6100
18179TIP3    H275953   3.717   2.201   2.918  0.3327 -0.3764  0.4097
18180TIP3   OH275954   6.628   5.042   1.544  0.1822  0.3542 -0.4795
18180TIP3    H175955   6.719   5.072   1.536  0.0611  1.0977  0.7253
18180TIP3    H275956   6.622   5.011   1.634 -0.5449 -0.4735 -0.8049
18181TIP3   OH275957   2.776   4.262   6.884  0.6033  0.1861 -0.1558
18181TIP3    H175958   2.743   4.174   6.865 -0.6884  0.7614 -0.7123
18181TIP3    H275959   2.865   4.263   6.850 -0.4603  0.0962 -3.2409
18182TIP3   OH275960   6.210   1.177   1.118  0.4388 -0.2139  0.6733
18182TIP3    H175961   6.120   1.207   1.108  0.9941  1.4480  0.3043
18182TIP3    H275962   6.245   1.227   1.192  2.2732  2.4436 -1.7635
18183TIP3   OH275963   1.030   5.937   2.275  0.1642  0.0785 -0.2468
18183TIP3    H175964   1.063   5.892   2.353  2.7492  2.4956  0.2385
18183TIP3    H275965   1.097   5.922   2.208 -0.8866 -0.0346 -1.3137
18184TIP3   OH275966   3.272   0.094   0.448 -0.2971 -0.3747  0.3496
18184TIP3    H175967   3.341   0.112   0.512 -1.5240 -0.2984  1.7041
18184TIP3    H275968   3.265   0.175   0.398  0.2585 -0.2107  0.5205
18185TIP3   OH275969   3.256   4.228  16.107 -0.0103  0.0822  0.0191
18185TIP3    H175970   3.191   4.283  16.064  0.2587 -0.4367 -1.1008
18185TIP3    H275971   3.233   4.139  16.080  0.1442 -0.2766  1.0104
18186TIP3   OH275972   2.071   4.871  13.467 -0.2586 -0.0620  0.3006
18186TIP3    H175973   2.002   4.806  13.480  0.1212 -0.9562 -1.8312
18186TIP3    H275974   2.144   4.841  13.521 -0.5403 -0.6793  0.3365
18187TIP3   OH275975   4.763   4.095   0.347 -0.0548  0.2768 -0.2782
18187TIP3    H175976   4.701   4.038   0.301 -0.6318 -0.1729  0.9887
18187TIP3    H275977   4.721   4.181   0.346  0.0251  0.3081 -0.7628
18188TIP3   OH275978   1.967   3.580   0.120 -0.4460 -0.2696 -0.3280
18188TIP3    H175979   2.051   3.542   0.149  0.3883  0.6495 -1.4367
18188TIP3    H275980   1.902   3.514   0.143  0.4373 -0.6003  1.4718
18189TIP3   OH275981   0.201   0.906   4.036  0.1398 -0.0619  0.6029
18189TIP3    H175982   0.131   0.957   4.075 -0.0621  1.4730 -1.6297
18189TIP3    H275983   0.163   0.868   3.957  1.9575  1.5826 -1.1999
18190TIP3   OH275984   0.319   0.137   1.495  0.2221 -0.5779 -0.2911
18190TIP3    H175985   0.374   0.075   1.543 -2.2980 -2.5688  0.2401
18190TIP3    H275986   0.299   0.205   1.560  2.7611  0.8019 -0.7934
18191TIP3   OH275987   2.191   2.951   5.678 -0.1405 -0.4884 -0.2262
18191TIP3    H175988   2.215   2.998   5.758  1.1449 -1.6061  0.0890
18191TIP3    H275989   2.095   2.951   5.678 -0.1583  0.7055  0.5970
18192TIP3   OH275990   4.010   6.252  13.657  0.0627 -0.5054 -0.4127
18192TIP3    H175991   4.064   6.293  13.590 -0.8090  0.0837 -0.7722
18192TIP3    H275992   4.021   6.307  13.734 -0.5222 -0.0121 -0.6760
18193TIP3   OH275993   1.045   3.239  17.125  0.0535  0.6960  0.1249
18193TIP3    H175994   1.139   3.242  17.107 -0.2474 -1.0314 -2.1191
18193TIP3    H275995   1.028   3.320  17.173  2.6115  1.2394  0.2638
18194TIP3   OH275996   1.842   1.250  17.538 -0.0098 -0.3178 -0.3616
18194TIP3    H175997   1.911   1.291  17.485  0.0323  1.0187  0.6660
18194TIP3    H275998   1.852   1.291  17.625  0.0382 -2.5449  0.7527
18195TIP3   OH275999   2.242   0.631  16.597  0.0626 -0.2360 -0.4795
18195TIP3    H176000   2.246   0.547  16.643 -1.8548 -0.1128  0.0008
18195TIP3    H276001   2.161   0.626  16.546 -0.3297  1.4948 -0.0846
18196TIP3   OH276002   5.891   6.610  11.598 -0.6926 -0.1439 -0.4957
18196TIP3    H176003   5.977   6.580  11.569 -0.4471 -0.0163  0.0749
18196TIP3    H276004   5.872   6.556  11.675  0.1564  1.7042  1.0992
18197TIP3   OH276005   2.069   1.088  12.102 -0.0411 -0.7789  0.2819
18197TIP3    H176006   2.103   1.002  12.078 -0.2024 -0.7424 -0.0880
18197TIP3    H276007   2.025   1.074  12.186 -0.2796 -1.1132  0.1030
18198TIP3   OH276008   2.345   4.397   1.433  0.1895 -0.1462 -0.5069
18198TIP3    H176009   2.352   4.488   1.405 -3.4916  0.2626 -0.6694
18198TIP3    H276010   2.357   4.399   1.527  1.1723  0.3293 -0.6385
18199TIP3   OH276011   1.216   1.042  11.843 -0.3617 -0.1673  0.2395
18199TIP3    H176012   1.123   1.062  11.847 -0.3446 -0.2250  1.1234
18199TIP3    H276013   1.255   1.090  11.917  0.1944 -0.7026  0.3094
18200TIP3   OH276014   1.024   0.873   6.680  0.7536 -0.2502 -0.4683
18200TIP3    H176015   1.055   0.932   6.611 -0.3151 -0.7790 -1.4289
18200TIP3    H276016   1.050   0.786   6.651 -2.9594 -0.9743 -2.2551
18201TIP3   OH276017   3.238   6.585  17.195  0.0660 -0.1592 -0.0520
18201TIP3    H176018   3.253   6.658  17.134 -0.7789 -0.5414 -0.7390
18201TIP3    H276019   3.148   6.559  17.179  0.0329 -0.6804  0.9374
18202TIP3   OH276020   5.827   3.924  15.513 -0.4332 -0.0190  0.0173
18202TIP3    H176021   5.767   3.953  15.582 -1.0452  1.4277 -1.0687
18202TIP3    H276022   5.777   3.933  15.432  0.7655 -0.2061 -0.7709
18203TIP3   OH276023   3.382   5.333   2.364 -0.2730  0.6224  0.3036
18203TIP3    H176024   3.315   5.301   2.425 -1.3290 -0.4430 -1.3478
18203TIP3    H276025   3.341   5.408   2.320  0.5878  1.5633  1.0638
18204TIP3   OH276026   3.780   4.582  13.911 -0.0534  0.7500  0.4528
18204TIP3    H176027   3.744   4.561  13.825 -1.4892  0.4239  1.0882
18204TIP3    H276028   3.726   4.654  13.942 -0.0986  0.3248  1.4087
18205TIP3   OH276029   4.605   5.928  12.354 -0.3895  0.0970  0.1105
18205TIP3    H176030   4.543   5.902  12.422 -0.9803 -0.8188 -0.7544
18205TIP3    H276031   4.551   5.949  12.278  0.2830  0.7611 -0.2068
18206TIP3   OH276032   0.107   6.346  15.817  0.1135  0.0369 -0.2317
18206TIP3    H176033   0.121   6.375  15.908  0.1016  0.1051 -0.2520
18206TIP3    H276034   0.178   6.388  15.768 -1.3788  2.1828 -0.7241
18207TIP3   OH276035   4.406   4.373  15.586  0.0286  0.6255 -0.3254
18207TIP3    H176036   4.336   4.436  15.570  1.0980  1.6627 -1.1617
18207TIP3    H276037   4.401   4.313  15.511  0.6286  1.2912 -0.9160
18208TIP3   OH276038   0.531   0.993   4.746  0.1979  0.2207  0.0212
18208TIP3    H176039   0.546   1.085   4.723 -2.7526  1.0343  1.0361
18208TIP3    H276040   0.618   0.960   4.770  1.2362  2.8684  0.1566
18209TIP3   OH276041   4.274   2.967   5.579 -0.5088 -0.4181 -0.4004
18209TIP3    H176042   4.268   2.959   5.484  2.2585  0.4265 -0.7499
18209TIP3    H276043   4.183   2.977   5.609 -1.4529 -0.9084 -2.9115
18210TIP3   OH276044   6.042   0.618   4.315 -0.0334 -0.3368  0.3072
18210TIP3    H176045   6.087   0.608   4.232  1.4604 -0.3385  1.0767
18210TIP3    H276046   5.957   0.656   4.293  0.6342  0.3840 -1.1310
18211TIP3   OH276047   3.489   3.974   0.621 -0.3403 -0.7483  0.2861
18211TIP3    H176048   3.484   3.952   0.528 -0.4322  0.7355 -0.0817
18211TIP3    H276049   3.553   4.044   0.626 -2.1973  1.0117  0.9489
18212TIP3   OH276050   2.408   1.149   4.038  0.0010 -0.0775  0.4558
18212TIP3    H176051   2.477   1.088   4.063 -0.5750 -0.2589  1.6676
18212TIP3    H276052   2.388   1.197   4.118 -0.4964  0.7688 -0.1557
18213TIP3   OH276053   2.460   2.263   0.732 -0.1662  0.1919  0.4713
18213TIP3    H176054   2.447   2.174   0.766  0.6142  1.2210  3.8153
18213TIP3    H276055   2.554   2.278   0.739  0.4661 -0.0122 -4.0821
18214TIP3   OH276056   5.007   2.272   4.229 -0.4698  0.2857 -0.0660
18214TIP3    H176057   4.937   2.303   4.171  1.0465  1.6490 -1.2595
18214TIP3    H276058   5.005   2.177   4.220 -2.6753  0.2021  0.5974
18215TIP3   OH276059   5.664   5.444  14.205 -0.2725 -0.1509  0.0363
18215TIP3    H176060   5.735   5.477  14.150  1.2146  0.6211  2.3030
18215TIP3    H276061   5.693   5.358  14.233 -0.3955  0.0126  0.6778
18216TIP3   OH276062   5.415   0.759   6.485 -0.3813 -0.2582 -0.5054
18216TIP3    H176063   5.330   0.744   6.528 -0.5139 -0.7823 -0.9293
18216TIP3    H276064   5.396   0.824   6.417  0.5329  3.3966  2.4266
18217TIP3   OH276065   1.943   4.528  13.511  0.2633 -0.1040 -0.2973
18217TIP3    H176066   2.029   4.501  13.477  1.3879  0.5799  1.8303
18217TIP3    H276067   1.913   4.451  13.560 -0.3526 -0.3232 -0.9975
18218TIP3   OH276068   0.013   4.049   3.492  0.8233 -0.3011 -0.0347
18218TIP3    H176069   0.027   4.115   3.424  1.0622 -0.9906 -0.6723
18218TIP3    H276070   0.059   3.972   3.459 -0.1817 -1.0536  0.2903
18219TIP3   OH276071   4.730   1.802  15.514  0.4664  0.5523  0.2708
18219TIP3    H176072   4.710   1.708  15.515 -1.8990  0.9866  1.5460
18219TIP3    H276073   4.696   1.833  15.431 -0.7934  0.6253  0.7961
18220TIP3   OH276074   6.376   1.682   3.722 -0.0062 -0.0595 -0.6689
18220TIP3    H176075   6.386   1.600   3.770  1.4310  0.2375 -0.4159
18220TIP3    H276076   6.317   1.735   3.775 -0.3359 -0.6409 -0.4523
18221TIP3   OH276077   4.153   6.399   4.994  0.3760  0.3781 -0.2918
18221TIP3    H176078   4.162   6.442   4.909 -0.6576 -0.1929 -0.7186
18221TIP3    H276079   4.215   6.444   5.051  0.0646  1.7316 -0.9761
18222TIP3   OH276080   2.829   1.335  12.036 -0.5570 -0.1506 -0.4120
18222TIP3    H176081   2.833   1.262  11.976  0.6525 -0.7932  0.4042
18222TIP3    H276082   2.905   1.389  12.014  0.5493 -0.9605  1.1702
18223TIP3   OH276083   3.082   5.116   3.250  0.4900 -0.6351 -0.3597
18223TIP3    H176084   3.007   5.154   3.297  0.9164 -0.1251 -0.0748
18223TIP3    H276085   3.149   5.106   3.317  0.4760 -1.6626 -0.4955
18224TIP3   OH276086   5.230   2.886  13.075 -0.1729 -0.3849 -0.2343
18224TIP3    H176087   5.153   2.833  13.096 -2.0247  1.3227 -2.2347
18224TIP3    H276088   5.225   2.960  13.135 -0.2859 -0.1261 -0.5583
18225TIP3   OH276089   3.829   5.946  17.391 -0.3472 -0.5177  0.6438
18225TIP3    H176090   3.755   5.976  17.443 -0.1057  2.0101 -0.3326
18225TIP3    H276091   3.806   5.968  17.301  1.7238  0.7835  0.3664
18226TIP3   OH276092   1.696   6.129   2.594 -0.0692  0.8605 -0.0479
18226TIP3    H176093   1.710   6.079   2.674  0.0240 -0.5498 -0.9101
18226TIP3    H276094   1.603   6.118   2.574 -0.1205  1.3093 -0.0657
18227TIP3   OH276095   3.323   6.088   1.370 -0.1399  0.0856 -0.0868
18227TIP3    H176096   3.267   6.083   1.293 -0.6608  1.4666  0.1830
18227TIP3    H276097   3.273   6.138   1.434  1.2917  1.1672  0.2469
18228TIP3   OH276098   5.332   3.257   4.943 -0.3120  0.0098 -0.8083
18228TIP3    H176099   5.377   3.314   4.881  1.7018 -1.1331 -0.4720
18228TIP3    H276100   5.342   3.300   5.027 -1.5610  0.7033 -0.9905
18229TIP3   OH276101   1.535   2.771   4.242 -0.6969  0.4740 -0.2412
18229TIP3    H176102   1.624   2.806   4.241 -0.4715 -0.0719 -1.2095
18229TIP3    H276103   1.494   2.812   4.318  0.0331  1.6010 -0.4175
18230TIP3   OH276104   5.290   3.861   1.298 -0.7615 -1.0934 -0.0370
18230TIP3    H176105   5.352   3.878   1.226  0.4016 -0.2071  1.1135
18230TIP3    H276106   5.300   3.936   1.356  0.5105 -3.0817  2.5258
18231TIP3   OH276107   1.121   6.485  16.153 -0.2187 -0.0890 -0.3079
18231TIP3    H176108   1.161   6.476  16.066 -0.5803 -1.0314 -0.3831
18231TIP3    H276109   1.028   6.494  16.135 -0.7240 -3.4600  0.0721
18232TIP3   OH276110   0.781   3.029   1.560 -0.6881  0.4820  0.0811
18232TIP3    H176111   0.840   3.076   1.501 -0.8420  0.6211  0.0374
18232TIP3    H276112   0.755   3.095   1.624 -1.4217  0.6280 -0.3618
18233TIP3   OH276113   3.518   6.310   2.234  0.3481  0.0314 -0.0770
18233TIP3    H176114   3.607   6.332   2.261  0.3483  0.1491 -0.1764
18233TIP3    H276115   3.495   6.234   2.289  0.8040 -0.5029 -0.6040
18234TIP3   OH276116   3.547   3.328   3.729 -0.0556 -0.6553 -0.0305
18234TIP3    H176117   3.511   3.311   3.642 -1.7050 -0.8122  0.6502
18234TIP3    H276118   3.523   3.250   3.780  1.6297 -0.9526  0.3682
18235TIP3   OH276119   4.205   3.545  13.774  0.4725 -0.6820 -0.3516
18235TIP3    H176120   4.237   3.541  13.684 -1.5772 -0.4152 -1.1347
18235TIP3    H276121   4.139   3.476  13.780 -2.4463  1.9092 -0.3819
18236TIP3   OH276122   5.643   3.890   1.953 -0.8240  0.9114 -0.6869
18236TIP3    H176123   5.648   3.819   1.889 -1.0117 -0.5041  0.8022
18236TIP3    H276124   5.734   3.911   1.973 -0.7660  1.3452 -1.4026
18237TIP3   OH276125   0.784   3.616   3.644 -0.3936 -0.2922  0.6445
18237TIP3    H176126   0.771   3.707   3.620 -0.9670 -0.3452  0.7434
18237TIP3    H276127   0.798   3.618   3.739 -0.4710 -0.3110  0.6566
18238TIP3   OH276128   0.427   2.115   0.941 -0.2593 -0.1933  0.2847
18238TIP3    H176129   0.414   2.209   0.956  1.2033  0.2971 -1.1240
18238TIP3    H276130   0.340   2.081   0.922 -0.4402  1.8774 -3.7686
18239TIP3   OH276131   5.424   3.819   4.941  0.5334  0.1484 -0.3929
18239TIP3    H176132   5.486   3.774   4.885  0.7123  0.4240 -0.4166
18239TIP3    H276133   5.367   3.750   4.975  0.6168 -0.0551 -0.6690
18240TIP3   OH276134   0.288   2.091  15.934  0.3936 -0.3528 -0.6563
18240TIP3    H176135   0.237   2.156  15.983 -2.6109 -2.1854 -1.1435
18240TIP3    H276136   0.346   2.052  15.999  0.4948  1.1036  0.1661
18241TIP3   OH276137   2.130   0.363  11.199 -0.3871 -0.5142  0.2747
18241TIP3    H176138   2.212   0.410  11.207  0.0830 -1.1980 -0.3558
18241TIP3    H276139   2.069   0.410  11.256  0.8518 -0.9772  2.0693
18242TIP3   OH276140   2.540   1.992   2.626  0.5028 -0.4211 -0.2496
18242TIP3    H176141   2.541   2.060   2.693  2.0358 -0.5055 -0.1511
18242TIP3    H276142   2.564   2.037   2.545 -0.5813 -0.4636 -0.6079
18243TIP3   OH276143   1.095   1.675   6.632 -0.1862 -0.0549  0.1622
18243TIP3    H176144   1.061   1.763   6.646 -3.1180 -1.1539  0.8931
18243TIP3    H276145   1.188   1.681   6.652 -0.1625  2.9669 -0.4155
18244TIP3   OH276146   2.818   4.889  11.934 -0.1727 -0.5327 -0.9344
18244TIP3    H176147   2.812   4.982  11.914 -2.2239 -0.7984 -1.8096
18244TIP3    H276148   2.754   4.848  11.877 -1.3717 -2.1572  1.4088
18245TIP3   OH276149   4.987   6.421   0.738  0.1426 -0.4778 -0.4766
18245TIP3    H176150   4.912   6.377   0.700 -0.0862 -1.1645  0.7002
18245TIP3    H276151   4.959   6.512   0.749 -1.2540 -1.0729  1.6269
18246TIP3   OH276152   4.710   3.101  12.163  0.2332 -0.0376 -0.4457
18246TIP3    H176153   4.668   3.018  12.183  0.2714  0.0433 -0.0263
18246TIP3    H276154   4.804   3.085  12.175  0.1164  0.6355  1.8051
18247TIP3   OH276155   3.815   4.477   0.007 -0.5025 -0.8234 -0.1657
18247TIP3    H176156   3.787   4.453   0.095 -1.8898 -0.4265 -0.4756
18247TIP3    H276157   3.839   4.570   0.014 -2.3224 -0.2855 -0.5528
18248TIP3   OH276158   3.409   5.176  11.909  0.2309 -0.4113 -0.4503
18248TIP3    H176159   3.460   5.249  11.943  0.5463 -1.7969  2.2710
18248TIP3    H276160   3.329   5.217  11.875  1.4562  1.4010 -1.3198
18249TIP3   OH276161   5.911   4.240   0.927  0.6170 -0.3233  0.2280
18249TIP3    H176162   5.842   4.183   0.962  0.9842 -1.4003 -0.7166
18249TIP3    H276163   5.946   4.191   0.852  1.5373  0.7809 -0.0869
18250TIP3   OH276164   0.531   1.903   0.036  0.3344  0.1303  0.8779
18250TIP3    H176165   0.557   1.817   0.069 -1.9698 -0.6746  0.7634
18250TIP3    H276166   0.495   1.948   0.113  1.4172  0.9757  0.9119
18251TIP3   OH276167   4.107   6.469   6.458  0.0184 -0.2396 -0.1254
18251TIP3    H176168   4.112   6.391   6.514  2.3871  1.3757  2.1264
18251TIP3    H276169   4.047   6.528   6.505  1.2339  0.7423  0.2373
18252TIP3   OH276170   1.373   0.847  14.361 -0.4375  0.0442 -0.2103
18252TIP3    H176171   1.352   0.761  14.325  2.2369 -2.0909  2.7371
18252TIP3    H276172   1.431   0.886  14.295  0.9730 -1.9218 -0.2462
18253TIP3   OH276173   2.153   0.908  16.254 -0.7431  0.9644  0.2595
18253TIP3    H176174   2.230   0.854  16.234 -1.3774  0.2723 -0.3806
18253TIP3    H276175   2.108   0.860  16.324 -0.7518  1.2152  0.4272
18254TIP3   OH276176   6.636   0.894  16.335  0.0194 -0.4194  0.5680
18254TIP3    H176177   6.729   0.916  16.326 -0.2139  0.0398 -1.0622
18254TIP3    H276178   6.627   0.812  16.285 -0.7203  0.3553 -0.6114
18255TIP3   OH276179   1.939   1.528   0.410 -0.4955  0.3735 -0.3869
18255TIP3    H176180   2.017   1.515   0.355 -0.9246  1.0827 -1.1978
18255TIP3    H276181   1.926   1.623   0.410 -2.0644  0.1959 -1.3045
18256TIP3   OH276182   1.832   3.279  12.804  0.4796  0.1471  0.6408
18256TIP3    H176183   1.798   3.367  12.791 -0.3118 -0.2123  0.2177
18256TIP3    H276184   1.920   3.281  12.767  1.0571  1.1572  1.9608
18257TIP3   OH276185   2.410   0.109  12.402 -0.6387  0.6034 -0.3588
18257TIP3    H176186   2.461   0.040  12.444 -0.7545  1.6314  1.5664
18257TIP3    H276187   2.473   0.155  12.346 -0.2466 -0.2009 -0.5853
18258TIP3   OH276188   4.689   1.156   4.031  0.0127 -0.0277 -0.1287
18258TIP3    H176189   4.672   1.218   4.101 -0.5165 -0.4347  0.1022
18258TIP3    H276190   4.664   1.202   3.951  1.8209  0.9164 -0.2032
18259TIP3   OH276191   2.252   5.858  15.227 -0.0884  1.1878 -0.4161
18259TIP3    H176192   2.271   5.904  15.145 -0.4407  1.2084 -0.4865
18259TIP3    H276193   2.157   5.849  15.228 -0.1328  1.6797  0.2593
18260TIP3   OH276194   5.449   2.876   2.985  0.2505  0.0834  0.4245
18260TIP3    H176195   5.512   2.942   3.013  1.9524 -0.6395 -1.5048
18260TIP3    H276196   5.463   2.868   2.891 -1.3865 -1.5280  0.2720
18261TIP3   OH276197   0.469   4.942  12.532 -0.9478 -0.3067  0.1573
18261TIP3    H176198   0.495   4.967  12.444 -2.1134  0.2764 -0.0364
18261TIP3    H276199   0.482   5.021  12.585  0.7595 -0.9443  0.7671
18262TIP3   OH276200   3.778   3.953  16.965  0.3535  0.0193 -0.5005
18262TIP3    H176201   3.801   3.912  16.882 -0.7778  0.5439 -1.1042
18262TIP3    H276202   3.709   3.897  17.001  2.6104 -1.6978  1.4221
18263TIP3   OH276203   0.799   2.946   4.062 -0.1082 -0.3262 -0.5463
18263TIP3    H176204   0.728   2.922   4.003 -0.2235  0.8751 -0.9072
18263TIP3    H276205   0.757   2.995   4.132 -0.0228 -2.0343  0.7605
18264TIP3   OH276206   2.980   2.347  14.227 -0.0683 -0.8479 -0.5434
18264TIP3    H176207   3.070   2.368  14.252  0.2184 -0.6517 -1.6591
18264TIP3    H276208   2.941   2.431  14.203 -0.5758 -0.9245 -0.0042
18265TIP3   OH276209   5.586   5.603  15.725 -0.0291  0.4229 -0.2706
18265TIP3    H176210   5.529   5.548  15.779 -1.4834  0.6663 -1.4920
18265TIP3    H276211   5.658   5.627  15.784 -0.3216 -1.2265  0.8440
18266TIP3   OH276212   0.678   0.116   3.715  0.1176 -0.1155  0.8551
18266TIP3    H176213   0.675   0.134   3.621  1.0135 -2.1884  0.3859
18266TIP3    H276214   0.764   0.147   3.743  1.1525 -2.2850  0.2953
18267TIP3   OH276215   3.269   4.466  12.354 -0.3285 -0.3412  0.2489
18267TIP3    H176216   3.196   4.526  12.373 -1.4534 -1.9094  1.1495
18267TIP3    H276217   3.314   4.456  12.438 -1.0674 -1.8857  0.4901
18268TIP3   OH276218   2.330   5.814  16.283  0.0441 -0.5224  0.1931
18268TIP3    H176219   2.342   5.905  16.312  0.5650 -0.1956 -0.9812
18268TIP3    H276220   2.329   5.763  16.364 -1.2317  0.6213  0.9513
18269TIP3   OH276221   4.823   0.407   1.868 -0.2414 -0.3638  0.1766
18269TIP3    H176222   4.785   0.487   1.831  0.2901  0.4341  1.3116
18269TIP3    H276223   4.759   0.376   1.931 -1.3845 -2.0150 -1.6664
18270TIP3   OH276224   0.901   0.429  13.272 -0.2529 -0.0266  0.1354
18270TIP3    H176225   0.813   0.400  13.249  0.2931 -0.7366 -1.1963
18270TIP3    H276226   0.918   0.391  13.358 -1.3168  0.3067  0.5080
18271TIP3   OH276227   1.370   1.812   3.864 -0.2759  0.6489  0.0106
18271TIP3    H176228   1.384   1.841   3.954  0.9614  0.1453  0.0006
18271TIP3    H276229   1.275   1.810   3.854 -0.4668 -0.5004  1.7108
18272TIP3   OH276230   1.615   5.651   1.609  0.0868 -0.2576  0.6580
18272TIP3    H176231   1.648   5.621   1.693  2.5785  0.6254  0.0937
18272TIP3    H276232   1.601   5.571   1.558  3.1712 -0.7303  0.3714
18273TIP3   OH276233   1.189   5.758  12.421  0.1187 -0.1044 -0.3295
18273TIP3    H176234   1.195   5.794  12.510  0.6989  0.1521 -0.4653
18273TIP3    H276235   1.225   5.827  12.366 -1.4846  0.2914 -0.9217
18274TIP3   OH276236   4.381   0.822  16.848 -0.0861  0.3273  0.3994
18274TIP3    H176237   4.438   0.835  16.923  0.9053  0.2764 -0.3328
18274TIP3    H276238   4.342   0.908  16.831  2.2609  1.1711 -1.0755
18275TIP3   OH276239   6.468   1.919   2.527  0.0092  0.3589 -0.1300
18275TIP3    H176240   6.389   1.885   2.569  1.3283 -0.9306  1.4551
18275TIP3    H276241   6.495   1.993   2.582  0.5431  0.0424  0.0447
18276TIP3   OH276242   4.471   0.174   2.484  0.5518  0.0610 -0.4730
18276TIP3    H176243   4.481   0.248   2.543  0.3090  2.5417 -3.2954
18276TIP3    H276244   4.393   0.195   2.432  0.4040 -2.2574 -1.2877
18277TIP3   OH276245   1.073   2.858   0.540 -1.1529 -0.2772 -0.3074
18277TIP3    H176246   1.002   2.877   0.479  0.7644 -1.1007 -2.9839
18277TIP3    H276247   1.099   2.768   0.518  1.7511  0.5572 -0.5687
18278TIP3   OH276248   1.800   3.276   1.604  0.1643  0.0008  0.1379
18278TIP3    H176249   1.792   3.187   1.639  1.0978  0.5458  1.8564
18278TIP3    H276250   1.748   3.330   1.663 -0.6525  0.5693 -1.0783
18279TIP3   OH276251   4.239   6.067   0.458  0.1622  0.1630  0.0023
18279TIP3    H176252   4.261   5.974   0.454  1.1537  0.3574  0.6735
18279TIP3    H276253   4.143   6.069   0.448  0.2604 -0.7989 -1.5534
18280TIP3   OH276254   4.051   1.079  16.389 -0.2961 -0.1887 -0.1273
18280TIP3    H176255   4.115   1.064  16.459 -1.1100  0.4882  0.7998
18280TIP3    H276256   4.086   1.031  16.314  1.0145 -0.2888  0.5041
18281TIP3   OH276257   3.588   0.467  16.041  0.1428 -0.0620 -0.6038
18281TIP3    H176258   3.506   0.433  16.078  0.5555  0.9764  1.4231
18281TIP3    H276259   3.646   0.390  16.038  0.0682 -0.2172  0.9555
18282TIP3   OH276260   4.121   0.467  17.499 -0.1544  0.7225  0.4546
18282TIP3    H176261   4.183   0.512  17.442 -0.6582  1.3846  0.4169
18282TIP3    H276262   4.099   0.531  17.567 -0.5017  0.3686  0.6869
18283TIP3   OH276263   1.593   0.959   0.386  1.0918 -0.0647  0.2134
18283TIP3    H176264   1.550   1.023   0.329 -1.3390 -1.8279 -0.0939
18283TIP3    H276265   1.547   0.968   0.470  0.3365 -1.6771  0.0134
18284TIP3   OH276266   6.493   2.462   1.566  0.1453 -0.0181  0.2988
18284TIP3    H176267   6.526   2.401   1.631  1.4520 -1.9069 -1.9954
18284TIP3    H276268   6.413   2.422   1.533  0.2418  0.2085 -0.2324
18285TIP3   OH276269   4.799   4.807   5.487 -0.8352 -0.3152  0.7855
18285TIP3    H176270   4.710   4.801   5.453  0.0890  0.2513 -1.9901
18285TIP3    H276271   4.818   4.901   5.488  0.6847 -0.5288 -1.5668
18286TIP3   OH276272   3.827   4.012   4.734 -0.0289  0.2879  0.1174
18286TIP3    H176273   3.901   4.056   4.777  2.2615 -0.8304 -2.3592
18286TIP3    H276274   3.766   4.083   4.714  1.6652  1.7506 -0.1774
18287TIP3   OH276275   4.037   0.400   3.084  0.2231  0.1883 -0.1535
18287TIP3    H176276   4.001   0.394   3.173  2.5720  1.4384  0.9807
18287TIP3    H276277   4.022   0.490   3.058  0.6829  0.1727 -0.4926
18288TIP3   OH276278   4.661   6.668  16.735  0.0383  0.2979 -0.5387
18288TIP3    H176279   4.681   6.755  16.770 -1.8258  1.1370 -1.3991
18288TIP3    H276280   4.718   6.659  16.659  0.5624  0.5881 -0.1811
18289TIP3   OH276281   4.155   5.420   4.245 -0.0984  0.0481 -0.4697
18289TIP3    H176282   4.248   5.432   4.265  0.2406 -2.4683 -0.2043
18289TIP3    H276283   4.145   5.325   4.235 -2.5399  0.3101 -1.0543
18290TIP3   OH276284   2.147   4.590  15.190 -0.1746  0.2017 -0.0742
18290TIP3    H176285   2.173   4.498  15.191  0.0069  0.2063 -1.4801
18290TIP3    H276286   2.068   4.591  15.135 -0.7377  0.7554  0.7321
18291TIP3   OH276287   1.576   0.966  16.090 -0.0224  0.2319  0.3624
18291TIP3    H176288   1.545   1.039  16.144 -0.1783  0.4929 -0.0748
18291TIP3    H276289   1.645   1.003  16.036 -1.1351  0.4671 -0.9730
18292TIP3   OH276290   5.223   0.554  15.014  0.7155 -0.0570  0.4262
18292TIP3    H176291   5.249   0.646  15.017  0.2170  0.1822 -1.4598
18292TIP3    H276292   5.247   0.520  15.100 -0.9851  2.3301  1.9917
18293TIP3   OH276293   1.230   2.376  15.102  0.3127  0.0061  0.6018
18293TIP3    H176294   1.309   2.346  15.148  0.2509  0.8527  1.2710
18293TIP3    H276295   1.163   2.382  15.170 -0.2421 -0.3485  0.1016
18294TIP3   OH276296   5.452   4.531   2.659 -0.0871 -0.0707  0.3536
18294TIP3    H176297   5.531   4.583   2.647  0.0230 -0.6161 -1.5776
18294TIP3    H276298   5.482   4.453   2.706  1.0041 -1.2153 -2.0528
18295TIP3   OH276299   1.166   5.028  13.014 -0.2709  0.3130 -0.4217
18295TIP3    H176300   1.077   5.055  12.991 -0.4497 -0.3025 -0.4548
18295TIP3    H276301   1.171   4.936  12.988 -0.8769 -0.8490  3.0494
18296TIP3   OH276302   3.193   0.198  15.543  0.4022 -0.0408  0.1023
18296TIP3    H176303   3.230   0.224  15.458  1.0045 -0.7755  0.1233
18296TIP3    H276304   3.106   0.165  15.522  0.6083 -0.3674 -0.2612
18297TIP3   OH276305   2.439   2.655  14.159 -0.1118  0.5832  0.2099
18297TIP3    H176306   2.479   2.736  14.192 -0.9520  0.2752  2.1672
18297TIP3    H276307   2.355   2.651  14.205 -1.1387 -0.2140 -1.6570
18298TIP3   OH276308   2.785   1.145   0.738 -0.0864  0.4272  0.3392
18298TIP3    H176309   2.764   1.059   0.775  0.0247  0.2839  0.0807
18298TIP3    H276310   2.787   1.130   0.643  0.5195  0.5805  0.3215
18299TIP3   OH276311   0.177   3.881   3.223  0.0351  0.0375  0.7469
18299TIP3    H176312   0.122   3.918   3.153  1.4960  1.0499  0.0725
18299TIP3    H276313   0.258   3.854   3.178 -0.1544 -2.0990  1.5869
18300TIP3   OH276314   6.532   2.536   4.042 -0.2167 -0.2331 -0.5390
18300TIP3    H176315   6.609   2.525   3.985 -0.3143 -1.4150 -0.4638
18300TIP3    H276316   6.527   2.454   4.091 -0.4206  0.5811  0.8440
18301TIP3   OH276317   1.945   1.503  10.620  0.3728 -0.1537 -0.1422
18301TIP3    H176318   1.989   1.428  10.583  2.2308 -0.6108  2.6441
18301TIP3    H276319   2.001   1.578  10.598  0.0580 -0.0119 -0.4765
18302TIP3   OH276320   4.538   2.387  16.673  0.5737 -0.2391 -0.0875
18302TIP3    H176321   4.471   2.451  16.651  0.1806 -1.0524 -1.3349
18302TIP3    H276322   4.529   2.318  16.607  0.8187 -1.7162  1.3580
18303TIP3   OH276323   3.003   6.513   3.249 -0.3665  0.2437 -0.2242
18303TIP3    H176324   3.063   6.467   3.191 -0.3640 -0.7098  0.5114
18303TIP3    H276325   3.057   6.581   3.290 -0.1766  0.4036 -0.7349
18304TIP3   OH276326   4.722   1.850   6.023  0.3662 -0.5161  0.0444
18304TIP3    H176327   4.790   1.786   6.000  0.1803 -0.4675 -0.6495
18304TIP3    H276328   4.733   1.920   5.959 -0.8257 -0.8527 -0.5569
18305TIP3   OH276329   1.381   0.825   3.122  0.4375 -0.3329  0.6012
18305TIP3    H176330   1.388   0.792   3.212 -0.3266  1.6261  1.4223
18305TIP3    H276331   1.295   0.796   3.093 -0.2899  0.9612  1.3699
18306TIP3   OH276332   3.937   4.537  13.549 -0.0541  0.1705  0.3739
18306TIP3    H176333   3.844   4.548  13.570  0.4473  1.5944  2.0461
18306TIP3    H276334   3.963   4.621  13.510  0.3088 -0.6062 -1.1511
18307TIP3   OH276335   2.826   5.480  16.445  0.3715  0.3527 -0.6537
18307TIP3    H176336   2.787   5.564  16.467 -0.9902 -0.0754 -1.3164
18307TIP3    H276337   2.823   5.430  16.526  0.1919  0.5748 -0.5229
18308TIP3   OH276338   4.463   5.800  13.054  0.2570  0.6773  0.1856
18308TIP3    H176339   4.483   5.721  13.004 -0.8629 -0.0033  0.7572
18308TIP3    H276340   4.459   5.770  13.145 -2.6031  0.7913  0.2146
18309TIP3   OH276341   2.049   5.508  16.272  0.5323 -0.1145  0.3453
18309TIP3    H176342   2.050   5.599  16.241  1.4028  0.2379  1.3543
18309TIP3    H276343   2.140   5.488  16.291  0.0806 -0.2874  2.6246
18310TIP3   OH276344   0.084   4.671  15.708  0.0322  0.2102  0.4644
18310TIP3    H176345   0.020   4.702  15.772  0.2336 -0.9057  1.2270
18310TIP3    H276346   0.045   4.592  15.671  1.0942 -0.6955  1.2035
18311TIP3   OH276347   5.862   5.595   3.766  0.1005 -0.4518  0.0648
18311TIP3    H176348   5.864   5.606   3.671 -0.6071  0.6212  0.1495
18311TIP3    H276349   5.951   5.571   3.790  0.6365  0.6499 -0.7334
18312TIP3   OH276350   2.412   0.263  11.053 -0.1060  0.0197  0.5519
18312TIP3    H176351   2.441   0.263  11.144  0.2413  0.7595  0.4523
18312TIP3    H276352   2.349   0.335  11.047  1.1664  1.1312 -0.1575
18313TIP3   OH276353   0.045   3.371   6.837  0.1271  0.5641 -0.3344
18313TIP3    H176354  -0.041   3.353   6.800 -0.3952  1.7538  0.2628
18313TIP3    H276355   0.057   3.303   6.904  1.1279 -1.6823 -2.5994
18314TIP3   OH276356   2.883   5.386  15.899  0.0032  0.3791 -0.2948
18314TIP3    H176357   2.845   5.362  15.983  1.1120 -0.6932 -0.0844
18314TIP3    H276358   2.852   5.319  15.838 -0.0068  0.6001 -0.5344
18315TIP3   OH276359   3.341   0.574  17.385  0.1026 -0.1658  0.4274
18315TIP3    H176360   3.419   0.524  17.409  1.1184 -0.4125 -2.8916
18315TIP3    H276361   3.269   0.510  17.388  0.3618 -0.4223  1.5559
18316TIP3   OH276362   1.877   2.188  13.148  0.2239 -0.1307 -0.5822
18316TIP3    H176363   1.969   2.176  13.122  0.0740  0.5776 -1.5018
18316TIP3    H276364   1.869   2.142  13.231  1.6023  0.4268 -0.1184
18317TIP3   OH276365   2.146   4.672  11.263 -0.0950 -0.0937  0.7187
18317TIP3    H176366   2.136   4.601  11.200 -1.9147  1.3160 -0.7162
18317TIP3    H276367   2.189   4.742  11.214 -0.0630  0.4736  1.5228
18318TIP3   OH276368   4.927   3.329  17.612 -0.2427  0.4882  0.4144
18318TIP3    H176369   4.837   3.320  17.641 -1.1069  0.6209 -1.9948
18318TIP3    H276370   4.946   3.248  17.565  0.6512  0.7653  0.2744
18319TIP3   OH276371   2.809   4.530   4.974  0.0511  0.2970 -0.4121
18319TIP3    H176372   2.838   4.440   4.991  1.3692  0.5295 -1.3307
18319TIP3    H276373   2.864   4.560   4.902 -0.4079  1.8411 -0.1501
18320TIP3   OH276374   3.359   5.289  15.672  0.3329  0.5885  0.2510
18320TIP3    H176375   3.305   5.328  15.604 -0.0433  0.8491  0.6910
18320TIP3    H276376   3.299   5.273  15.745  0.0502 -2.5802 -0.5327
18321TIP3   OH276377   5.074   0.195  11.511 -0.2356 -0.2813 -0.1334
18321TIP3    H176378   5.010   0.205  11.441  0.3261 -0.6677 -0.7166
18321TIP3    H276379   5.112   0.283  11.522 -1.3225  0.1176  0.6975
18322TIP3   OH276380   3.596   4.141  16.239  0.1053 -0.5284 -0.8771
18322TIP3    H176381   3.589   4.172  16.149 -1.7555  1.2323 -0.1943
18322TIP3    H276382   3.509   4.156  16.277  1.2984  0.4740  1.6996
18323TIP3   OH276383   5.128   6.322   2.116 -0.0497 -0.0706  0.5752
18323TIP3    H176384   5.157   6.240   2.156  0.2926 -0.0921  0.2905
18323TIP3    H276385   5.039   6.305   2.087 -0.1387 -0.1993  0.9159
18324TIP3   OH276386   5.073   0.024   7.256  0.3358 -0.3679 -0.0243
18324TIP3    H176387   5.002  -0.038   7.238 -1.8902  1.2046  2.4191
18324TIP3    H276388   5.070   0.087   7.184 -1.4019  0.1240  0.4265
18325TIP3   OH276389   5.855   2.212   3.437 -0.3633  0.2998 -0.6425
18325TIP3    H176390   5.763   2.185   3.433 -0.2450 -0.0079 -1.7439
18325TIP3    H276391   5.876   2.236   3.347  0.3473  1.3872 -0.2038
18326TIP3   OH276392   4.548   6.155   3.795 -0.0700 -0.1816  0.2509
18326TIP3    H176393   4.476   6.116   3.845  0.7266 -0.1920  1.4286
18326TIP3    H276394   4.534   6.249   3.803 -0.0608 -0.1866  0.3326
18327TIP3   OH276395   0.800   1.463  17.403 -0.1554 -0.0335  0.4143
18327TIP3    H176396   0.761   1.431  17.322  1.7834 -2.7826  0.4278
18327TIP3    H276397   0.795   1.389  17.463  0.8287  1.0765  1.9427
18328TIP3   OH276398   1.675   5.667   1.976 -0.4499  0.8382  0.3542
18328TIP3    H176399   1.675   5.633   2.065 -0.9387  3.4896  1.4560
18328TIP3    H276400   1.758   5.639   1.939 -1.7328 -3.4958  0.2142
18329TIP3   OH276401   2.892   3.591  14.374  0.2264  0.0349  0.3321
18329TIP3    H176402   2.844   3.664  14.415 -1.6587 -0.3165 -1.1056
18329TIP3    H276403   2.865   3.593  14.282  1.3398 -1.5443 -0.0729
18330TIP3   OH276404   2.462   4.217  14.010  0.6966 -0.8062  0.4712
18330TIP3    H176405   2.425   4.277  14.074  0.9390  2.1088 -1.8842
18330TIP3    H276406   2.411   4.232  13.930  3.7237 -0.1877 -1.5374
18331TIP3   OH276407   4.038   0.601   5.668 -0.6548 -0.1052  0.1852
18331TIP3    H176408   3.945   0.609   5.646 -1.0448 -0.9730  1.4327
18331TIP3    H276409   4.071   0.691   5.660 -1.3407  0.0456 -1.2985
18332TIP3   OH276410   1.308   0.862  15.284 -0.0121 -1.1685  0.1437
18332TIP3    H176411   1.220   0.824  15.281 -0.4750 -0.1241 -0.1742
18332TIP3    H276412   1.313   0.904  15.370 -0.7642  0.8302 -0.7189
18333TIP3   OH276413   6.564   3.923   5.077  0.2953 -0.3235  0.3038
18333TIP3    H176414   6.579   3.873   5.158 -0.3844 -0.3528  0.4192
18333TIP3    H276415   6.597   3.866   5.007  3.0791  0.6352  0.6864
18334TIP3   OH276416   5.175   0.687   3.977  0.7322 -0.2314  0.0947
18334TIP3    H176417   5.154   0.669   3.885  2.3517  0.2634 -0.3958
18334TIP3    H276418   5.269   0.704   3.977  0.6137  0.5320  1.7295
18335TIP3   OH276419   6.272   1.944   6.379  0.3745 -0.0412 -0.3506
18335TIP3    H176420   6.267   1.872   6.316  1.1756 -0.2772 -0.1609
18335TIP3    H276421   6.325   1.909   6.451  0.2090  0.5181  0.0493
18336TIP3   OH276422   5.808   4.430  15.807  0.0529  0.3166  0.4223
18336TIP3    H176423   5.856   4.370  15.750  0.5692 -0.1516  1.3368
18336TIP3    H276424   5.716   4.417  15.784  0.0038 -1.9869  1.6686
18337TIP3   OH276425   1.805   0.193  15.058  0.2080 -0.4770  0.3568
18337TIP3    H176426   1.749   0.189  15.137  1.0024  2.3282  1.1783
18337TIP3    H276427   1.892   0.211  15.092  0.6477  0.3411 -1.1517
18338TIP3   OH276428   5.636   6.485   5.975 -0.0058  1.2840  0.0939
18338TIP3    H176429   5.693   6.549   5.934 -1.7821  2.4214 -0.7074
18338TIP3    H276430   5.608   6.526   6.057 -0.2942  1.0498  0.1143
18339TIP3   OH276431   2.157   2.659   1.646 -0.2156  0.0352 -0.3246
18339TIP3    H176432   2.145   2.702   1.731 -1.1933  2.1844 -1.4573
18339TIP3    H276433   2.108   2.577   1.654  1.8251 -1.0913  1.9812
18340TIP3   OH276434   4.961   1.447  15.258 -0.0548  0.7874 -0.0320
18340TIP3    H176435   4.910   1.461  15.178 -2.4780 -0.2446  1.2316
18340TIP3    H276436   4.896   1.420  15.323  2.0625  0.0231  1.8736
18341TIP3   OH276437   1.742   1.904   0.794 -0.3973  0.4839 -0.4551
18341TIP3    H176438   1.835   1.924   0.783 -1.0252  3.0296 -1.8205
18341TIP3    H276439   1.730   1.821   0.747  1.3743 -0.6608  0.9647
18342TIP3   OH276440   4.097   5.178   0.694  0.3328 -0.2889  0.4348
18342TIP3    H176441   4.178   5.228   0.689  0.8414 -1.1652 -0.7281
18342TIP3    H276442   4.069   5.185   0.785  0.9484  1.2021  0.5338
18343TIP3   OH276443   1.518   5.368  13.987 -0.0956  0.0799  0.1156
18343TIP3    H176444   1.519   5.441  13.925 -1.0094  0.5934  0.6930
18343TIP3    H276445   1.426   5.356  14.009  0.0889 -0.9659  0.3690
18344TIP3   OH276446   3.449   3.324   5.969 -0.4367 -0.1110 -0.5190
18344TIP3    H176447   3.497   3.406   5.953 -0.7964  0.0489 -0.7801
18344TIP3    H276448   3.517   3.263   5.999  0.0373 -0.0406 -1.4022
18345TIP3   OH276449   0.023   4.011   2.578  0.0643 -0.1291  0.0779
18345TIP3    H176450   0.085   4.076   2.545 -1.2712  0.9931 -0.3175
18345TIP3    H276451  -0.037   3.995   2.504 -1.0940  0.0497  0.9409
18346TIP3   OH276452   0.273   1.366  16.061  0.1489  0.2088 -0.6098
18346TIP3    H176453   0.347   1.366  16.000 -0.1140  0.9183 -0.9414
18346TIP3    H276454   0.232   1.451  16.048 -1.2213 -0.4916 -1.0158
18347TIP3   OH276455   0.067   2.428  16.619  0.8452  0.4660  0.3077
18347TIP3    H176456   0.150   2.423  16.572 -0.2671 -0.7305 -1.6421
18347TIP3    H276457   0.089   2.471  16.702  3.6163 -0.8628  0.3633
18348TIP3   OH276458   0.854   4.845  17.311 -0.5745 -0.0629  0.0446
18348TIP3    H176459   0.813   4.859  17.225  0.1974 -2.4850 -0.7942
18348TIP3    H276460   0.814   4.765  17.344 -3.7739  2.7237  3.8837
18349TIP3   OH276461   1.453   5.674   4.500 -0.5534 -0.1836  0.1121
18349TIP3    H176462   1.408   5.592   4.518  1.2163 -1.4379 -0.9236
18349TIP3    H276463   1.409   5.710   4.423 -2.3270  0.6736  1.4600
18350TIP3   OH276464   0.285   5.555  13.154 -0.4542  0.2030  0.2008
18350TIP3    H176465   0.267   5.466  13.185  0.0937 -0.1481 -0.4801
18350TIP3    H276466   0.297   5.546  13.060  2.2162  0.5586  0.4280
18351TIP3   OH276467   3.830   4.869  17.412 -0.4614  0.1234  0.1790
18351TIP3    H176468   3.813   4.848  17.503 -0.6130 -4.0719 -0.6167
18351TIP3    H276469   3.744   4.894  17.376 -0.4663  1.4110  1.0148
18352TIP3   OH276470   5.916   1.846  12.989  0.0031  0.5584  0.1104
18352TIP3    H176471   5.886   1.757  12.967 -0.5223  0.7050  0.2311
18352TIP3    H276472   5.983   1.833  13.055  0.5949  0.1921 -0.5474
18353TIP3   OH276473   4.262   2.609  12.541  0.0388 -0.1034 -0.2115
18353TIP3    H176474   4.226   2.694  12.566  0.5585 -0.5016  2.1584
18353TIP3    H276475   4.325   2.588  12.610 -2.2537 -3.7682  1.1076
18354TIP3   OH276476   3.090   2.783  14.710 -0.1558  0.5438 -0.0707
18354TIP3    H176477   3.160   2.848  14.714 -0.7115  1.2621 -1.3418
18354TIP3    H276478   3.112   2.728  14.634 -0.6974  0.4649 -0.1787
18355TIP3   OH276479   5.826   0.431  16.484 -0.1199  0.7359 -0.1171
18355TIP3    H176480   5.782   0.511  16.511 -0.8711  0.4972 -0.6072
18355TIP3    H276481   5.780   0.361  16.531 -0.0095  0.5143 -0.3351
18356TIP3   OH276482   3.707   0.216  14.271 -0.0998 -0.3089  0.5962
18356TIP3    H176483   3.691   0.253  14.358 -1.6892  1.6955 -0.4605
18356TIP3    H276484   3.696   0.290  14.211  0.0579 -1.8154 -1.3987
18357TIP3   OH276485   6.025   2.679   1.516  0.2893  0.2666 -0.1218
18357TIP3    H176486   5.944   2.707   1.474  1.1901  0.4697 -1.8445
18357TIP3    H276487   6.027   2.584   1.504  0.2841  0.2552 -0.0336
18358TIP3   OH276488   6.157   0.452   0.246  0.7116 -0.0205  0.2061
18358TIP3    H176489   6.171   0.542   0.274 -1.6338  0.9177 -1.2820
18358TIP3    H276490   6.192   0.448   0.157  1.5682 -0.8511  0.5655
18359TIP3   OH276491   5.993   1.137  16.040  0.1064 -0.5296  0.1238
18359TIP3    H176492   6.061   1.162  16.102 -0.2508  0.7734  0.0224
18359TIP3    H276493   5.923   1.201  16.055  0.0334 -0.1553 -1.6519
18360TIP3   OH276494   1.694   6.355   0.071  0.3815  0.1161  0.3491
18360TIP3    H176495   1.684   6.367   0.165  0.3345 -1.5827  0.6055
18360TIP3    H276496   1.607   6.371   0.034  0.2031 -0.0302  0.7042
18361TIP3   OH276497   0.171   0.914   2.485 -0.1220  0.1942  0.6985
18361TIP3    H176498   0.264   0.935   2.486  0.0300 -0.4625  0.3980
18361TIP3    H276499   0.127   0.999   2.493  0.4949  0.5664  0.1519
18362TIP3   OH276500   0.901   2.159   4.452  0.5139  0.2482  0.1926
18362TIP3    H176501   0.980   2.110   4.478  0.1246 -0.5721 -0.1177
18362TIP3    H276502   0.862   2.105   4.383 -0.7098  0.2793  0.8440
18363TIP3   OH276503   4.255   2.403   6.249  0.3257 -0.2128  0.0277
18363TIP3    H176504   4.179   2.454   6.224 -1.0260 -0.9655  2.2841
18363TIP3    H276505   4.257   2.330   6.187 -0.1775  0.3505 -0.6596
18364TIP3   OH276506   3.757   1.277  16.738 -0.0400 -0.2593  0.2164
18364TIP3    H176507   3.722   1.350  16.790 -2.0850 -0.1839 -1.1540
18364TIP3    H276508   3.817   1.319  16.676 -2.8672  0.7564 -2.0844
18365TIP3   OH276509   5.822   4.560   1.862  0.2813  0.3912 -0.4735
18365TIP3    H176510   5.825   4.606   1.946 -2.5023  3.3717 -1.8126
18365TIP3    H276511   5.742   4.507   1.866  0.8417 -0.5062 -0.8133
18366TIP3   OH276512   0.383   6.091   5.437 -0.5040  0.1440  0.1889
18366TIP3    H176513   0.309   6.144   5.468 -1.5893 -0.9650 -0.4398
18366TIP3    H276514   0.460   6.135   5.474 -1.3560  2.0854 -0.2071
18367TIP3   OH276515   5.915   1.441  12.570  0.5681 -0.6318  0.5967
18367TIP3    H176516   5.852   1.511  12.584  1.5619  0.2518  0.7474
18367TIP3    H276517   5.917   1.429  12.475  1.9326  1.0325  0.3726
18368TIP3   OH276518   1.947   3.130   2.923  0.1682  0.7299  0.3119
18368TIP3    H176519   1.982   3.086   2.845  1.1833  0.4055  0.9269
18368TIP3    H276520   1.941   3.222   2.898  1.2517  0.7599  0.0910
18369TIP3   OH276521   3.499   0.346   5.874 -0.0093 -0.6928 -0.4420
18369TIP3    H176522   3.479   0.258   5.905 -3.1029 -0.1170 -0.4513
18369TIP3    H276523   3.502   0.399   5.954 -0.2458 -0.4944 -0.5602
18370TIP3   OH276524   5.083   0.142  15.663 -0.5122 -0.3128  0.1795
18370TIP3    H176525   5.052   0.206  15.728  0.7872  0.0690  0.4470
18370TIP3    H276526   5.174   0.125  15.687 -0.2430 -0.7609 -1.0873
18371TIP3   OH276527   4.470   0.632  14.768 -0.1524 -0.5188 -0.0572
18371TIP3    H176528   4.412   0.708  14.766  0.4257 -0.0313  0.8694
18371TIP3    H276529   4.412   0.556  14.766 -0.7540 -0.0448 -0.5112
18372TIP3   OH276530   1.860   4.693   2.692  0.5288  0.3822 -0.5804
18372TIP3    H176531   1.868   4.618   2.634 -3.3860  0.3854 -1.3860
18372TIP3    H276532   1.947   4.701   2.733  3.0242 -0.6358 -5.0480
18373TIP3   OH276533   0.530   1.111  11.184  0.1953  0.0422  0.1088
18373TIP3    H176534   0.583   1.123  11.106  0.4776  1.6689  0.5002
18373TIP3    H276535   0.447   1.154  11.164 -1.1290 -2.6466 -0.5693
18374TIP3   OH276536   3.160   5.523  17.478 -0.1529  0.1720 -0.3534
18374TIP3    H176537   3.119   5.557  17.557 -0.8154  1.2108 -1.1280
18374TIP3    H276538   3.102   5.549  17.407  0.8836  0.0263 -1.2852
18375TIP3   OH276539   5.208   4.052  11.865 -0.0674  0.5302  0.4614
18375TIP3    H176540   5.240   4.111  11.797  0.4251  0.6916  0.8237
18375TIP3    H276541   5.285   4.001  11.890 -0.3999  0.0030  0.4271
18376TIP3   OH276542   0.977   1.489  14.499  1.0688 -0.1630  0.0732
18376TIP3    H176543   1.033   1.561  14.527 -0.1969  0.9785 -0.2272
18376TIP3    H276544   0.928   1.465  14.578 -1.7839  2.4011 -0.7032
18377TIP3   OH276545   2.175   3.702   4.666  0.5220 -0.2811 -0.4765
18377TIP3    H176546   2.207   3.615   4.687 -1.5784 -1.0711 -0.3519
18377TIP3    H276547   2.147   3.696   4.574  2.8965  1.0944 -1.3815
18378TIP3   OH276548   3.748   1.133  12.547 -0.1042 -0.1574 -0.2695
18378TIP3    H176549   3.701   1.068  12.600  0.6237  0.6988  1.5233
18378TIP3    H276550   3.693   1.211  12.551  1.4960  1.0106  2.2450
18379TIP3   OH276551   5.087   6.700   2.140  0.2245 -0.1609 -0.2165
18379TIP3    H176552   5.112   6.785   2.103 -0.2555  0.1972  0.2768
18379TIP3    H276553   5.143   6.637   2.093  0.5938  0.4196 -0.5776
18380TIP3   OH276554   5.782   3.858   4.109 -0.4311  0.2631  0.5114
18380TIP3    H176555   5.855   3.809   4.072 -0.0704 -0.2114  1.8175
18380TIP3    H276556   5.815   3.948   4.115 -0.4774  0.3370 -0.2493
18381TIP3   OH276557   5.942   3.945   4.723 -0.0220 -0.1058 -0.5020
18381TIP3    H176558   5.852   3.926   4.696  0.0170  0.4702 -1.0545
18381TIP3    H276559   5.951   3.901   4.808 -1.2590  0.9543  0.2243
18382TIP3   OH276560   6.585   5.826   5.717 -0.4075  0.7174  0.6869
18382TIP3    H176561   6.512   5.822   5.778  0.0945  0.9369  1.3149
18382TIP3    H276562   6.616   5.916   5.723 -0.2275  0.6868  0.2556
18383TIP3   OH276563   4.333   3.712   3.924 -0.3297  0.2594  0.0736
18383TIP3    H176564   4.371   3.644   3.979 -1.4747  0.1850  0.8096
18383TIP3    H276565   4.321   3.670   3.838  0.1632 -0.0582  0.1604
18384TIP3   OH276566   3.107   2.646   3.192 -0.3646 -0.0889 -0.3397
18384TIP3    H176567   3.166   2.710   3.232  0.5990 -1.6558  0.8709
18384TIP3    H276568   3.132   2.645   3.100 -0.6507  1.5010 -0.4711
18385TIP3   OH276569   6.633   2.376   5.150 -0.4722 -0.1177 -0.4067
18385TIP3    H176570   6.595   2.361   5.064 -0.9336  0.3910 -0.2937
18385TIP3    H276571   6.562   2.413   5.202  0.1225  0.6980 -0.1488
18386TIP3   OH276572   3.693   3.764   4.642 -0.4621  0.0105 -0.0670
18386TIP3    H176573   3.777   3.788   4.681  0.5160 -0.7132 -1.6634
18386TIP3    H276574   3.670   3.681   4.684  0.9426 -1.1401 -1.4818
18387TIP3   OH276575   5.267   0.419   1.441  0.2398  0.2742  0.4369
18387TIP3    H176576   5.226   0.446   1.359  0.7801 -0.0959  0.0323
18387TIP3    H276577   5.209   0.350   1.474 -1.4586  2.2196  1.7703
18388TIP3   OH276578   3.563   4.150   2.481  0.3956  0.2286 -0.1378
18388TIP3    H176579   3.550   4.237   2.443 -2.4887  0.8380  1.8980
18388TIP3    H276580   3.615   4.166   2.560 -0.1763  0.1538  0.2641
18389TIP3   OH276581   4.059   1.289   1.609 -0.2341  0.1624 -0.3213
18389TIP3    H176582   4.003   1.234   1.554  0.3394 -0.3381 -0.4130
18389TIP3    H276583   4.070   1.238   1.689  0.3623  0.1150 -0.4347
18390TIP3   OH276584   2.177   2.448  16.590  0.3875 -0.7514 -0.5326
18390TIP3    H176585   2.130   2.387  16.647 -2.7370  0.1398 -1.9499
18390TIP3    H276586   2.177   2.405  16.505  1.1588 -0.2086 -0.8114
18391TIP3   OH276587   6.329   1.540  12.452 -0.2367  0.0500 -0.3553
18391TIP3    H176588   6.407   1.499  12.413 -0.1107 -0.0411 -0.0185
18391TIP3    H276589   6.362   1.621  12.491 -0.3963  0.2354 -0.6032
18392TIP3   OH276590   5.245   3.955   6.194  0.3040  0.1507  0.0064
18392TIP3    H176591   5.301   4.031   6.183  1.4803 -0.5566  0.8038
18392TIP3    H276592   5.295   3.897   6.252 -1.8274  0.0664  1.8791
18393TIP3   OH276593   0.844   5.460   0.291  0.2676 -0.1445  0.0061
18393TIP3    H176594   0.751   5.438   0.286  0.0110  0.4112  1.6547
18393TIP3    H276595   0.888   5.390   0.243 -0.9005 -1.3342  0.5944
18394TIP3   OH276596   0.116   5.233  13.223  0.0008  0.1154  0.0478
18394TIP3    H176597   0.208   5.240  13.249  0.3977 -1.7942 -0.6555
18394TIP3    H276598   0.071   5.299  13.275  1.6162  0.4109  1.1443
18395TIP3   OH276599   0.943   2.747  12.475 -0.0867  0.1505 -0.0448
18395TIP3    H176600   0.930   2.658  12.443 -0.3740 -0.6846  2.2059
18395TIP3    H276601   0.867   2.765  12.530 -0.4119  2.0988 -1.0235
18396TIP3   OH276602   5.086   0.910  14.157 -0.3527 -0.1601 -0.8504
18396TIP3    H176603   5.030   0.864  14.093 -0.9332  0.7270 -0.9914
18396TIP3    H276604   5.144   0.964  14.105 -2.3989  2.4229 -0.6720
18397TIP3   OH276605   0.940   0.251  16.639 -0.6296  0.3562 -0.8255
18397TIP3    H176606   0.931   0.156  16.647 -0.8471  0.3234 -1.3783
18397TIP3    H276607   0.852   0.282  16.619 -1.4100  1.1403  3.0157
18398TIP3   OH276608   6.122   2.256  11.622  0.3003 -0.0616 -0.0362
18398TIP3    H176609   6.113   2.293  11.533  1.2657 -1.6660 -0.8370
18398TIP3    H276610   6.060   2.183  11.623 -2.2513  1.9169  1.8344
18399TIP3   OH276611   2.643   4.325   1.448 -0.2508  0.0005 -0.3519
18399TIP3    H176612   2.661   4.365   1.534  0.4492 -0.1833 -0.4039
18399TIP3    H276613   2.548   4.324   1.441 -0.3103  2.5131 -0.7423
18400TIP3   OH276614   2.675   0.154  16.169 -0.4776  0.5717  0.3770
18400TIP3    H176615   2.599   0.137  16.224 -0.7462 -0.7455 -0.3595
18400TIP3    H276616   2.649   0.123  16.082  0.0046  2.4130 -0.4718
18401TIP3   OH276617   1.987   1.292  12.384 -0.0924  0.4408 -0.0032
18401TIP3    H176618   2.065   1.305  12.330 -0.1043  0.7623  0.0547
18401TIP3    H276619   2.020   1.275  12.472 -0.0744 -0.0288 -0.0970
18402TIP3   OH276620   0.675   1.266  13.982 -0.1572  0.0226 -0.0647
18402TIP3    H176621   0.704   1.221  13.903 -1.8029 -0.3935 -0.4703
18402TIP3    H276622   0.652   1.195  14.043  0.9765  0.3381  0.7697
18403TIP3   OH276623   6.600   0.908  13.055 -0.7765  0.5424 -0.8207
18403TIP3    H176624   6.660   0.854  13.106 -0.9968  0.5082 -0.5957
18403TIP3    H276625   6.589   0.988  13.107 -0.0249  1.0452 -1.4031
18404TIP3   OH276626   2.548   3.224  14.330 -0.4079 -0.0514 -0.5347
18404TIP3    H176627   2.466   3.274  14.330  0.2827  1.1577  0.7247
18404TIP3    H276628   2.560   3.197  14.421 -0.0752 -1.3939 -0.9536
18405TIP3   OH276629   1.694   4.767   6.357 -0.5397 -0.3288 -0.5686
18405TIP3    H176630   1.671   4.699   6.294 -0.2306 -0.3338 -0.6816
18405TIP3    H276631   1.611   4.806   6.383 -0.7222 -0.7471 -0.5069
18406TIP3   OH276632   6.402   4.872  16.760 -0.5269  0.7000  0.1261
18406TIP3    H176633   6.454   4.865  16.839 -0.6462 -0.2226  0.1261
18406TIP3    H276634   6.465   4.895  16.691  0.3100 -2.3922 -0.2916
18407TIP3   OH276635   2.793   5.391   4.001  0.0140 -0.7637 -0.1877
18407TIP3    H176636   2.871   5.405   4.054  0.5184 -1.3274 -0.7808
18407TIP3    H276637   2.791   5.467   3.942  0.2107 -0.8447 -0.2980
18408TIP3   OH276638   4.463   2.827   3.308  0.2945  0.1901  0.0443
18408TIP3    H176639   4.387   2.806   3.253  0.7416 -3.3680  0.5103
18408TIP3    H276640   4.538   2.820   3.249  0.5633 -0.8636  0.4946
18409TIP3   OH276641   2.886   2.455  16.893  0.1176  0.0146 -0.0988
18409TIP3    H176642   2.973   2.425  16.919 -0.1581 -0.4797  0.2513
18409TIP3    H276643   2.827   2.424  16.961 -0.3615  0.2294 -0.4025
18410TIP3   OH276644   4.554   1.445  14.455 -0.0075 -0.6798 -0.3842
18410TIP3    H176645   4.545   1.355  14.488 -0.4597 -0.8944 -1.0763
18410TIP3    H276646   4.480   1.456  14.395 -1.7457  1.1862  1.9232
18411TIP3   OH276647   6.088   2.770  12.546  0.2210  0.0454  0.4631
18411TIP3    H176648   6.059   2.811  12.627 -1.3509 -1.4022  0.6808
18411TIP3    H276649   6.052   2.825  12.476 -1.4553 -0.6394  0.7504
18412TIP3   OH276650   2.809   0.718  11.185 -0.1445  0.4379  0.1329
18412TIP3    H176651   2.875   0.650  11.194  0.3409  0.7926 -0.6112
18412TIP3    H276652   2.754   0.689  11.112 -0.9727  0.0246  0.9044
18413TIP3   OH276653   6.432   3.982   3.546 -0.4407 -0.0814  0.3343
18413TIP3    H176654   6.524   4.004   3.559 -0.4778  0.3809 -0.1817
18413TIP3    H276655   6.430   3.886   3.543  0.2613 -0.0611 -1.4169
18414TIP3   OH276656   1.186   1.475  16.863  1.0634  0.1715 -0.5929
18414TIP3    H176657   1.207   1.490  16.771 -0.6595 -1.0970 -1.2569
18414TIP3    H276658   1.134   1.551  16.889  1.6416  0.5832 -0.6193
18415TIP3   OH276659   1.987   6.491   3.635 -0.4140 -0.1551  0.3374
18415TIP3    H176660   2.070   6.463   3.674 -0.6417 -0.3969  0.6448
18415TIP3    H276661   1.939   6.410   3.619  0.7609 -0.3384 -2.9707
18416TIP3   OH276662   1.480   4.455  14.924  0.8759 -0.0588 -0.2579
18416TIP3    H176663   1.520   4.495  14.847  0.3159 -0.7897 -0.9462
18416TIP3    H276664   1.476   4.526  14.988  2.0827  0.3526 -0.6071
18417TIP3   OH276665   6.144   4.672  15.967  0.3395  0.1435 -0.1121
18417TIP3    H176666   6.087   4.629  15.903 -1.2142  0.8844  0.7165
18417TIP3    H276667   6.141   4.764  15.944  0.7751  0.2592  0.2785
18418TIP3   OH276668   0.779   2.701   5.177 -0.0662 -0.1102 -0.2980
18418TIP3    H176669   0.774   2.794   5.154 -3.5172 -0.2102 -0.5598
18418TIP3    H276670   0.787   2.701   5.272  0.8047  0.4166 -0.3578
18419TIP3   OH276671   2.579   2.150  13.253  0.3958 -0.8013  0.2669
18419TIP3    H176672   2.668   2.177  13.274  0.0356  0.3378  0.4107
18419TIP3    H276673   2.533   2.151  13.336  0.1607 -1.0340  0.1406
18420TIP3   OH276674   3.262   4.781  16.154  0.3973  0.0132 -0.0464
18420TIP3    H176675   3.244   4.874  16.170 -0.4676 -0.0688 -0.4518
18420TIP3    H276676   3.222   4.764  16.069  3.0591 -0.0585 -1.3894
18421TIP3   OH276677   5.728   2.275   1.229  0.1090  0.0444  0.1237
18421TIP3    H176678   5.675   2.310   1.157  0.0205 -2.1567 -0.9598
18421TIP3    H276679   5.666   2.224   1.282  0.6858 -0.5732  0.2165
18422TIP3   OH276680   3.333   2.037   3.005 -1.0856  0.6275 -0.2263
18422TIP3    H176681   3.336   2.113   2.946 -2.0453  0.5835 -0.3444
18422TIP3    H276682   3.269   1.978   2.964 -1.7275  0.5698  0.8312
18423TIP3   OH276683   3.762   5.938   1.651 -0.2639  0.2589 -0.8709
18423TIP3    H176684   3.849   5.945   1.613  0.9343 -1.2109  1.3564
18423TIP3    H276685   3.769   5.980   1.737 -1.2342 -1.3063  0.0294
18424TIP3   OH276686   2.930   1.192   3.318 -0.7157 -0.3781 -0.1792
18424TIP3    H176687   2.950   1.190   3.224  1.0369  1.3894  0.0670
18424TIP3    H276688   2.904   1.283   3.334 -0.1839 -0.4489  1.1726
18425TIP3   OH276689   6.441   1.110  10.935 -0.1212  0.5372  0.4111
18425TIP3    H176690   6.451   1.192  10.886 -4.0939  0.0676 -1.5508
18425TIP3    H276691   6.485   1.045  10.880 -2.6497  0.3852 -1.5948
18426TIP3   OH276692   3.823   4.496   0.649 -0.1032  0.0315 -0.1709
18426TIP3    H176693   3.857   4.574   0.605  1.7834 -0.0669  1.0236
18426TIP3    H276694   3.830   4.427   0.583  0.2203  0.4233 -0.5533
18427TIP3   OH276695   5.702   3.765   0.073 -0.0292 -0.0186  0.8559
18427TIP3    H176696   5.623   3.714   0.056 -0.5067  0.5098  1.4064
18427TIP3    H276697   5.674   3.832   0.137 -0.0493  2.4098 -1.5185
18428TIP3   OH276698   0.177   4.371   4.985  0.1748  0.0065 -0.1016
18428TIP3    H176699   0.172   4.276   4.982  1.6013 -0.1075  0.1131
18428TIP3    H276700   0.265   4.389   5.018  0.4591  1.4074 -1.4927
18429TIP3   OH276701   2.400   1.887  11.514 -0.4960  0.3483 -0.2005
18429TIP3    H176702   2.343   1.926  11.580 -0.6788 -0.4202  0.1087
18429TIP3    H276703   2.456   1.959  11.484 -1.0641  0.9167  0.0977
18430TIP3   OH276704   0.008   4.422  14.622  0.1237  0.0243  0.5063
18430TIP3    H176705  -0.035   4.473  14.553 -1.7081 -1.5069  0.4341
18430TIP3    H276706   0.060   4.486  14.670 -0.4464  1.5630 -0.8297
18431TIP3   OH276707   1.529   5.621  12.780  0.0303  0.0993  0.1113
18431TIP3    H176708   1.584   5.636  12.703 -0.9112 -0.0558 -0.5991
18431TIP3    H276709   1.440   5.639  12.750 -0.2997  0.5523  1.3045
18432TIP3   OH276710   0.935   3.325   4.846 -0.2579 -0.1033 -0.0231
18432TIP3    H176711   0.883   3.404   4.859  0.3432  0.5420 -1.4001
18432TIP3    H276712   0.871   3.256   4.829 -0.7236  0.3291 -0.0446
18433TIP3   OH276713   5.122   4.455   0.268 -0.5590 -0.2027  0.1989
18433TIP3    H176714   5.179   4.528   0.294 -0.1804 -0.5222  0.2762
18433TIP3    H276715   5.170   4.412   0.197 -1.1074  0.0443 -0.3302
18434TIP3   OH276716   4.027   2.284   0.960 -0.4392  0.2526 -0.0396
18434TIP3    H176717   4.019   2.366   1.008 -0.1396  0.3471 -0.1490
18434TIP3    H276718   4.018   2.216   1.026 -1.0131  0.3675  0.0045
18435TIP3   OH276719   3.991   5.527  11.944  0.0314  0.2904 -0.4007
18435TIP3    H176720   3.899   5.513  11.968  0.1782  1.5041  1.0662
18435TIP3    H276721   3.990   5.609  11.895  0.2803  0.0934 -0.7348
18436TIP3   OH276722   5.127   5.188   3.725  0.8432  0.2554  0.4094
18436TIP3    H176723   5.092   5.256   3.667  0.2254 -1.6496 -1.5413
18436TIP3    H276724   5.064   5.117   3.720  2.2561 -1.1011  1.1700
18437TIP3   OH276725   5.264   1.938  14.490 -0.1160 -0.6999  0.0154
18437TIP3    H176726   5.184   1.896  14.522 -1.6334  2.5265  0.8112
18437TIP3    H276727   5.242   1.964  14.400  0.4801 -0.8177 -0.1659
18438TIP3   OH276728   4.090   2.183  16.415 -0.1735  0.1317  0.0230
18438TIP3    H176729   4.130   2.256  16.462 -1.3781  1.2660 -0.6637
18438TIP3    H276730   4.002   2.176  16.452 -1.4342  1.5246 -2.4715
18439TIP3   OH276731   3.896   0.793   1.638  0.0797 -0.4312  0.5493
18439TIP3    H176732   3.955   0.787   1.563  0.8639 -0.6201  1.1805
18439TIP3    H276733   3.840   0.716   1.630  0.2699 -0.5397  0.2494
18440TIP3   OH276734   5.836   3.913  15.225  0.1495  0.3868 -0.2532
18440TIP3    H176735   5.860   3.978  15.160  0.2362  0.6381  0.0273
18440TIP3    H276736   5.742   3.901  15.212 -0.0900  1.3961  0.4223
18441TIP3   OH276737   4.394   2.928  11.616 -0.5594  0.0413 -0.2193
18441TIP3    H176738   4.355   3.015  11.602 -0.5612  0.1820  0.6585
18441TIP3    H276739   4.389   2.914  11.710 -0.3168 -0.8055 -0.3273
18442TIP3   OH276740   6.233   5.491  16.175 -0.0903  0.0476 -0.5965
18442TIP3    H176741   6.239   5.551  16.100  0.0912 -0.3920 -0.9367
18442TIP3    H276742   6.315   5.441  16.172  0.3502  0.6760  0.4622
18443TIP3   OH276743   1.853   4.475  13.260 -0.1915  0.4988 -0.5447
18443TIP3    H176744   1.817   4.442  13.342  0.0530  1.3415 -0.0785
18443TIP3    H276745   1.943   4.500  13.281  0.5931 -1.2537 -1.6028
18444TIP3   OH276746   2.681   0.114  11.107 -0.1890  0.1322  0.6296
18444TIP3    H176747   2.755   0.143  11.054 -1.5136  1.2080 -0.7250
18444TIP3    H276748   2.611   0.098  11.044 -1.2024 -0.6051  1.8925
18445TIP3   OH276749   1.604   1.861   3.332  0.1853  0.3533 -0.2384
18445TIP3    H176750   1.635   1.817   3.411  2.0484  1.4779 -0.2780
18445TIP3    H276751   1.683   1.899   3.293 -1.1321  2.8113 -0.7586
18446TIP3   OH276752   0.217   4.832   5.734  0.0033 -0.2682  0.3958
18446TIP3    H176753   0.177   4.799   5.654  1.7629 -0.0592 -0.6292
18446TIP3    H276754   0.197   4.765   5.800  0.0720 -1.3710 -0.6638
18447TIP3   OH276755   6.077   3.825   6.258  0.0705 -0.4763 -0.0408
18447TIP3    H176756   6.140   3.829   6.330  0.4062  0.3576 -0.3693
18447TIP3    H276757   6.056   3.732   6.250  0.6376 -0.6690  0.6065
18448TIP3   OH276758   3.677   1.270   1.028  0.1048  0.1310 -0.3001
18448TIP3    H176759   3.706   1.192   1.075  0.6623  1.2090  1.2450
18448TIP3    H276760   3.714   1.260   0.940  1.6761 -0.5152  0.4001
18449TIP3   OH276761   3.646   5.446  16.636 -0.1375 -0.3142 -0.0779
18449TIP3    H176762   3.736   5.423  16.613  0.6741  1.2390  1.3220
18449TIP3    H276763   3.644   5.443  16.732 -2.0285 -1.7959 -0.0972
18450TIP3   OH276764   3.458   4.449   1.397  0.1944 -0.0796 -0.0426
18450TIP3    H176765   3.507   4.369   1.418 -0.2128 -0.4357 -0.4179
18450TIP3    H276766   3.504   4.518   1.443  0.4937 -0.5496  0.3809
18451TIP3   OH276767   1.228   1.884   6.413  0.0064  0.4401  0.0944
18451TIP3    H176768   1.144   1.909   6.451  0.0686 -0.7583  1.1281
18451TIP3    H276769   1.258   1.812   6.469  0.6447 -0.6806 -1.6013
18452TIP3   OH276770   5.677   6.441  17.473  0.0509  0.2945 -0.1085
18452TIP3    H176771   5.759   6.420  17.518  0.4629  1.0511 -0.4748
18452TIP3    H276772   5.608   6.408  17.530  0.6084 -0.1074  0.3382
18453TIP3   OH276773   0.506   2.727  16.311  0.4457  0.2294  0.1781
18453TIP3    H176774   0.496   2.700  16.220 -0.3801 -1.2622  0.6623
18453TIP3    H276775   0.579   2.674  16.343  0.2083  0.1422  0.5829
18454TIP3   OH276776   3.612   4.659  16.484 -0.2344 -0.2354 -0.6833
18454TIP3    H176777   3.560   4.614  16.551  0.2477  0.3525  0.1098
18454TIP3    H276778   3.547   4.702  16.428 -0.6887  2.2030  1.4752
18455TIP3   OH276779   2.218   6.528  13.507 -0.7430 -0.5676 -0.2537
18455TIP3    H176780   2.158   6.519  13.433 -0.5297 -1.8482 -0.2827
18455TIP3    H276781   2.162   6.555  13.580 -1.5385 -2.6329 -0.0586
18456TIP3   OH276782   2.114   5.746  17.192 -0.1500  0.1653 -0.0551
18456TIP3    H176783   2.128   5.743  17.097  1.7885  1.2978  0.1669
18456TIP3    H276784   2.162   5.822  17.222  1.5287 -1.6385  2.2074
18457TIP3   OH276785   4.556   5.004  14.850  0.1399  0.2833 -0.4685
18457TIP3    H176786   4.496   4.940  14.812 -0.7165  0.2495  0.9036
18457TIP3    H276787   4.632   5.002  14.792 -0.4098 -1.0191 -1.1896
18458TIP3   OH276788   5.237   0.705   5.140 -0.0407 -0.4124 -0.3073
18458TIP3    H176789   5.271   0.787   5.177  0.9174 -0.3273 -1.3366
18458TIP3    H276790   5.289   0.636   5.181  0.2441 -0.3987 -0.6493
18459TIP3   OH276791   1.966   0.932  10.985 -0.1128 -0.0801  0.3195
18459TIP3    H176792   1.948   1.013  11.033 -0.2220  0.7934 -1.1603
18459TIP3    H276793   2.051   0.904  11.017  0.5186  1.3242 -0.0592
18460TIP3   OH276794   0.328   2.541   6.103 -0.5455 -0.0218 -0.5033
18460TIP3    H176795   0.377   2.622   6.116  0.1501 -0.7565  2.0037
18460TIP3    H276796   0.379   2.491   6.039  0.5330  0.3746  0.0303
18461TIP3   OH276797   6.103   6.167   1.600 -0.1202  0.4111 -0.0591
18461TIP3    H176798   6.134   6.199   1.515 -0.8573 -0.1083 -0.5301
18461TIP3    H276799   6.177   6.182   1.659  0.2882  1.0724 -0.7171
18462TIP3   OH276800   6.378   2.642  15.373  0.3570  0.7634  0.3938
18462TIP3    H176801   6.299   2.681  15.411  0.0386  0.6625 -0.1616
18462TIP3    H276802   6.446   2.708  15.387  0.3670  0.5077  1.6175
18463TIP3   OH276803   0.731   5.925  16.893  0.1367 -0.1998  0.5678
18463TIP3    H176804   0.653   5.927  16.948  0.5193 -0.3066  1.1189
18463TIP3    H276805   0.783   6.000  16.923  0.0459  0.1400 -0.1008
18464TIP3   OH276806   1.347   0.601   1.700 -0.0260  0.0759  0.4070
18464TIP3    H176807   1.268   0.635   1.658 -0.3884 -3.2383 -1.9752
18464TIP3    H276808   1.411   0.595   1.630  1.1405 -0.7171  1.5015
18465TIP3   OH276809   1.961   0.438  15.738 -0.1385  0.7049  0.3371
18465TIP3    H176810   1.931   0.513  15.790 -0.8755 -0.0950  1.0782
18465TIP3    H276811   1.891   0.423  15.675  0.5440  1.3745 -0.6098
18466TIP3   OH276812   2.230   6.180   3.304  0.2579 -0.6486 -0.1633
18466TIP3    H176813   2.252   6.096   3.345  1.1111  0.6059  2.1581
18466TIP3    H276814   2.297   6.240   3.336 -0.7940  1.0933 -1.0980
18467TIP3   OH276815   2.304   3.554  15.291 -0.2022 -0.1762 -0.1043
18467TIP3    H176816   2.241   3.626  15.294  0.0541  0.0814 -0.6681
18467TIP3    H276817   2.364   3.572  15.363  0.8606  1.1333 -1.2461
18468TIP3   OH276818   4.064   1.904  16.536  0.1849 -0.2837 -0.1644
18468TIP3    H176819   4.008   1.928  16.609 -0.7014 -0.6703 -0.6909
18468TIP3    H276820   4.098   1.817  16.559 -0.4363 -0.5941 -0.3910
18469TIP3   OH276821   1.462   6.682  17.067 -0.3897  0.1340 -0.2460
18469TIP3    H176822   1.554   6.676  17.041  0.2457 -0.3738  1.8798
18469TIP3    H276823   1.413   6.657  16.989  1.2539  0.4528 -1.4404
18470TIP3   OH276824   5.459   4.584  12.782 -0.4083 -0.1031 -0.4052
18470TIP3    H176825   5.397   4.524  12.741  0.0860  0.2965 -1.7741
18470TIP3    H276826   5.412   4.667  12.789 -1.8467 -1.0370  3.3960
18471TIP3   OH276827   4.636   6.307  13.197  0.3370 -0.4834 -0.0684
18471TIP3    H176828   4.580   6.370  13.241 -0.4035 -0.9019 -0.3966
18471TIP3    H276829   4.589   6.224  13.203  1.9585 -1.3242  1.5975
18472TIP3   OH276830   1.516   6.585  15.500  0.4672  0.8093 -0.4069
18472TIP3    H176831   1.496   6.627  15.417  1.7567 -0.4199 -1.4007
18472TIP3    H276832   1.590   6.635  15.535  0.3773  0.8950 -0.3375
18473TIP3   OH276833   4.480   1.684   0.766  0.2662 -0.4286  0.4109
18473TIP3    H176834   4.425   1.635   0.827  0.1506 -2.1545 -1.0196
18473TIP3    H276835   4.534   1.739   0.823 -2.4041  0.8739  1.9125
18474TIP3   OH276836   4.475   0.344  14.037 -0.3476  0.0044 -0.1000
18474TIP3    H176837   4.434   0.335  13.951 -1.2891  1.2503  0.2007
18474TIP3    H276838   4.406   0.378  14.094  0.3095 -0.6386  1.1211
18475TIP3   OH276839   1.629   6.520   4.449  0.3722 -0.0376 -0.0421
18475TIP3    H176840   1.723   6.536   4.441  0.5507 -1.2367 -0.5286
18475TIP3    H276841   1.596   6.529   4.359  0.5469 -2.5945 -0.4298
18476TIP3   OH276842   6.415   5.149  14.846  0.3657 -0.2999  0.1464
18476TIP3    H176843   6.444   5.215  14.908 -1.2283  0.0850  0.5179
18476TIP3    H276844   6.372   5.198  14.776  0.1684 -0.8630 -0.1397
18477TIP3   OH276845   0.155   2.219  13.739 -0.4163  0.0357 -0.1530
18477TIP3    H176846   0.189   2.288  13.682 -0.0535  0.3994  0.4872
18477TIP3    H276847   0.060   2.222  13.726 -0.4110  0.7195 -0.0626
18478TIP3   OH276848   4.794   0.461   0.777  0.2410  0.6983  0.4073
18478TIP3    H176849   4.707   0.489   0.804 -1.1640 -2.1212 -0.8339
18478TIP3    H276850   4.788   0.453   0.682  0.9827 -1.9738  0.5062
18479TIP3   OH276851   0.078   5.257  15.532 -0.1057  0.1188 -0.5014
18479TIP3    H176852   0.030   5.189  15.485  0.1781  0.1827 -0.8943
18479TIP3    H276853   0.150   5.280  15.473  0.6236 -0.2348  0.2314
18480TIP3   OH276854   1.399   4.572   0.159  0.1308  0.3205  0.1115
18480TIP3    H176855   1.415   4.484   0.193  1.5988  0.2250 -0.7834
18480TIP3    H276856   1.383   4.559   0.066  0.9195  1.0435 -0.1354
18481TIP3   OH276857   4.222   0.227   0.646 -0.2275  0.1123  0.0175
18481TIP3    H176858   4.165   0.195   0.716 -3.4188  1.1262 -1.8900
18481TIP3    H276859   4.190   0.184   0.567  1.1310  1.3909 -1.3048
18482TIP3   OH276860   3.503   3.696  14.001  0.4187  0.1166  0.2136
18482TIP3    H176861   3.522   3.618  14.053  0.0297 -0.9058 -1.1154
18482TIP3    H276862   3.517   3.669  13.911  1.1940  1.8789 -0.2406
18483TIP3   OH276863   0.669   5.291   1.711 -0.2814  0.3474  0.3437
18483TIP3    H176864   0.729   5.311   1.783 -0.6907  1.3612  0.4285
18483TIP3    H276865   0.617   5.371   1.702 -1.2830 -0.3457 -0.0517
18484TIP3   OH276866   5.265   1.261   3.204  0.3123  0.5600 -0.7639
18484TIP3    H176867   5.288   1.193   3.140  0.5963 -0.5587  0.4953
18484TIP3    H276868   5.169   1.265   3.200  0.1075 -1.3661  0.5203
18485TIP3   OH276869   6.348   2.379   5.108  0.3793 -0.3117 -0.4571
18485TIP3    H176870   6.363   2.469   5.078 -1.2590 -0.5578 -2.1491
18485TIP3    H276871   6.362   2.384   5.203  1.7696  1.3731 -0.6839
18486TIP3   OH276872   6.467   5.314   3.026 -0.1462 -0.0495  0.3814
18486TIP3    H176873   6.500   5.252   2.962 -0.4171  0.7525 -0.5634
18486TIP3    H276874   6.535   5.381   3.032  0.0275 -0.2936  1.1880
18487TIP3   OH276875   1.653   3.320  14.125 -0.3798  0.4441  0.0213
18487TIP3    H176876   1.665   3.376  14.048 -1.4229  0.3970 -0.1878
18487TIP3    H276877   1.662   3.379  14.200  1.2958  0.3731 -0.0924
18488TIP3   OH276878   5.981   1.842   1.743 -0.0739 -0.5362  0.4690
18488TIP3    H176879   5.982   1.815   1.652 -1.2816 -0.0505  0.2967
18488TIP3    H276880   6.041   1.917   1.747 -0.7801  0.0774 -0.1449
18489TIP3   OH276881   3.351   0.957   5.399 -0.9992 -0.1881 -0.2800
18489TIP3    H176882   3.433   0.993   5.366 -0.2061  0.0449  1.8147
18489TIP3    H276883   3.303   0.931   5.320  0.4113  1.0809 -1.6276
18490TIP3   OH276884   2.865   2.609  13.603  0.3705  0.2573  0.0637
18490TIP3    H176885   2.917   2.593  13.682 -0.2185 -0.4609  0.3181
18490TIP3    H276886   2.875   2.703  13.586  2.8721 -0.0875 -0.7145
18491TIP3   OH276887   1.483   0.948  16.844 -0.3623  0.4344  0.7363
18491TIP3    H176888   1.440   1.031  16.823 -0.1525  0.4785  0.4718
18491TIP3    H276889   1.497   0.951  16.939 -2.8238 -0.4788  1.1877
18492TIP3   OH276890   3.205   1.385   0.521  0.6855  0.5359 -0.0846
18492TIP3    H176891   3.252   1.412   0.442  1.6100 -0.2039  0.1863
18492TIP3    H276892   3.132   1.333   0.489  0.4286  1.1364 -0.4914
18493TIP3   OH276893   5.084   6.638   6.373 -0.5904  0.0408  0.3591
18493TIP3    H176894   5.059   6.548   6.389 -0.3744 -0.4969 -1.9473
18493TIP3    H276895   5.003   6.688   6.381 -0.9901 -0.5776  0.2221
18494TIP3   OH276896   3.006   5.263  13.887  0.0973 -0.5855  0.7505
18494TIP3    H176897   3.084   5.285  13.835 -0.2354  1.3758  1.0071
18494TIP3    H276898   2.980   5.177  13.855 -0.3192  0.6532 -2.6345
18495TIP3   OH276899   3.524   1.307   1.273 -0.6024 -0.2842 -0.0057
18495TIP3    H176900   3.593   1.321   1.208  0.1771  1.3095  1.0968
18495TIP3    H276901   3.467   1.241   1.234  0.6421 -0.4418 -1.6581
18496TIP3   OH276902   4.251   2.436   3.847 -0.2613  0.4024  0.2435
18496TIP3    H176903   4.296   2.359   3.814 -0.5216  0.1038  0.5815
18496TIP3    H276904   4.313   2.476   3.909  0.2750  1.0280 -0.6649
18497TIP3   OH276905   5.133   5.518  16.637 -0.4946 -0.1419 -0.1542
18497TIP3    H176906   5.153   5.456  16.567 -1.5928 -0.3219 -0.3327
18497TIP3    H276907   5.097   5.464  16.708 -4.1024  0.4178 -1.3079
18498TIP3   OH276908   1.273   5.764   3.185  0.0855  0.0147 -0.0869
18498TIP3    H176909   1.197   5.819   3.165 -0.6493 -0.8456  0.2577
18498TIP3    H276910   1.245   5.711   3.260  0.0911 -2.0981 -1.4854
18499TIP3   OH276911   3.859   5.482   0.884 -0.7309  0.0985 -0.2041
18499TIP3    H176912   3.786   5.496   0.823 -1.6605  0.2690  0.9103
18499TIP3    H276913   3.937   5.491   0.830 -1.4796  1.7071 -1.0886
18500TIP3   OH276914   1.461   3.640  15.986  0.7388  0.1658  0.3982
18500TIP3    H176915   1.548   3.606  15.964  0.9554  0.9276  0.0296
18500TIP3    H276916   1.431   3.585  16.058  2.3658  1.0883  1.8616
18501TIP3   OH276917   1.816   3.837  11.920  0.2320  0.4748  0.2513
18501TIP3    H176918   1.738   3.815  11.869  1.0658  0.8915 -1.2605
18501TIP3    H276919   1.794   3.921  11.962 -0.2067  0.4921 -0.0070
18502TIP3   OH276920   0.396   3.891   0.007  0.2808 -0.2337 -0.0496
18502TIP3    H176921   0.422   3.835   0.081 -0.4540  0.1968  0.5461
18502TIP3    H276922   0.329   3.841  -0.039 -0.4690  0.1918  0.5575
18503TIP3   OH276923   3.513   4.185  16.763  0.0650  0.0932  0.3035
18503TIP3    H176924   3.442   4.206  16.824 -1.0798 -1.4324 -0.4127
18503TIP3    H276925   3.494   4.095  16.735  0.7789  0.5843 -1.9476
18504TIP3   OH276926   4.845   6.644  11.190  0.5931 -0.0577 -0.1287
18504TIP3    H176927   4.847   6.553  11.217 -1.2909  0.3715  1.7288
18504TIP3    H276928   4.839   6.693  11.272  1.7746  1.7798 -1.0603
18505TIP3   OH276929   6.177   3.662   2.808  0.1424  0.5801 -0.1839
18505TIP3    H176930   6.236   3.587   2.801  0.5311  0.5932  2.1031
18505TIP3    H276931   6.123   3.643   2.884 -2.9704  0.5412 -2.2183
18506TIP3   OH276932   6.490   3.431  13.775 -0.5061 -0.3774  0.0622
18506TIP3    H176933   6.490   3.427  13.680  0.4226  0.5921  0.0033
18506TIP3    H276934   6.398   3.438  13.799 -0.6641  1.2570 -0.8770
18507TIP3   OH276935   6.406   5.977  13.760 -0.2363  0.5591  0.6608
18507TIP3    H176936   6.426   5.913  13.828  0.0004  0.0651  0.1365
18507TIP3    H276937   6.365   5.926  13.690  2.4116  0.4472 -0.9410
18508TIP3   OH276938   6.436   4.479  17.270 -0.2844 -0.1563  0.1599
18508TIP3    H176939   6.347   4.513  17.262 -0.1575  0.1496  0.0057
18508TIP3    H276940   6.425   4.389  17.300 -0.6178  0.0880  0.7908
18509TIP3   OH276941   1.255   5.068   3.664 -0.1114  0.1974  0.4789
18509TIP3    H176942   1.161   5.077   3.681 -0.2625 -0.5322  0.0652
18509TIP3    H276943   1.261   4.993   3.606  0.6426  0.8943 -0.3546
18510TIP3   OH276944   6.230   4.277  16.280  0.0962  0.3960  0.4120
18510TIP3    H176945   6.313   4.304  16.319  0.2895  0.9322 -0.3494
18510TIP3    H276946   6.242   4.291  16.187 -0.5661 -0.3144  0.2119
18511TIP3   OH276947   4.908   1.951  13.508 -0.1091 -0.1068  0.8096
18511TIP3    H176948   4.814   1.937  13.496  0.1173 -1.9070  0.9343
18511TIP3    H276949   4.943   1.958  13.419 -0.5742  2.6724  0.7365
18512TIP3   OH276950   6.650   3.311  15.257  0.5960  0.7918  0.1534
18512TIP3    H176951   6.614   3.399  15.248  0.5237  0.7495  0.0352
18512TIP3    H276952   6.739   3.319  15.223  0.3976  0.6840 -0.4005
18513TIP3   OH276953   5.068   0.227   1.478  0.2306  0.2155 -0.3642
18513TIP3    H176954   5.000   0.173   1.520  0.4634 -0.2235 -0.5451
18513TIP3    H276955   5.053   0.215   1.384  0.3047  0.4435 -0.4051
18514TIP3   OH276956   2.030   5.676   3.749 -0.2121 -0.3463  0.3229
18514TIP3    H176957   2.026   5.771   3.741  1.0252  0.0086  2.9533
18514TIP3    H276958   1.958   5.654   3.809 -0.3477 -1.0617 -0.0848
18515TIP3   OH276959   5.957   5.950   2.103 -0.1453 -0.5976 -0.5685
18515TIP3    H176960   5.946   5.926   2.195  0.7552 -0.1210 -0.3252
18515TIP3    H276961   6.048   5.977   2.096 -0.3981  0.0774 -1.4374
18516TIP3   OH276962   0.188   4.021  13.939 -0.3028 -0.4484 -0.0640
18516TIP3    H176963   0.182   3.990  13.848  0.8697 -1.0839  0.0493
18516TIP3    H276964   0.160   4.112  13.935  0.8824 -0.0962 -1.3018
18517TIP3   OH276965   1.052   6.037  17.506 -0.3895 -0.2799 -0.2386
18517TIP3    H176966   1.086   5.963  17.456 -0.0765  0.0891 -0.5862
18517TIP3    H276967   0.984   6.000  17.561 -1.4546 -0.5386 -1.6727
18518TIP3   OH276968   0.052   1.655  13.670 -0.4842 -0.2754 -0.1621
18518TIP3    H176969   0.030   1.732  13.722 -0.4560 -0.6853  0.4619
18518TIP3    H276970  -0.008   1.659  13.595 -1.4542 -0.4145  0.5981
18519TIP3   OH276971   3.878   4.193   2.921 -0.2391  0.0225 -0.3620
18519TIP3    H176972   3.949   4.157   2.869 -0.8513  0.3322 -1.4430
18519TIP3    H276973   3.854   4.122   2.981  0.5531 -0.2960 -0.4087
18520TIP3   OH276974   1.975   5.204   3.357 -0.3280  0.1401 -0.0499
18520TIP3    H176975   1.881   5.219   3.369 -1.0010 -3.2166 -0.2305
18520TIP3    H276976   1.982   5.112   3.329  3.1744 -0.8059  3.1015
18521TIP3   OH276977   3.677   4.275   4.091 -0.3729 -0.4688 -0.4172
18521TIP3    H176978   3.664   4.325   4.011  2.2426  1.9881  0.5261
18521TIP3    H276979   3.757   4.225   4.075 -0.6856 -1.1605  0.1385
18522TIP3   OH276980   2.844   3.324  17.375 -0.0151  0.1941 -0.2070
18522TIP3    H176981   2.911   3.260  17.349 -0.0189  0.0022  0.2403
18522TIP3    H276982   2.774   3.313  17.311  0.6235  0.8004 -1.0316
18523TIP3   OH276983   2.268   0.582  17.107  0.3481 -0.2396 -0.6405
18523TIP3    H176984   2.259   0.487  17.101 -1.0483 -0.2395  0.7901
18523TIP3    H276985   2.186   0.616  17.072  1.2235  0.5149 -2.0533
18524TIP3   OH276986   5.241   4.353   1.187  0.2066  0.2267 -0.5811
18524TIP3    H176987   5.309   4.297   1.150  0.8252  0.5933 -0.0229
18524TIP3    H276988   5.264   4.361   1.280 -1.2100 -0.5284 -0.1308
18525TIP3   OH276989   5.625   5.058  17.472  0.7958  0.0050  0.2293
18525TIP3    H176990   5.685   5.043  17.545  1.1461  1.5718  0.3074
18525TIP3    H276991   5.620   5.153  17.465  0.9260 -0.1165 -1.9380
18526TIP3   OH276992   2.518   2.625  13.892  0.4302 -0.3006 -0.1663
18526TIP3    H176993   2.496   2.649  13.982 -0.6709  0.5386 -0.6291
18526TIP3    H276994   2.611   2.603  13.894  1.2276  2.7320  0.5855
18527TIP3   OH276995   2.353   0.002   5.004 -0.5451 -0.6224  0.3550
18527TIP3    H176996   2.318   0.091   4.994  4.0365  1.3168 -1.2935
18527TIP3    H276997   2.343  -0.017   5.097 -1.1108  1.9352  0.8926
18528TIP3   OH276998   3.128   0.730  16.014 -0.1244  0.3376 -0.0694
18528TIP3    H176999   3.194   0.781  16.060 -0.5655  0.8133  0.0487
18528TIP3    H277000   3.144   0.639  16.040 -0.3040  0.5875  0.9356
18529TIP3   OH277001   6.060   5.355   0.495  0.0695 -0.8082  0.0459
18529TIP3    H177002   6.105   5.351   0.579  1.2976  0.1819 -0.5431
18529TIP3    H277003   5.967   5.365   0.518  0.5536  1.3109  1.3038
18530TIP3   OH277004   0.519   6.128   3.255  0.1914 -0.4345 -0.3849
18530TIP3    H177005   0.453   6.147   3.188 -0.4001 -0.1909  0.2536
18530TIP3    H277006   0.474   6.070   3.316  0.8711 -1.0264 -0.4272
18531TIP3   OH277007   5.854   1.913  14.396 -0.0322  0.0388  0.2629
18531TIP3    H177008   5.818   1.831  14.360 -0.2386  0.7664 -1.2634
18531TIP3    H277009   5.923   1.937  14.335  0.1867  0.8877  0.8359
18532TIP3   OH277010   3.138   0.501  10.978 -0.1300 -0.1786  0.1266
18532TIP3    H177011   3.232   0.508  10.994 -0.1849  0.8043  0.0504
18532TIP3    H277012   3.130   0.433  10.911  0.4136 -1.1791  1.0435
18533TIP3   OH277013   0.292   2.208   0.196  0.6262 -0.5673  0.6337
18533TIP3    H177014   0.320   2.269   0.128 -0.3765 -0.5730  0.1881
18533TIP3    H277015   0.205   2.180   0.168 -0.9494  1.3214  3.1466
18534TIP3   OH277016   0.473   6.485   2.790  1.1465 -0.1411 -0.0032
18534TIP3    H177017   0.406   6.552   2.782  1.7067  0.3038 -1.2221
18534TIP3    H277018   0.524   6.492   2.710  2.0448 -1.1332  0.4497
18535TIP3   OH277019   4.934   1.914  16.440 -0.0001 -0.5214 -0.2195
18535TIP3    H177020   4.908   1.995  16.395  0.7886 -0.3670 -0.4136
18535TIP3    H277021   4.878   1.910  16.517 -0.8681 -0.4086 -0.8344
18536TIP3   OH277022   0.218   4.021  17.116 -0.2714 -0.0389  0.2483
18536TIP3    H177023   0.218   4.091  17.182 -1.6371 -0.8180  1.1379
18536TIP3    H277024   0.150   4.048  17.054  1.1967  0.8270 -1.0408
18537TIP3   OH277025   1.773   4.332   0.009  0.3295 -0.1808 -0.2264
18537TIP3    H177026   1.864   4.324  -0.018  0.4791  1.9580 -0.5904
18537TIP3    H277027   1.765   4.275   0.085  2.8036  1.6874  1.6317
18538TIP3   OH277028   5.271   1.536   2.791 -0.2109 -0.4430 -0.0161
18538TIP3    H177029   5.277   1.441   2.777 -0.9991 -0.6289  0.8191
18538TIP3    H277030   5.279   1.546   2.886 -2.2285  0.1410  0.1268
18539TIP3   OH277031   5.646   0.939  11.433  0.0708 -0.3933 -0.2651
18539TIP3    H177032   5.633   0.938  11.527  1.2443 -1.5150 -0.0910
18539TIP3    H277033   5.651   0.847  11.408  0.9148 -0.0967 -1.2506
18540TIP3   OH277034   5.719   2.430  14.266 -0.0599  0.4896 -0.2417
18540TIP3    H177035   5.691   2.394  14.181 -1.1944  0.6761  0.0394
18540TIP3    H277036   5.652   2.495  14.287  0.1013  0.2940  0.8990
18541TIP3   OH277037   2.320   3.618  15.971  0.1996  0.3502  0.6233
18541TIP3    H177038   2.259   3.663  16.030  1.6508  1.7447  1.1249
18541TIP3    H277039   2.398   3.603  16.024  0.0082 -2.2777  0.2791
18542TIP3   OH277040   1.042   4.956   3.372 -0.0696 -0.2261 -0.4487
18542TIP3    H177041   1.134   4.980   3.381 -0.6890  1.6547  1.9341
18542TIP3    H277042   0.997   5.040   3.365 -1.6758 -1.0878 -0.7696
18543TIP3   OH277043   0.471   0.661  15.209 -0.4384  0.6934  0.8337
18543TIP3    H177044   0.378   0.681  15.211 -0.5209  0.4365  3.2632
18543TIP3    H277045   0.480   0.583  15.264  0.9766 -0.6210 -1.1261
18544TIP3   OH277046   6.267   5.859   5.057  0.2710 -0.7666 -0.1535
18544TIP3    H177047   6.178   5.834   5.034 -0.2793  0.6961  0.2843
18544TIP3    H277048   6.267   5.865   5.152 -0.0525  2.2114 -0.2700
18545TIP3   OH277049   6.430   4.027  12.597 -0.1354 -0.5734  0.4780
18545TIP3    H177050   6.450   3.938  12.568 -1.4670 -0.7773  0.1187
18545TIP3    H277051   6.512   4.059  12.633  0.7674 -1.4176 -0.7284
18546TIP3   OH277052   5.176   6.623  12.116  0.0787  0.2037 -0.1668
18546TIP3    H177053   5.186   6.678  12.038  1.9201 -1.7846 -1.4530
18546TIP3    H277054   5.257   6.637  12.165 -0.7567  0.8879  1.0685
18547TIP3   OH277055   1.398   3.337  15.876  0.2378 -0.1652  0.2976
18547TIP3    H177056   1.471   3.362  15.933 -0.9164  0.7705  1.4252
18547TIP3    H277057   1.438   3.283  15.807  1.7262 -1.0250  1.7770
18548TIP3   OH277058   3.636   3.043  12.652  0.1483 -0.1290  0.1609
18548TIP3    H177059   3.566   3.000  12.701  0.2172  0.3059  0.6611
18548TIP3    H277060   3.609   3.135  12.648 -0.1975 -0.2687 -1.2428
18549TIP3   OH277061   2.928   4.053  11.878 -0.5216  1.0980 -0.3049
18549TIP3    H177062   3.006   4.105  11.896  0.7518 -0.2017 -1.7404
18549TIP3    H277063   2.926   4.045  11.783 -0.6779 -1.3909 -0.1492
18550TIP3   OH277064   0.086   6.450  14.017  0.2427 -0.1245  0.2823
18550TIP3    H177065   0.031   6.372  14.005  0.1144 -0.0296  0.2549
18550TIP3    H277066   0.141   6.453  13.938 -0.9974  0.8242 -0.5983
18551TIP3   OH277067   1.868   3.167   3.321  0.3733 -0.0523 -0.3341
18551TIP3    H177068   1.794   3.216   3.285 -0.3954 -0.0286  1.2282
18551TIP3    H277069   1.866   3.083   3.275 -1.6144 -0.6621  0.7724
18552TIP3   OH277070   5.497   4.827   3.590  0.7616  0.2147 -0.0648
18552TIP3    H177071   5.535   4.799   3.507  1.2091  0.4572  0.0547
18552TIP3    H277072   5.476   4.746   3.636  0.4148  0.0775 -0.4516
18553TIP3   OH277073   5.239   4.744   1.300  0.2937 -0.5499 -0.2828
18553TIP3    H177074   5.253   4.729   1.207 -1.3769 -0.0132 -0.6661
18553TIP3    H277075   5.205   4.833   1.304 -1.4451 -1.2121  0.6196
18554TIP3   OH277076   5.306   4.562   5.641 -0.1763  0.0188  0.0286
18554TIP3    H177077   5.282   4.483   5.593  1.1804  0.6866 -1.8283
18554TIP3    H277078   5.334   4.530   5.727  0.5984 -1.5415 -0.7787
18555TIP3   OH277079   6.198   6.268  12.758  0.0571  0.3861 -0.2915
18555TIP3    H177080   6.254   6.263  12.680  1.3332  1.7258  0.4733
18555TIP3    H277081   6.137   6.195  12.749  0.7959 -0.0663 -2.0606
18556TIP3   OH277082   1.523   2.267  15.737  0.2131  0.2440  0.0427
18556TIP3    H177083   1.431   2.258  15.711  0.1018  1.3439 -0.0169
18556TIP3    H277084   1.545   2.184  15.778 -1.5464  0.8335  2.3638
18557TIP3   OH277085   0.238   1.324  17.551 -0.8444 -0.5348 -0.4117
18557TIP3    H177086   0.334   1.330  17.548 -0.8890  3.9987  0.0857
18557TIP3    H277087   0.217   1.311  17.643 -0.6832  0.4059 -0.2329
18558TIP3   OH277088   5.292   1.051   2.356  0.6404  0.2767 -0.0979
18558TIP3    H177089   5.207   1.030   2.316  0.4267  0.7916  0.0776
18558TIP3    H277090   5.284   1.144   2.380  0.4361 -0.2248  1.9558
18559TIP3   OH277091   2.603   0.576   0.818 -0.5052 -0.1935 -0.6951
18559TIP3    H177092   2.594   0.509   0.750  0.9669 -1.0183 -0.1257
18559TIP3    H277093   2.696   0.572   0.843  0.2166  3.5286 -2.1391
18560TIP3   OH277094   2.220   3.472  15.756 -0.1909  0.5615  0.1778
18560TIP3    H177095   2.235   3.556  15.800 -0.3963 -0.0576  1.4952
18560TIP3    H277096   2.232   3.406  15.825 -0.4173 -0.4680 -0.7324
18561TIP3   OH277097   3.157   4.781   5.669  0.0782 -0.2801  0.2449
18561TIP3    H177098   3.090   4.750   5.730 -0.5989 -0.2277 -0.4674
18561TIP3    H277099   3.152   4.720   5.595  0.7822 -0.2419  0.1543
18562TIP3   OH277100   4.597   5.974   5.457 -0.4086  0.1747  0.2779
18562TIP3    H177101   4.651   6.053   5.464  0.4599 -0.4183  0.3366
18562TIP3    H277102   4.652   5.904   5.490 -1.1519 -0.4746  0.1592
18563TIP3   OH277103   0.445   3.062   3.005  0.2196  0.2550  0.0915
18563TIP3    H177104   0.454   3.151   2.969  0.9488  0.4639  0.7591
18563TIP3    H277105   0.512   3.011   2.959  1.9598  0.7845  1.8916
18564TIP3   OH277106   3.008   3.936   1.061 -0.2175  0.4898 -0.1629
18564TIP3    H177107   2.964   4.007   1.013 -1.4862  1.1825  1.8824
18564TIP3    H277108   3.033   3.976   1.144 -2.1730 -1.7174  1.6153
18565TIP3   OH277109   1.307   5.176   3.362 -0.5889  0.3655  0.1335
18565TIP3    H177110   1.369   5.239   3.327 -0.0187  0.3092  1.0160
18565TIP3    H277111   1.225   5.225   3.371 -0.2964  0.8231  0.3082
18566TIP3   OH277112   3.316   5.865   0.053 -0.0348 -0.0688 -0.6902
18566TIP3    H177113   3.352   5.799  -0.007  1.9310  0.6046 -0.3305
18566TIP3    H277114   3.357   5.947   0.026  0.0535  0.4290  0.8817
18567TIP3   OH277115   6.564   1.505  16.889 -0.1811  0.4184  0.6188
18567TIP3    H177116   6.478   1.545  16.895 -0.2181  0.1783  1.8174
18567TIP3    H277117   6.592   1.522  16.799 -2.6448 -1.8888 -0.7400
18568TIP3   OH277118   0.325   5.668  14.360 -0.8490 -0.3151 -0.0167
18568TIP3    H177119   0.272   5.606  14.410  1.6732 -0.9116  2.0973
18568TIP3    H277120   0.412   5.629  14.356  0.4192  2.3081 -0.0630
18569TIP3   OH277121   2.644   0.749  12.477 -0.2921  0.2891 -0.2038
18569TIP3    H177122   2.722   0.748  12.533 -0.1837  1.2461 -0.3238
18569TIP3    H277123   2.628   0.657  12.457  2.0187  0.1582 -1.8906
18570TIP3   OH277124   0.297   4.821   2.931 -0.0791  0.2607  0.2488
18570TIP3    H177125   0.331   4.907   2.906 -1.2386  0.7962  0.4445
18570TIP3    H277126   0.368   4.760   2.909  1.5434  1.4522  1.9159
18571TIP3   OH277127   1.089   6.343   1.694  0.3346  0.0854  0.0591
18571TIP3    H177128   1.135   6.259   1.690  0.8669  0.3942 -0.3481
18571TIP3    H277129   1.156   6.406   1.719  0.4198  0.7288 -1.6581
18572TIP3   OH277130   3.540   3.430   5.676  0.4620  0.3130  0.1029
18572TIP3    H177131   3.459   3.479   5.685 -0.2899 -0.9681  0.6921
18572TIP3    H277132   3.517   3.358   5.616 -0.0219 -2.2939  3.1444
18573TIP3   OH277133   1.187   2.365   5.087  0.0750  0.1817  0.1030
18573TIP3    H177134   1.278   2.394   5.075  0.1335 -0.7315 -2.1644
18573TIP3    H277135   1.143   2.441   5.124  1.7432  0.6263  1.3440
18574TIP3   OH277136   3.126   0.578   4.896 -0.2062  0.2383  0.0079
18574TIP3    H177137   3.122   0.554   4.989 -0.6881 -0.6042 -0.2264
18574TIP3    H277138   3.166   0.502   4.853 -1.1642  0.0978 -0.6524
18575TIP3   OH277139   3.155   0.659  14.192 -0.4217 -0.3502  0.2506
18575TIP3    H177140   3.198   0.586  14.146  0.6400 -0.1983  0.9603
18575TIP3    H277141   3.225   0.698  14.245 -0.7610  1.6962 -0.7126
18576TIP3   OH277142   4.349   2.065   5.048 -0.4483 -0.5024 -0.0627
18576TIP3    H177143   4.303   1.996   5.096  0.0988 -0.4386  0.5637
18576TIP3    H277144   4.334   2.145   5.100  0.2717 -0.4616  0.0888
18577TIP3   OH277145   5.901   1.095   0.802 -1.0396  0.5693  0.2612
18577TIP3    H177146   5.943   1.179   0.785 -0.6063  0.4180  0.5507
18577TIP3    H277147   5.967   1.045   0.850 -1.7084  0.4818  1.1176
18578TIP3   OH277148   2.873   6.302   2.966 -0.0139  0.0358 -0.2641
18578TIP3    H177149   2.833   6.340   3.043 -0.3980  0.8229 -0.8356
18578TIP3    H277150   2.836   6.214   2.960  0.7180 -0.3649  0.9478
18579TIP3   OH277151   3.952   3.725  14.727 -1.0496 -0.6394  1.0325
18579TIP3    H177152   3.903   3.706  14.808 -1.8102  2.5105  1.4453
18579TIP3    H277153   3.999   3.806  14.746  0.0400 -0.6687 -1.2051
18580TIP3   OH277154   1.225   5.892  16.209 -0.0230 -0.2752 -0.5908
18580TIP3    H177155   1.194   5.982  16.219  0.2525 -0.3546  1.2758
18580TIP3    H277156   1.185   5.844  16.282  2.3312 -0.9581  0.3264
18581TIP3   OH277157   5.768   0.744   4.634  0.0455  0.6096  0.4212
18581TIP3    H177158   5.688   0.755   4.685  0.7267  1.0042  1.4358
18581TIP3    H277159   5.780   0.649   4.630  1.4634  0.5418  3.4849
18582TIP3   OH277160   4.737   3.282  10.976  0.2886  0.1732  0.3234
18582TIP3    H177161   4.826   3.302  10.948  0.4324 -0.8383  0.0429
18582TIP3    H277162   4.687   3.361  10.954  0.6415 -0.1015 -1.6663
18583TIP3   OH277163   4.715   5.857   5.736 -0.0993 -0.3156  0.0436
18583TIP3    H177164   4.634   5.806   5.727 -0.7395  0.6131  0.4459
18583TIP3    H277165   4.687   5.941   5.771  1.1308 -0.2079  0.8101
18584TIP3   OH277166   4.994   2.596  17.033 -0.3917  0.2788 -0.7799
18584TIP3    H177167   4.930   2.556  16.975  0.3187  0.2728 -1.5864
18584TIP3    H277168   4.945   2.618  17.112 -0.7483 -2.4501 -0.1378
18585TIP3   OH277169   3.126   2.576  12.224  0.0830 -0.2798  0.2089
18585TIP3    H177170   3.188   2.648  12.212  0.8530 -0.6655  1.6514
18585TIP3    H277171   3.051   2.617  12.268 -0.7082  0.1689 -1.4601
18586TIP3   OH277172   3.530   2.361  11.231  0.2021 -0.1563 -0.1784
18586TIP3    H177173   3.486   2.435  11.190  0.8885  0.3120 -0.1057
18586TIP3    H277174   3.527   2.291  11.166 -1.0927 -0.3177  0.0260
18587TIP3   OH277175   2.319   3.410   0.660  0.0778 -1.2466 -0.1628
18587TIP3    H177176   2.266   3.382   0.735  1.4943 -2.2730  0.4854
18587TIP3    H277177   2.398   3.447   0.698 -0.7413  1.6977 -1.0743
18588TIP3   OH277178   3.108   6.273  15.735  0.1042  0.1153  0.1165
18588TIP3    H177179   3.109   6.216  15.658 -0.8136  0.9122 -0.5279
18588TIP3    H277180   3.108   6.362  15.698 -1.4177  0.5141  0.9979
18589TIP3   OH277181   6.020   2.904   5.203 -0.1044 -0.4703  0.1735
18589TIP3    H177182   6.110   2.929   5.180 -0.5760  0.0496 -1.2260
18589TIP3    H277183   5.970   2.984   5.192 -0.9062 -0.9883 -0.0121
18590TIP3   OH277184   5.191   0.426  14.006  0.4570  0.0635 -0.4427
18590TIP3    H177185   5.205   0.520  14.006 -3.1178  0.7542  0.3413
18590TIP3    H277186   5.242   0.394  14.081  1.5919  1.3499 -0.6221
18591TIP3   OH277187   5.877   0.279  13.004  0.3168 -0.0013 -0.2946
18591TIP3    H177188   5.804   0.230  13.042 -1.8094  2.7842 -0.4843
18591TIP3    H277189   5.906   0.339  13.073  0.9092  0.4969 -0.9505
18592TIP3   OH277190   5.659   5.808   4.716  0.3583 -0.1095 -0.4861
18592TIP3    H177191   5.729   5.841   4.660 -0.3213 -1.4499 -2.2180
18592TIP3    H277192   5.635   5.883   4.770  2.1127  0.7948 -0.8934
18593TIP3   OH277193   2.540   4.800  13.007 -0.6079  0.2646 -0.3137
18593TIP3    H177194   2.503   4.739  12.944  2.1550 -1.6190 -0.2650
18593TIP3    H277195   2.598   4.856  12.955  1.8764 -1.4593  0.4263
18594TIP3   OH277196   2.374   6.688  16.885 -0.4212  0.3731 -0.1055
18594TIP3    H177197   2.299   6.655  16.934 -0.5689  0.9504  0.0748
18594TIP3    H277198   2.385   6.627  16.813 -0.0614 -0.6206  0.7668
18595TIP3   OH277199   4.879   5.300   5.620 -0.2591 -0.0134 -0.0943
18595TIP3    H177200   4.971   5.274   5.611  0.1722  1.2825  0.3498
18595TIP3    H277201   4.862   5.355   5.543 -0.1457  1.1181  0.6665
18596TIP3   OH277202   0.958   6.694  16.119 -0.1102 -0.4437  0.1910
18596TIP3    H177203   0.871   6.732  16.125  0.4550  1.2672 -1.6711
18596TIP3    H277204   1.016   6.767  16.099  2.1260 -1.1689  3.2199
18597TIP3   OH277205   0.112   1.144   4.447  0.0819  0.4993 -0.9007
18597TIP3    H177206   0.185   1.082   4.453 -0.3964 -0.1083 -1.3234
18597TIP3    H277207   0.088   1.160   4.539 -0.4617 -0.7495 -0.8044
18598TIP3   OH277208   1.106   4.014   2.165  0.4361  0.4705  0.2365
18598TIP3    H177209   1.186   3.962   2.155 -1.1346 -2.7278  2.4028
18598TIP3    H277210   1.047   3.980   2.098  0.0226  0.8428  0.4087
18599TIP3   OH277211   3.529   0.943  13.271 -0.2324 -0.6405  0.2262
18599TIP3    H177212   3.495   0.859  13.241 -1.1636  0.4089 -1.8322
18599TIP3    H277213   3.452   0.991  13.301  0.0216  0.1537 -0.3648
18600TIP3   OH277214   5.009   5.137  14.737  0.3437 -0.2402 -0.4770
18600TIP3    H177215   5.045   5.051  14.763  2.3986  0.5669 -0.4308
18600TIP3    H277216   4.988   5.180  14.820 -0.2521 -0.5195 -0.4812
18601TIP3   OH277217   5.764   2.807   3.008  0.4640 -0.6838  0.2205
18601TIP3    H177218   5.758   2.899   2.982  1.3162 -1.2412 -2.2495
18601TIP3    H277219   5.708   2.761   2.945  1.6932 -2.0359  0.0658
18602TIP3   OH277220   1.054   2.256   2.767  0.2022 -0.2830  0.1613
18602TIP3    H177221   1.128   2.198   2.747 -0.0069 -0.7818  0.7997
18602TIP3    H277222   1.094   2.343   2.775  0.6451 -0.4690  0.0000
18603TIP3   OH277223   4.705   4.418  16.312 -0.6096  0.2087  0.0767
18603TIP3    H177224   4.702   4.513  16.326  0.2029  0.1665  0.6217
18603TIP3    H277225   4.704   4.408  16.217  0.5055  0.8189 -0.0135
18604TIP3   OH277226   4.150   2.322   0.705 -0.0082 -0.4532 -0.7273
18604TIP3    H177227   4.123   2.399   0.654  0.2249 -1.3823 -2.2893
18604TIP3    H277228   4.074   2.301   0.759 -0.0263  0.9424 -0.1601
18605TIP3   OH277229   1.275   3.135  10.815  0.6198 -0.3638  0.5663
18605TIP3    H177230   1.361   3.130  10.773  0.0953  1.6221 -0.9424
18605TIP3    H277231   1.225   3.065  10.775  0.6479  0.4414 -0.9825
18606TIP3   OH277232   1.692   5.105   3.669  0.3638  0.0966 -0.3172
18606TIP3    H177233   1.706   5.134   3.579 -0.1217 -0.3660 -0.5491
18606TIP3    H277234   1.752   5.032   3.681  1.3272  0.9371  0.1504
18607TIP3   OH277235   4.945   0.832  17.016  0.4390  0.2148  0.0100
18607TIP3    H177236   4.855   0.854  16.991 -0.3545 -0.4020  2.1714
18607TIP3    H277237   4.938   0.754  17.070  2.1038  0.9685  1.4427
18608TIP3   OH277238   5.624   3.985   0.278 -0.1768 -0.0349  0.5184
18608TIP3    H177239   5.641   4.051   0.212  1.9331 -0.7066  0.3219
18608TIP3    H277240   5.550   4.019   0.328  0.8444  2.4747  0.4438
18609TIP3   OH277241   5.668   2.120   5.454  0.1482 -0.1677 -0.8437
18609TIP3    H177242   5.581   2.148   5.481 -0.0375 -1.1469 -0.3991
18609TIP3    H277243   5.721   2.200   5.457 -0.6671  0.3863 -0.8812
18610TIP3   OH277244   4.412   3.152  17.468  0.3597  0.4506 -0.1503
18610TIP3    H177245   4.478   3.200  17.418 -0.2151  0.2405 -1.1298
18610TIP3    H277246   4.374   3.091  17.405 -0.0669 -0.1446  0.6641
18611TIP3   OH277247   6.464   2.143  16.433 -0.4423  0.0559  0.4243
18611TIP3    H177248   6.494   2.073  16.375 -0.1913  2.2249 -2.2828
18611TIP3    H277249   6.374   2.117  16.456  0.0566 -1.7134  0.5414
18612TIP3   OH277250   4.455   4.549  13.528 -0.5243  0.4491 -0.7400
18612TIP3    H177251   4.407   4.631  13.518 -1.6397 -0.0113  0.4680
18612TIP3    H277252   4.488   4.551  13.618 -0.1315 -0.2068 -0.8572
18613TIP3   OH277253   4.473   3.087   5.378 -0.3819  0.9534 -0.2260
18613TIP3    H177254   4.541   3.147   5.346 -0.2600  0.2087 -1.4398
18613TIP3    H277255   4.391   3.134   5.364 -0.2681  0.9531 -0.9286
18614TIP3   OH277256   4.168   2.496   2.118  0.0879  0.2919 -0.0310
18614TIP3    H177257   4.222   2.522   2.043 -0.4687 -0.1871 -0.6084
18614TIP3    H277258   4.224   2.511   2.194  0.5779  1.0025 -0.5241
18615TIP3   OH277259   4.295   1.671   5.455 -0.3823 -0.2438 -0.2686
18615TIP3    H177260   4.375   1.641   5.498  0.5565 -0.9115 -2.3825
18615TIP3    H277261   4.224   1.631   5.506  0.7338 -2.4828 -0.3812
18616TIP3   OH277262   1.412   4.675   5.139  0.1934 -0.4395  0.0437
18616TIP3    H177263   1.320   4.702   5.140  0.4292  0.4725 -0.8272
18616TIP3    H277264   1.459   4.754   5.113  1.2592 -0.8212  0.7504
18617TIP3   OH277265   4.775   0.940  15.043  0.4716  0.2919 -0.2232
18617TIP3    H177266   4.778   1.026  15.083 -0.6872  1.1538 -1.8692
18617TIP3    H277267   4.825   0.949  14.962 -2.2913  0.4050 -2.0325
18618TIP3   OH277268   5.222   6.047  13.377  0.0534  0.4982  0.0117
18618TIP3    H177269   5.137   6.049  13.332 -0.1978 -1.8490  0.2546
18618TIP3    H277270   5.286   6.060  13.307 -0.4536  0.6816 -0.4295
18619TIP3   OH277271   0.189   2.382   1.928  0.0372 -0.0015  0.4157
18619TIP3    H177272   0.220   2.307   1.877  0.2331 -0.3304  1.0099
18619TIP3    H277273   0.246   2.454   1.901 -0.5809  0.1042 -0.6516
18620TIP3   OH277274   4.531   3.139   4.255 -0.3087 -0.0964  0.0962
18620TIP3    H177275   4.595   3.167   4.190 -0.3802  0.4703  0.2648
18620TIP3    H277276   4.507   3.219   4.302 -1.9603 -0.0789 -0.6858
18621TIP3   OH277277   1.731   4.232  10.812 -0.0264 -0.5590 -0.1029
18621TIP3    H177278   1.709   4.280  10.892 -1.8519 -0.2571 -0.7484
18621TIP3    H277279   1.647   4.217  10.768  1.0820  1.5728 -3.2873
18622TIP3   OH277280   1.386   0.326  15.947 -0.2620  0.0074 -0.9661
18622TIP3    H177281   1.343   0.404  15.913  1.1077  1.1388 -0.1747
18622TIP3    H277282   1.374   0.331  16.042  1.4190  0.2791 -0.7330
18623TIP3   OH277283   1.813   1.994  11.928  0.1797  0.2322 -0.1708
18623TIP3    H177284   1.721   2.020  11.931 -0.9352 -3.2657  1.9735
18623TIP3    H277285   1.848   2.022  12.013 -0.4855 -2.9360  1.2772
18624TIP3   OH277286   0.781   3.423   4.202  0.6052 -0.3473 -0.0003
18624TIP3    H177287   0.828   3.457   4.126 -0.4918  1.8745  0.2372
18624TIP3    H277288   0.696   3.395   4.167  0.2792  0.2371  0.3121
18625TIP3   OH277289   3.925   2.914   1.898  0.2148 -0.4870 -0.4382
18625TIP3    H177290   3.874   2.842   1.935 -0.8076 -0.4367 -1.6700
18625TIP3    H277291   3.860   2.980   1.876  0.9748  0.1743 -0.7322
18626TIP3   OH277292   0.405   3.481  15.104 -0.4860  0.0280  0.0861
18626TIP3    H177293   0.372   3.568  15.086 -1.9158 -0.4448  0.3445
18626TIP3    H277294   0.455   3.490  15.185  2.6596  1.3524 -1.7897
18627TIP3   OH277295   4.610   4.011  14.942 -0.6783 -0.0968  0.2133
18627TIP3    H177296   4.698   4.016  14.904 -1.0699  1.2774 -0.6225
18627TIP3    H277297   4.558   3.965  14.876 -0.8909  0.4116  0.0145
18628TIP3   OH277298   3.034   1.671   5.277 -0.0039  0.1030  0.9619
18628TIP3    H177299   3.116   1.622   5.289  0.9366  1.3763 -0.0451
18628TIP3    H277300   3.051   1.730   5.204 -1.8691  0.3452  0.6705
18629TIP3   OH277301   4.490   2.873   4.206  0.1234 -0.5221  0.0150
18629TIP3    H177302   4.511   2.963   4.230  1.4833 -0.1564 -2.2934
18629TIP3    H277303   4.395   2.868   4.213  0.1155  0.7196  1.2853
18630TIP3   OH277304   4.758   6.078   6.516 -0.4419 -0.0500 -0.1911
18630TIP3    H177305   4.836   6.109   6.470 -1.5005  2.8822 -0.2333
18630TIP3    H277306   4.706   6.033   6.449  0.2038 -0.0495 -0.6961
18631TIP3   OH277307   6.570   5.105  13.362  0.0217  0.3411  0.3181
18631TIP3    H177308   6.515   5.127  13.437  0.5180  0.9182  0.5229
18631TIP3    H277309   6.659   5.124  13.391  0.3881 -1.0109  0.1472
18632TIP3   OH277310   2.798   6.242  12.150 -0.2703 -0.4805 -0.3508
18632TIP3    H177311   2.751   6.221  12.070  0.1162 -1.3354 -0.3601
18632TIP3    H277312   2.876   6.289  12.121 -0.0636 -0.9048 -0.4903
18633TIP3   OH277313   2.590   1.063  12.426 -0.2598 -0.2839  0.3570
18633TIP3    H177314   2.621   1.061  12.516 -0.1054 -0.1949  0.3061
18633TIP3    H277315   2.632   1.140  12.388 -0.5499 -0.1570  0.2912
18634TIP3   OH277316   4.211   0.752  11.535  0.2738  0.3092  0.0350
18634TIP3    H177317   4.129   0.736  11.581  0.1671  1.3792  0.2325
18634TIP3    H277318   4.233   0.843  11.555  1.0711  0.2934 -0.7057
18635TIP3   OH277319   0.859   0.125  11.979 -0.5716 -0.1186 -0.3757
18635TIP3    H177320   0.815   0.107  12.062 -1.5203 -0.4452 -0.9317
18635TIP3    H277321   0.788   0.139  11.917  0.0999 -0.7940 -1.3310
18636TIP3   OH277322   6.696   6.451   3.738 -0.1990 -0.1701  0.0415
18636TIP3    H177323   6.643   6.376   3.763 -0.8687  0.6316  1.1031
18636TIP3    H277324   6.758   6.416   3.674 -0.4827 -1.6239  0.5226
18637TIP3   OH277325   4.886   3.984  12.644  0.4788  0.1022  0.2905
18637TIP3    H177326   4.907   4.000  12.735 -0.1454  1.7652  0.1869
18637TIP3    H277327   4.888   3.889  12.634  1.8132 -0.0444  1.7039
18638TIP3   OH277328   1.853   1.880   5.724 -0.0124  1.0622  0.3907
18638TIP3    H177329   1.796   1.813   5.686  0.1886  1.2457 -0.2542
18638TIP3    H277330   1.819   1.893   5.812 -1.6380  1.9210 -0.3095
18639TIP3   OH277331   6.590   3.774  13.733 -0.0351  0.2913  0.2884
18639TIP3    H177332   6.570   3.755  13.824  0.2912  1.3149  0.5907
18639TIP3    H277333   6.684   3.759  13.725  0.0003  0.5413  0.2157
18640TIP3   OH277334   3.101   1.913   3.297  0.5713 -0.3994  0.1878
18640TIP3    H177335   3.186   1.956   3.289  0.4944 -0.1533  0.6228
18640TIP3    H277336   3.116   1.824   3.266  1.3433 -0.7889  1.5639
18641TIP3   OH277337   2.622   3.701   3.717 -0.0863 -0.1208  0.1637
18641TIP3    H177338   2.613   3.780   3.770 -0.1402  0.7299 -1.0847
18641TIP3    H277339   2.534   3.663   3.715  0.2918 -1.2526  2.2772
18642TIP3   OH277340   1.524   3.470   5.689  0.0524 -0.1821  0.6370
18642TIP3    H177341   1.509   3.404   5.757 -1.0047 -1.6148 -0.8978
18642TIP3    H277342   1.452   3.458   5.628  1.0842  0.9064 -0.8657
18643TIP3   OH277343   5.213   1.476  14.167  0.1213 -0.1999  0.1944
18643TIP3    H177344   5.246   1.548  14.112  1.0931 -0.0259  0.9916
18643TIP3    H277345   5.203   1.515  14.254  2.4009 -1.4491  1.0933
18644TIP3   OH277346   2.687   0.490   3.671 -0.0879  0.3815  0.5030
18644TIP3    H177347   2.604   0.537   3.668  0.3569  1.1422 -0.5609
18644TIP3    H277348   2.753   0.555   3.648  0.5296 -0.7948 -1.3105
18645TIP3   OH277349   1.053   1.388  10.797  0.7761  0.1174 -0.0136
18645TIP3    H177350   1.044   1.476  10.834 -0.2794 -0.4912  1.3095
18645TIP3    H277351   0.965   1.351  10.803  1.1804 -0.9896 -0.6324
18646TIP3   OH277352   1.386   6.574  13.866 -0.0628  0.7106  0.1842
18646TIP3    H177353   1.465   6.549  13.914  0.2542  0.8096 -0.2734
18646TIP3    H277354   1.413   6.573  13.774 -1.1624 -1.3344 -0.1622
18647TIP3   OH277355   1.619   3.703   4.642 -0.1190  0.1997 -0.1658
18647TIP3    H177356   1.596   3.676   4.553  0.7532 -0.9767 -0.0549
18647TIP3    H277357   1.692   3.646   4.667 -1.1987 -0.4331  1.8059
18648TIP3   OH277358   0.327   1.284   4.899  0.1638 -0.2156  0.4492
18648TIP3    H177359   0.317   1.366   4.850  0.5749 -0.3713  0.0998
18648TIP3    H277360   0.297   1.216   4.838 -0.9801 -0.2553  1.0305
18649TIP3   OH277361   0.511   6.268  12.176 -0.1172 -0.4679 -0.0395
18649TIP3    H177362   0.482   6.312  12.095 -0.2521 -0.7219 -0.1318
18649TIP3    H277363   0.599   6.237  12.156 -0.5620 -1.5033 -0.4846
18650TIP3   OH277364   0.714   0.901  14.113 -0.2130 -0.4091 -0.2421
18650TIP3    H177365   0.681   0.881  14.026 -1.0444 -2.0083  0.4089
18650TIP3    H277366   0.648   0.959  14.152 -0.3821 -0.5750 -0.2841
18651TIP3   OH277367   2.362   6.550  17.361  0.6426  0.1041 -0.0548
18651TIP3    H177368   2.421   6.570  17.434 -0.8277  2.0743  0.6941
18651TIP3    H277369   2.334   6.636  17.328  0.4460 -0.7570 -2.2726
18652TIP3   OH277370   5.343   4.605  14.138 -0.6830 -1.2434  0.1208
18652TIP3    H177371   5.431   4.600  14.102 -0.5396 -0.1748  0.2849
18652TIP3    H277372   5.285   4.591  14.063 -0.3841  0.7917 -0.5632
18653TIP3   OH277373   6.429   2.029   2.067  0.0856 -0.2946  0.0413
18653TIP3    H177374   6.443   2.062   1.978 -0.7480 -1.2758 -0.4764
18653TIP3    H277375   6.381   2.098   2.111  1.7334  0.8042  0.1854
18654TIP3   OH277376   6.079   0.073  16.785 -0.2009  0.4161 -0.4584
18654TIP3    H177377   5.999   0.123  16.768 -0.4046 -0.1977 -1.4265
18654TIP3    H277378   6.063  -0.012  16.744  0.1554 -0.4373  1.1000
18655TIP3   OH277379   0.740   2.544   4.954 -0.1157  0.4477  0.0306
18655TIP3    H177380   0.750   2.627   5.001 -1.9298  0.1395  1.0526
18655TIP3    H277381   0.757   2.477   5.019  1.5271 -0.0222 -0.8411
18656TIP3   OH277382   3.601   5.328  11.341 -0.2143  0.0843  0.4503
18656TIP3    H177383   3.668   5.265  11.368 -1.1350 -1.7776 -1.3477
18656TIP3    H277384   3.555   5.350  11.422  0.2157 -1.4735  1.1494
18657TIP3   OH277385   2.338   2.128  14.306  0.0373 -0.3940 -0.0288
18657TIP3    H177386   2.298   2.067  14.245 -1.3967  0.8464 -0.3744
18657TIP3    H277387   2.268   2.153  14.365  1.1464 -0.7447  1.4915
18658TIP3   OH277388   6.487   6.067  13.422 -0.3409  0.1589  0.0244
18658TIP3    H177389   6.544   6.012  13.476 -0.0285 -0.4279 -0.8898
18658TIP3    H277390   6.502   6.156  13.455  1.6037  0.1037 -0.6050
18659TIP3   OH277391   0.648   0.473  13.962 -0.3751 -0.1231  0.0686
18659TIP3    H177392   0.672   0.566  13.967  1.1989 -0.4340 -1.0612
18659TIP3    H277393   0.647   0.444  14.053 -0.3276  0.8535  0.3956
18660TIP3   OH277394   6.585   6.490  15.947  0.2341  0.6513 -0.0528
18660TIP3    H177395   6.653   6.525  16.003 -0.5281  1.0775  0.6202
18660TIP3    H277396   6.540   6.424  16.000 -0.0918  0.6062 -0.3706
18661TIP3   OH277397   0.196   0.392  16.824  0.0623 -0.3226  0.2222
18661TIP3    H177398   0.221   0.325  16.887  0.1914  0.1157  0.6511
18661TIP3    H277399   0.244   0.470  16.853  0.5623 -0.2563 -0.7533
18662TIP3   OH277400   1.013   5.404  12.716 -0.2251 -0.2299 -0.5460
18662TIP3    H177401   1.094   5.369  12.752  0.3179  1.9264  0.5158
18662TIP3    H277402   0.948   5.392  12.785 -0.1498  0.4155 -0.3601
18663TIP3   OH277403   6.603   2.581  16.208 -0.3143  0.0094 -0.2820
18663TIP3    H177404   6.592   2.518  16.279 -1.9127  0.9741  0.3737
18663TIP3    H277405   6.525   2.636  16.212  0.7213  1.6350 -1.2541
18664TIP3   OH277406   6.535   1.363   3.734 -0.0728  0.2814 -0.0881
18664TIP3    H177407   6.442   1.384   3.728 -0.2653 -0.0140  1.4643
18664TIP3    H277408   6.562   1.398   3.819  0.7210 -1.4763  0.4423
18665TIP3   OH277409   3.617   4.296   1.810 -0.6080  0.4482 -0.2617
18665TIP3    H177410   3.669   4.320   1.733  0.4739 -1.1872 -0.0814
18665TIP3    H277411   3.610   4.201   1.805 -2.0095  0.4656  0.7508
18666TIP3   OH277412   5.018   1.293  12.091 -0.0829  0.1343 -0.6468
18666TIP3    H177413   4.997   1.261  12.179 -2.2482  2.3908 -0.2393
18666TIP3    H277414   5.057   1.218  12.047 -1.8193 -2.0106  1.2433
18667TIP3   OH277415   3.493   4.482  16.160  0.2697 -0.6214  0.3182
18667TIP3    H177416   3.485   4.387  16.153 -0.2003 -0.6536  1.1559
18667TIP3    H277417   3.427   4.507  16.225 -1.5579  0.5996 -1.8644
18668TIP3   OH277418   3.688   0.465  13.681 -0.0595 -0.1721  0.8222
18668TIP3    H177419   3.715   0.543  13.632  0.6250 -0.5864  0.5261
18668TIP3    H277420   3.740   0.468  13.761  2.3007 -1.9129 -0.5346
18669TIP3   OH277421   5.496   6.452   5.098  0.4065 -0.7561 -0.1319
18669TIP3    H177422   5.538   6.430   5.181  0.6687 -0.0528 -0.0772
18669TIP3    H277423   5.566   6.449   5.034  0.9667  2.1552  0.2276
18670TIP3   OH277424   5.045   0.617   0.745 -0.1257 -0.3916 -0.4070
18670TIP3    H177425   5.002   0.692   0.703 -0.7635 -0.0545  0.8085
18670TIP3    H277426   4.990   0.542   0.722  0.1677 -0.4060 -1.1033
18671TIP3   OH277427   1.684   4.021  16.005 -0.0722  0.6153  0.3280
18671TIP3    H177428   1.641   4.090  16.055  0.0882  0.1588  1.1063
18671TIP3    H277429   1.700   3.951  16.068  1.6041  0.6785  0.0328
18672TIP3   OH277430   5.697   1.775   4.942  0.1180 -0.0210 -0.1184
18672TIP3    H177431   5.729   1.813   5.024  2.3000  0.2452 -1.0170
18672TIP3    H277432   5.607   1.808   4.934  0.5103  1.5198  1.2108
18673TIP3   OH277433   2.309   0.180   3.401  0.3667 -0.6045  0.1841
18673TIP3    H177434   2.214   0.177   3.411  0.3841  0.9134  1.0235
18673TIP3    H277435   2.324   0.229   3.321  0.4320  1.9250  1.6481
18674TIP3   OH277436   0.428   2.422   5.658  0.0895  0.0382  0.1134
18674TIP3    H177437   0.443   2.359   5.728 -2.3576 -0.1850  0.5167
18674TIP3    H277438   0.427   2.507   5.701  2.6377  0.3689 -0.3235
18675TIP3   OH277439   4.889   4.258   2.821  0.3971  0.2893 -0.7843
18675TIP3    H177440   4.942   4.200   2.875  0.6531  0.1032 -1.2278
18675TIP3    H277441   4.803   4.257   2.862  0.5232 -0.0407 -0.5213
18676TIP3   OH277442   0.201   2.402  15.031  0.4259 -0.6838  0.3080
18676TIP3    H177443   0.159   2.422  14.947  2.0643 -0.3905 -0.4840
18676TIP3    H277444   0.161   2.320  15.059 -1.9433  0.4760  0.5217
18677TIP3   OH277445   1.544   3.992  13.864  0.0216  0.4145 -0.3289
18677TIP3    H177446   1.611   4.044  13.819 -0.6729  0.2745 -1.5472
18677TIP3    H277447   1.498   3.946  13.794 -2.1496  1.4293  0.3569
18678TIP3   OH277448   1.552   1.392   3.495  0.2368  0.2269  0.1541
18678TIP3    H177449   1.470   1.404   3.544  0.1139  1.1350 -0.2466
18678TIP3    H277450   1.614   1.451   3.538  0.2427  0.7163 -0.5204
18679TIP3   OH277451   5.972   1.784   1.467  0.3595 -0.5010  0.2772
18679TIP3    H177452   6.023   1.824   1.397 -1.8167  2.3310  0.1442
18679TIP3    H277453   5.902   1.736   1.423  1.0200 -1.7032  0.5021
18680TIP3   OH277454   6.514   5.707   1.015  0.5021 -0.3645 -0.0391
18680TIP3    H177455   6.590   5.720   1.072 -0.2124  0.4492  0.7524
18680TIP3    H277456   6.444   5.757   1.057 -1.0368 -2.7058  0.3489
18681TIP3   OH277457   5.959   6.176  15.512 -0.2823  0.3976  0.0222
18681TIP3    H177458   5.901   6.240  15.553  1.1138  1.9976 -0.4366
18681TIP3    H277459   6.046   6.215  15.515 -0.0140  0.6529 -4.3242
18682TIP3   OH277460   5.599   3.008  13.721 -0.3722 -0.4644  0.0035
18682TIP3    H177461   5.665   3.015  13.652 -0.7732  3.9180 -0.2005
18682TIP3    H277462   5.516   3.024  13.676 -0.8753  0.2456  1.1373
18683TIP3   OH277463   1.188   0.176   4.728 -0.2487 -0.1435  0.3872
18683TIP3    H177464   1.276   0.211   4.736 -0.6967  0.9559  0.5886
18683TIP3    H277465   1.201   0.081   4.719  0.9623  0.0454 -0.0064
18684TIP3   OH277466   1.511   4.219  11.928 -0.1687 -0.6238 -0.3316
18684TIP3    H177467   1.546   4.174  11.851 -0.5965 -3.9391  1.2359
18684TIP3    H277468   1.587   4.233  11.984 -0.4630 -3.8587  1.1586
18685TIP3   OH277469   0.950   5.804  14.364 -0.4044 -0.5880  0.2875
18685TIP3    H177470   0.973   5.849  14.446  0.1095 -1.7745  0.8247
18685TIP3    H277471   1.029   5.810  14.311 -0.6919  0.0589 -0.0767
18686TIP3   OH277472   6.535   2.975   3.951 -0.3668  0.5608 -0.5788
18686TIP3    H177473   6.572   2.929   3.876  0.4886  0.9475 -0.4038
18686TIP3    H277474   6.545   2.914   4.024  2.1698  1.5416 -0.0176
18687TIP3   OH277475   2.532   5.916   3.821  0.2617 -0.1901  0.5291
18687TIP3    H177476   2.454   5.866   3.847  0.7984 -1.3377 -0.0082
18687TIP3    H277477   2.503   5.968   3.745 -0.6222  1.2791  1.7944
18688TIP3   OH277478   5.847   1.389  15.826 -0.0474 -0.4567  0.3980
18688TIP3    H177479   5.830   1.346  15.910 -1.0514  1.0676  1.0231
18688TIP3    H277480   5.766   1.378  15.777 -0.5618  1.1915  0.8158
18689TIP3   OH277481   0.392   1.807  10.951 -0.2899 -0.6617 -0.0167
18689TIP3    H177482   0.436   1.753  11.016  1.3935  0.6810  0.0481
18689TIP3    H277483   0.435   1.893  10.958 -0.0323 -0.4480 -2.8503
18690TIP3   OH277484   0.427   5.145   5.571  0.1534 -0.0063 -0.1666
18690TIP3    H177485   0.377   5.207   5.626 -1.4203  0.0530 -1.5716
18690TIP3    H277486   0.443   5.070   5.628  0.6188  0.9981  1.0648
18691TIP3   OH277487   5.864   0.214  14.983 -0.9293 -0.0061  0.3522
18691TIP3    H177488   5.838   0.124  15.004 -1.4615  0.1692  0.4454
18691TIP3    H277489   5.783   0.264  14.986 -0.7919  0.2988 -0.6949
18692TIP3   OH277490   3.498   0.245   5.306  0.2412  0.5588  0.2231
18692TIP3    H177491   3.433   0.287   5.362 -0.7595  0.2021 -0.6289
18692TIP3    H277492   3.582   0.280   5.336 -0.3550  1.2188  1.1913
18693TIP3   OH277493   5.798   2.398  13.872 -0.2126  0.2244  0.3901
18693TIP3    H177494   5.752   2.339  13.812  0.9649  1.1248 -1.4952
18693TIP3    H277495   5.736   2.469  13.889 -1.0942 -0.7676  1.4968
18694TIP3   OH277496   6.267   6.355   0.841  0.3832 -0.2876 -0.1913
18694TIP3    H177497   6.198   6.392   0.786  0.9256  1.6777  0.3901
18694TIP3    H277498   6.224   6.283   0.888 -1.2039  0.7012 -0.0531
18695TIP3   OH277499   0.307   0.131  11.769 -0.1351 -0.2899  0.8219
18695TIP3    H177500   0.364   0.118  11.693  0.1542 -0.8466  1.1277
18695TIP3    H277501   0.367   0.135  11.843 -0.5380 -2.0324  1.2912
18696TIP3   OH277502   1.064   3.805   1.791 -0.2664  0.6314 -0.5954
18696TIP3    H177503   1.110   3.861   1.729  1.2556  0.2281  0.1308
18696TIP3    H277504   1.011   3.866   1.844 -1.6041  0.9720 -2.2561
18697TIP3   OH277505   5.173   2.465   4.332 -0.3640  0.0551 -0.0463
18697TIP3    H177506   5.112   2.396   4.303 -0.3064 -0.6970  1.5354
18697TIP3    H277507   5.228   2.480   4.256 -0.5257 -1.5022 -0.5207
18698TIP3   OH277508   6.329   0.389  13.450 -0.4307  0.5415 -0.1149
18698TIP3    H177509   6.240   0.418  13.470 -0.2307  2.3569 -1.6020
18698TIP3    H277510   6.323   0.352  13.362  0.3971  1.4536 -0.5790
18699TIP3   OH277511   6.627   6.703  14.031 -0.0953  0.3953  0.2335
18699TIP3    H177512   6.570   6.711  13.955 -2.2650 -0.2159  1.7068
18699TIP3    H277513   6.647   6.609  14.036  0.2443  0.4694  0.2773
18700TIP3   OH277514   3.100   4.958   2.826  0.2274 -0.0953 -0.2015
18700TIP3    H177515   3.123   4.931   2.915  0.5513  0.7836 -0.0178
18700TIP3    H277516   3.033   5.025   2.838  2.5029  2.4098 -0.4330
18701TIP3   OH277517   5.069   5.773  11.940 -0.7694 -0.5812 -0.3875
18701TIP3    H177518   5.052   5.798  11.849 -1.6668  0.8012  0.1217
18701TIP3    H277519   5.007   5.825  11.991 -1.5134 -2.6258  0.9273
18702TIP3   OH277520   5.637   6.240  13.230 -0.1474  0.4400 -0.1514
18702TIP3    H177521   5.629   6.263  13.322 -1.1855  0.0932 -0.1390
18702TIP3    H277522   5.546   6.232  13.200  0.0100 -4.1969 -0.0087
18703TIP3   OH277523   2.596   6.685  17.502  0.0245 -0.1733 -0.1720
18703TIP3    H177524   2.621   6.599  17.536 -1.7613  0.0230  1.8014
18703TIP3    H277525   2.648   6.747  17.553 -1.2888  0.0382  0.9588
18704TIP3   OH277526   1.543   1.983  13.320  0.2341  0.0370 -0.0280
18704TIP3    H177527   1.512   1.964  13.409 -0.9599 -0.6207 -0.5609
18704TIP3    H277528   1.508   1.911  13.267  0.7154  0.5627 -1.0855
18705TIP3   OH277529   4.931   4.126   5.267 -0.0629  0.8719  0.6399
18705TIP3    H177530   4.928   4.190   5.196 -0.0820 -2.1276 -2.3233
18705TIP3    H277531   5.011   4.076   5.251 -0.4212 -0.3634  2.3656
18706TIP3   OH277532   2.431   1.294  16.291  0.2822  0.5801  0.1179
18706TIP3    H177533   2.485   1.216  16.292  1.9261  1.6663 -0.1377
18706TIP3    H277534   2.349   1.266  16.251  1.5453 -0.5873 -1.8046
18707TIP3   OH277535   2.327   0.964  15.271  0.6218  0.4611 -0.0236
18707TIP3    H177536   2.307   1.048  15.311  0.4790  0.0448  0.7931
18707TIP3    H277537   2.395   0.984  15.207  1.3532  1.0416  0.9051
18708TIP3   OH277538   4.293   0.578  17.335  0.0189  0.3487 -0.5245
18708TIP3    H177539   4.353   0.552  17.265  1.0070  0.8757  0.0930
18708TIP3    H277540   4.233   0.640  17.294 -0.1918 -0.2835 -1.1843
18709TIP3   OH277541   2.339   2.266  11.846  0.0133  0.0675 -0.1776
18709TIP3    H177542   2.405   2.212  11.803  1.1665  0.0489  1.5143
18709TIP3    H277543   2.348   2.352  11.805 -1.8980 -0.8986 -2.9559
18710TIP3   OH277544   1.647   4.084  15.004 -0.1913 -0.1133 -0.0317
18710TIP3    H177545   1.587   4.057  14.935 -1.5823 -0.7474  1.3461
18710TIP3    H277546   1.692   4.003  15.030 -1.0109 -0.2784  0.9842
18711TIP3   OH277547   4.636   2.957   7.016 -0.0317 -0.4464  0.4468
18711TIP3    H177548   4.693   2.978   6.942 -0.5239 -1.3000 -0.2044
18711TIP3    H277549   4.576   3.031   7.023 -0.4191 -0.6503 -0.4752
18712TIP3   OH277550   4.512   0.278  12.568 -0.1121  0.3577 -0.3464
18712TIP3    H177551   4.472   0.339  12.630 -0.2026  0.0785 -0.1291
18712TIP3    H277552   4.599   0.314  12.552 -0.2416  0.6600 -0.3832
18713TIP3   OH277553   2.337   4.006  11.536 -0.4389 -0.1597  0.1195
18713TIP3    H177554   2.430   4.020  11.514 -0.2237 -1.3598  0.2178
18713TIP3    H277555   2.334   4.013  11.631 -1.1682  3.8245 -0.0061
18714TIP3   OH277556   3.414   3.404   4.129  0.3113  0.2494  0.7798
18714TIP3    H177557   3.389   3.494   4.149  0.7448  0.4999  0.2227
18714TIP3    H277558   3.359   3.380   4.054 -1.4433 -0.7458  2.2893
18715TIP3   OH277559   3.163   1.754  14.061 -0.3303 -0.1068 -0.5068
18715TIP3    H177560   3.132   1.760  13.971  0.2489 -1.6989 -0.8457
18715TIP3    H277561   3.220   1.677  14.062  1.0898  0.8945  0.8185
18716TIP3   OH277562   0.984   2.209  12.398  0.2541 -0.1573  0.3918
18716TIP3    H177563   1.035   2.178  12.474 -0.8409  0.1526  1.2818
18716TIP3    H277564   0.934   2.132  12.371 -0.5249  0.1244  0.9835
18717TIP3   OH277565   6.082   2.086  13.584  0.2115 -0.0517  0.1499
18717TIP3    H177566   6.027   2.079  13.662 -0.9454 -1.5066 -0.7731
18717TIP3    H277567   6.134   2.006  13.583  1.5519  0.7646  0.3568
18718TIP3   OH277568   2.113   4.279  13.068  0.6874  0.2632 -0.2094
18718TIP3    H177569   2.053   4.324  13.009  0.0660 -0.7679 -0.3822
18718TIP3    H277570   2.191   4.334  13.069  0.2859  0.8716 -1.1113
18719TIP3   OH277571   6.610   4.949  11.985  0.0545 -0.3656 -0.1904
18719TIP3    H177572   6.552   5.001  11.931 -0.0306 -0.6620 -0.3881
18719TIP3    H277573   6.614   4.996  12.069  1.3782  0.9098 -0.9236
18720TIP3   OH277574   1.544   5.533  13.773  0.0166  0.8209  0.1344
18720TIP3    H177575   1.548   5.545  13.678  2.6623  0.2317  0.1094
18720TIP3    H277576   1.584   5.612  13.809  1.5695 -0.1367  0.6011
18721TIP3   OH277577   0.488   4.783  13.776 -0.2612  0.5085  0.2617
18721TIP3    H177578   0.460   4.847  13.842 -1.9279  0.6857 -0.5444
18721TIP3    H277579   0.530   4.713  13.826 -0.0132  1.3985  1.3370
18722TIP3   OH277580   3.277   3.234   2.479  0.2317 -0.1483  0.5771
18722TIP3    H177581   3.217   3.166   2.509  0.5917 -1.6505 -1.7950
18722TIP3    H277582   3.360   3.213   2.523  0.3291 -1.2695 -0.0925
18723TIP3   OH277583   0.466   2.815   3.404 -0.0363 -0.4639 -0.6675
18723TIP3    H177584   0.534   2.871   3.366  1.0661 -0.4361  1.2126
18723TIP3    H277585   0.405   2.877   3.444 -1.3543 -0.4792 -2.5116
18724TIP3   OH277586   5.118   1.409  11.833  0.3143 -0.5103  0.7033
18724TIP3    H177587   5.060   1.358  11.890 -0.8261  0.4343  0.4432
18724TIP3    H277588   5.119   1.496  11.873 -0.3303  0.1059 -0.5853
18725TIP3   OH277589   2.240   3.232  12.258  0.1592 -0.5278  0.1923
18725TIP3    H177590   2.152   3.266  12.273  0.1356 -0.5713  0.1549
18725TIP3    H277591   2.263   3.187  12.339  0.0577 -0.7080  0.1201
18726TIP3   OH277592   4.838   2.072  14.338 -0.0531 -0.1167 -0.7064
18726TIP3    H177593   4.890   2.150  14.358  0.8623 -0.5031 -1.5174
18726TIP3    H277594   4.772   2.103  14.275 -0.9649  0.4099  0.4513
18727TIP3   OH277595   0.318   4.921  17.355  0.4712 -0.4925 -0.1600
18727TIP3    H177596   0.364   4.963  17.282  3.0469  1.1607  2.1864
18727TIP3    H277597   0.226   4.944  17.342  1.0440  0.9981 -2.0948
18728TIP3   OH277598   4.372   6.672  16.722 -0.8346  0.1462  0.6337
18728TIP3    H177599   4.464   6.662  16.745 -0.9501  1.3159  1.7320
18728TIP3    H277600   4.352   6.597  16.667  1.4594  1.1831 -1.8222
18729TIP3   OH277601   1.446   3.148   0.557  0.3763  0.0125  0.0267
18729TIP3    H177602   1.372   3.132   0.499  1.3037  1.4134 -1.6272
18729TIP3    H277603   1.406   3.183   0.637 -0.7884  0.2053 -0.6155
18730TIP3   OH277604   1.125   4.335  13.386  0.1207 -0.2647  0.4540
18730TIP3    H177605   1.090   4.306  13.470  1.4483 -0.6367  0.9150
18730TIP3    H277606   1.097   4.269  13.323 -2.7288  1.1303  0.1245
18731TIP3   OH277607   3.350   2.725   6.619  0.3598  0.2145 -0.5340
18731TIP3    H177608   3.362   2.668   6.695 -1.4676 -3.7451 -2.8847
18731TIP3    H277609   3.413   2.694   6.555  0.4811  2.0783 -1.3892
18732TIP3   OH277610   6.617   2.638  17.036  0.6467 -0.7387  0.1114
18732TIP3    H177611   6.571   2.704  17.088  0.3694 -0.1321 -0.8850
18732TIP3    H277612   6.613   2.559  17.090  1.0794  0.0654  1.3776
18733TIP3   OH277613   1.711   1.166  16.651 -0.3043  0.1797  0.0653
18733TIP3    H177614   1.804   1.183  16.635 -0.3059  0.2666  0.1423
18733TIP3    H277615   1.705   1.158  16.746 -0.1840 -1.0009 -0.0228
18734TIP3   OH277616   1.638   5.383   4.432  0.1080 -0.0047  0.6571
18734TIP3    H177617   1.688   5.459   4.462  1.7723 -1.8606  3.0558
18734TIP3    H277618   1.563   5.378   4.491  0.9139 -1.0786  1.6559
18735TIP3   OH277619   6.671   6.332  12.893 -0.3129  0.3906 -0.5221
18735TIP3    H177620   6.738   6.355  12.828  0.6438  0.2635  0.3888
18735TIP3    H277621   6.629   6.415  12.915  1.7752  1.0586  1.2762
18736TIP3   OH277622   1.783   2.655  13.850 -0.3385  0.0997  0.2292
18736TIP3    H177623   1.757   2.718  13.783  0.3821 -0.8751 -1.0281
18736TIP3    H277624   1.877   2.645  13.838 -0.2326 -0.2384  1.2719
18737TIP3   OH277625   1.637   0.348   4.107  0.2465  0.1757 -0.3953
18737TIP3    H177626   1.562   0.400   4.138 -1.2235 -2.4040  0.6614
18737TIP3    H277627   1.649   0.281   4.174  1.2974 -1.5541 -2.2165
18738TIP3   OH277628   0.326   4.000  16.037 -0.0408  0.3544 -0.0023
18738TIP3    H177629   0.393   3.998  16.105  0.1346  0.0080 -0.1850
18738TIP3    H277630   0.253   4.047  16.077  0.1692  0.3980  0.3285
18739TIP3   OH277631   1.474   2.978   5.095 -0.1411  0.4251 -0.4343
18739TIP3    H177632   1.483   3.002   5.187 -1.4936  0.6816 -0.3517
18739TIP3    H277633   1.526   2.897   5.086  0.6028  0.7948  0.3626
18740TIP3   OH277634   5.240   3.644  13.485  0.3076 -0.0754  0.2475
18740TIP3    H177635   5.179   3.714  13.463 -0.4724 -0.6417  0.5427
18740TIP3    H277636   5.253   3.652  13.580  1.2635  0.4836  0.0766
18741TIP3   OH277637   0.967   4.566   3.171 -0.5283 -0.4212 -0.0884
18741TIP3    H177638   1.048   4.527   3.139 -1.2909 -0.9972 -1.3896
18741TIP3    H277639   0.993   4.651   3.207  0.8031 -1.0816  0.5586
18742TIP3   OH277640   4.533   5.752   1.676  0.0147 -0.3811  0.3832
18742TIP3    H177641   4.505   5.711   1.594 -0.3800  1.9585 -0.7333
18742TIP3    H277642   4.475   5.715   1.742 -2.4761  0.6838 -1.0832
18743TIP3   OH277643   4.793   0.657  15.175  0.0737  0.2647  0.2001
18743TIP3    H177644   4.844   0.576  15.166  0.1045  0.2287  0.7038
18743TIP3    H277645   4.822   0.711  15.101  0.4809  0.0454  0.1958
18744TIP3   OH277646   1.031   1.529  11.126 -0.5909  0.3668 -0.0048
18744TIP3    H177647   1.039   1.439  11.094 -0.3277  0.4002 -0.0338
18744TIP3    H277648   1.071   1.582  11.057 -1.1802  0.5516 -0.2162
18745TIP3   OH277649   5.425   1.106   4.024  0.7113  0.2601 -0.1704
18745TIP3    H177650   5.479   1.119   4.102  0.3794  0.2536  0.0654
18745TIP3    H277651   5.338   1.084   4.059  0.3859  0.9391 -0.5353
18746TIP3   OH277652   5.765   4.228   1.734  0.4442  0.3298 -0.8003
18746TIP3    H177653   5.827   4.278   1.681  1.4334 -1.6554 -1.6388
18746TIP3    H277654   5.732   4.160   1.674  0.2027 -0.8571  0.6242
18747TIP3   OH277655   3.839   0.907  12.390 -0.4934 -0.1658  0.4007
18747TIP3    H177656   3.818   0.987  12.439 -2.1336 -0.4071  0.1621
18747TIP3    H277657   3.928   0.885  12.416 -0.2090  1.4495  0.8744
18748TIP3   OH277658   5.955   0.500   3.661  0.1999  0.0535  0.4771
18748TIP3    H177659   6.036   0.499   3.610 -1.0238 -0.3753 -1.5599
18748TIP3    H277660   5.919   0.587   3.648 -1.3718 -0.8187 -1.5967
18749TIP3   OH277661   0.945   5.770  16.126  0.0765  0.6194 -0.0829
18749TIP3    H177662   0.853   5.777  16.100 -0.2460  0.4053  0.9595
18749TIP3    H277663   0.989   5.733  16.049 -1.0135 -0.8954 -0.0180
18750TIP3   OH277664   2.318   0.933   2.133  0.4720  0.0153  0.3237
18750TIP3    H177665   2.327   0.923   2.038 -0.8700 -2.0121  0.3763
18750TIP3    H277666   2.313   0.844   2.167  1.4460  0.6809  2.3980
18751TIP3   OH277667   4.213   1.225   5.420 -0.1773 -0.1783 -0.4327
18751TIP3    H177668   4.118   1.231   5.416 -0.1347  0.7156 -0.1149
18751TIP3    H277669   4.234   1.222   5.513 -0.1000 -4.2652 -0.3811
18752TIP3   OH277670   0.321   4.015   4.277 -0.1474 -0.1868 -0.9000
18752TIP3    H177671   0.416   4.007   4.279  0.0419  1.5566 -1.2730
18752TIP3    H277672   0.299   4.018   4.184 -0.4992  0.0597 -0.8122
18753TIP3   OH277673   1.280   5.978  12.296 -0.3149 -0.1869  0.3237
18753TIP3    H177674   1.254   6.037  12.366  3.0511  2.3878 -0.3651
18753TIP3    H277675   1.229   6.006  12.220 -0.3064  0.4120  0.5372
18754TIP3   OH277676   2.299   4.832   3.950  0.0424  0.7846  0.2026
18754TIP3    H177677   2.384   4.853   3.989  0.3431  2.4144 -1.2175
18754TIP3    H277678   2.249   4.913   3.957 -1.5256 -0.2254  1.2436
18755TIP3   OH277679   4.410   2.580   3.076  0.2588  0.3215 -0.9619
18755TIP3    H177680   4.418   2.495   3.033  2.5793  0.0753 -0.1595
18755TIP3    H277681   4.438   2.643   3.011  1.4870  0.1614 -0.6128
18756TIP3   OH277682   0.835   1.456   2.982 -0.5868 -0.0364  0.5262
18756TIP3    H177683   0.912   1.510   2.964  0.4781 -1.6142  0.1021
18756TIP3    H277684   0.852   1.418   3.069 -0.4407 -1.0891  0.0506
18757TIP3   OH277685   4.216   1.510  14.819  0.3873  0.1671 -0.0911
18757TIP3    H177686   4.218   1.606  14.814  0.7237  0.2189  0.9087
18757TIP3    H277687   4.191   1.482  14.731  0.8877  1.1499 -0.5574
18758TIP3   OH277688   1.262   5.208   2.583 -0.3317 -0.1956  0.1214
18758TIP3    H177689   1.254   5.141   2.515 -0.5973  1.5557 -1.6668
18758TIP3    H277690   1.356   5.215   2.600 -0.3510 -1.4956  0.8750
18759TIP3   OH277691   1.758   1.243  13.614 -0.7983 -0.5146 -0.4815
18759TIP3    H177692   1.851   1.242  13.637 -0.9884  1.5016  0.5883
18759TIP3    H277693   1.716   1.192  13.683 -0.6554  0.0399  0.0276
18760TIP3   OH277694   0.455   3.973   6.679 -0.0766  0.2159 -0.7423
18760TIP3    H177695   0.391   3.978   6.750 -1.0930  0.1386 -1.6349
18760TIP3    H277696   0.501   4.057   6.682  0.8265 -0.2984  0.8445
18761TIP3   OH277697   0.607   6.697   1.141  0.2727  0.1168  0.0075
18761TIP3    H177698   0.537   6.720   1.080  0.0580  0.9868  0.5748
18761TIP3    H277699   0.592   6.752   1.217  1.9774  0.8252 -0.1251
18762TIP3   OH277700   5.180   3.732   5.846 -0.2746 -0.8372  0.4667
18762TIP3    H177701   5.119   3.678   5.796 -1.1767  0.7104 -0.1767
18762TIP3    H277702   5.179   3.817   5.802  1.1829 -0.3017  1.3710
18763TIP3   OH277703   1.682   4.918  16.015  0.6622 -0.0590 -0.3690
18763TIP3    H177704   1.636   5.001  16.025  1.7101  0.3838  1.0183
18763TIP3    H277705   1.774   4.939  16.031  0.7599 -1.7548  1.8034
18764TIP3   OH277706   0.262   0.252   2.417 -0.3011 -0.4344  0.6342
18764TIP3    H177707   0.215   0.170   2.403 -0.0797 -0.4874  0.1906
18764TIP3    H277708   0.213   0.317   2.366 -1.0582 -0.0789  1.7705
18765TIP3   OH277709   6.056   5.070  14.409  0.3070 -0.1293 -0.9548
18765TIP3    H177710   6.116   5.017  14.462 -0.2604  0.6794  0.5467
18765TIP3    H277711   6.088   5.060  14.320  1.5596 -1.1922 -0.4193
18766TIP3   OH277712   5.923   5.855  13.721  0.1576  0.0974 -0.2611
18766TIP3    H177713   5.853   5.915  13.697 -1.3464 -1.7600 -0.8156
18766TIP3    H277714   5.982   5.856  13.645 -1.2279 -0.9869 -1.4243
18767TIP3   OH277715   1.681   5.795   4.568  0.0546 -0.1756 -0.1336
18767TIP3    H177716   1.718   5.711   4.595 -1.6849 -0.7345  0.6498
18767TIP3    H277717   1.592   5.774   4.537  0.1185  1.1823 -1.3817
18768TIP3   OH277718   4.971   0.378   6.790 -0.3832 -0.1359  0.3148
18768TIP3    H177719   4.926   0.458   6.764 -0.6919  0.1772  1.7701
18768TIP3    H277720   5.039   0.407   6.851  0.3878 -0.8488 -0.1691
18769TIP3   OH277721   5.249   2.522  12.513 -0.4012 -0.1445  0.4573
18769TIP3    H177722   5.259   2.515  12.608 -0.2830  1.0200  0.5449
18769TIP3    H277723   5.337   2.542  12.481 -0.4422 -0.5188  0.0976
18770TIP3   OH277724   1.490   1.304   4.685  0.2415 -0.1538  0.1246
18770TIP3    H177725   1.582   1.284   4.667  0.6900  1.0859  0.9351
18770TIP3    H277726   1.461   1.354   4.608  0.1150 -0.8863 -0.3138
18771TIP3   OH277727   5.675   0.587   0.228 -0.0070 -0.6765  1.0703
18771TIP3    H177728   5.735   0.521   0.191  0.8887  1.3273 -1.2988
18771TIP3    H277729   5.603   0.592   0.165 -0.3865  0.1351  1.5574
18772TIP3   OH277730   5.426   4.914  14.114 -0.1949 -0.4582 -0.1321
18772TIP3    H177731   5.430   4.965  14.195  0.5827  0.7907 -0.9146
18772TIP3    H277732   5.336   4.924  14.083  0.2020  1.4160 -0.8285
18773TIP3   OH277733   4.897   2.969  15.841 -0.1048 -0.4606 -0.2352
18773TIP3    H177734   4.969   2.985  15.780 -0.4922  0.4119 -0.4741
18773TIP3    H277735   4.941   2.950  15.924  0.4620 -3.0221 -1.0463
18774TIP3   OH277736   2.046   3.871  17.516 -0.5419  0.3127 -0.2982
18774TIP3    H177737   2.002   3.787  17.509  0.3296 -0.0925 -1.2174
18774TIP3    H277738   2.023   3.903  17.603 -0.3545 -1.1812  0.3376
18775TIP3   OH277739   0.517   1.704  16.783 -0.4603 -0.4162 -0.0162
18775TIP3    H177740   0.522   1.615  16.818  0.6941 -0.1675  0.4904
18775TIP3    H277741   0.480   1.755  16.855 -0.8824 -0.4298 -0.2196
18776TIP3   OH277742   4.547   0.415   4.263  0.2645 -0.4742 -0.1036
18776TIP3    H177743   4.633   0.442   4.229  0.6673 -1.3498  0.1935
18776TIP3    H277744   4.564   0.333   4.309 -0.9465 -1.3544 -1.1506
18777TIP3   OH277745   3.200   3.360   1.099 -0.0322  0.1487 -0.3119
18777TIP3    H177746   3.257   3.322   1.166  0.3239  0.4111 -0.4638
18777TIP3    H277747   3.124   3.393   1.148 -0.0993 -0.2834 -0.1219
18778TIP3   OH277748   5.846   5.529   1.200 -0.1523  0.0341  0.1257
18778TIP3    H177749   5.912   5.496   1.262 -0.8345 -0.9936  0.3179
18778TIP3    H277750   5.806   5.603   1.246 -1.3508 -1.3395  1.3688
18779TIP3   OH277751   2.929   5.133  16.459 -0.3557 -0.2686 -0.2949
18779TIP3    H177752   3.013   5.143  16.503  0.0407 -1.4684 -0.7556
18779TIP3    H277753   2.864   5.154  16.527  0.2602 -1.4434  0.6949
18780TIP3   OH277754   5.434   6.611  15.918  0.8503 -0.7009  0.4582
18780TIP3    H177755   5.375   6.543  15.887  1.2191 -0.5466 -0.6625
18780TIP3    H277756   5.434   6.603  16.013 -2.1949  0.3033  0.6684
18781TIP3   OH277757   1.451   3.281   5.911  0.5151  0.4924 -0.1501
18781TIP3    H177758   1.395   3.359   5.906  0.5136  0.4232 -1.6558
18781TIP3    H277759   1.394   3.212   5.942  0.8917  1.3936  2.8290
18782TIP3   OH277760   4.390   4.140  15.048  0.1365 -0.0781 -0.6115
18782TIP3    H177761   4.354   4.163  14.962  0.5024 -0.8693 -0.9880
18782TIP3    H277762   4.476   4.102  15.028  0.7253  0.7945  0.1964
18783TIP3   OH277763   1.916   0.796   4.280  0.4474  0.2956  0.0894
18783TIP3    H177764   1.875   0.721   4.237  0.3956  0.0776  0.5091
18783TIP3    H277765   1.950   0.850   4.209  2.0243 -1.0013 -0.1846
18784TIP3   OH277766   1.906   0.491   2.281 -0.2950  0.7736  0.4785
18784TIP3    H177767   1.816   0.486   2.249 -1.2139  0.1391  2.9489
18784TIP3    H277768   1.960   0.474   2.204 -2.3139 -0.1513 -0.8068
18785TIP3   OH277769   2.534   5.594   4.228 -0.5415 -0.1645 -0.3875
18785TIP3    H177770   2.597   5.579   4.298 -1.8686  0.9646  1.1274
18785TIP3    H277771   2.575   5.661   4.173 -0.1030  0.0188  0.1606
18786TIP3   OH277772   4.633   0.458   1.121  0.0449  0.3762  0.5669
18786TIP3    H177773   4.625   0.495   1.033 -0.5437 -0.0518  0.4311
18786TIP3    H277774   4.618   0.364   1.109 -0.9357  0.4278  1.2294
18787TIP3   OH277775   4.781   1.278  17.354 -0.0915 -0.3668 -0.2111
18787TIP3    H177776   4.715   1.287  17.285  0.9616  3.3797 -0.9920
18787TIP3    H277777   4.836   1.205  17.326 -0.5928  0.1064 -2.6350
18788TIP3   OH277778   5.699   5.591   4.538  0.3658 -0.3169 -0.0912
18788TIP3    H177779   5.713   5.661   4.601  1.1595 -1.5641  1.1897
18788TIP3    H277780   5.787   5.570   4.506  0.0575 -0.2612 -0.9944
18789TIP3   OH277781   3.154   3.873   4.726  0.0823  0.1146 -0.1760
18789TIP3    H177782   3.159   3.952   4.673  2.7555 -0.0489 -0.3214
18789TIP3    H277783   3.221   3.885   4.794  1.1830 -2.2959 -0.7084
18790TIP3   OH277784   1.625   3.710   2.119 -0.4057 -0.2581 -0.1968
18790TIP3    H177785   1.658   3.622   2.140 -0.6435 -0.5145 -0.8807
18790TIP3    H277786   1.688   3.744   2.055 -0.8103 -0.2945 -0.6238
18791TIP3   OH277787   5.033   4.578  12.323 -0.0199  0.1914  0.3795
18791TIP3    H177788   5.022   4.608  12.233  0.5357  2.4372  1.0073
18791TIP3    H277789   4.950   4.537  12.346 -0.1613 -0.4326 -1.1355
18792TIP3   OH277790   3.866   1.185  15.059 -0.0688  0.2089  0.1117
18792TIP3    H177791   3.950   1.163  15.019 -0.8938 -0.9643 -1.0586
18792TIP3    H277792   3.889   1.232  15.139  1.6827  1.6262 -1.1332
18793TIP3   OH277793   3.685   6.195   2.601 -0.0027  0.3033  0.4482
18793TIP3    H177794   3.601   6.230   2.570  0.1386  0.6471  0.4490
18793TIP3    H277795   3.710   6.130   2.536  0.3750  1.1342 -0.2580
18794TIP3   OH277796   4.894   3.545   6.123  0.3018 -0.5732 -0.0730
18794TIP3    H177797   4.917   3.495   6.045 -0.5995 -1.7418  0.3879
18794TIP3    H277798   4.938   3.629   6.111  1.2578 -1.2076 -1.2029
18795TIP3   OH277799   2.562   1.606   3.839 -0.5449  0.5710 -0.8217
18795TIP3    H177800   2.619   1.628   3.912  0.3980 -0.7469 -1.1166
18795TIP3    H277801   2.550   1.511   3.846 -1.7486  0.6650 -1.4479
18796TIP3   OH277802   4.089   2.813  12.666 -0.3889  0.0155  0.0984
18796TIP3    H177803   4.019   2.868  12.701 -2.2256 -0.6632 -2.2426
18796TIP3    H277804   4.073   2.727  12.703 -0.4441 -0.0001  0.0396
18797TIP3   OH277805   1.681   3.433   1.812  0.6832  0.5104  0.0998
18797TIP3    H177806   1.679   3.410   1.905 -0.4028 -0.4803 -0.1482
18797TIP3    H277807   1.595   3.472   1.796  0.9808  0.9522 -0.4222
18798TIP3   OH277808   2.522   0.126   3.920  0.1442 -0.2937  0.2154
18798TIP3    H177809   2.567   0.076   3.852  1.3405 -0.2270  0.9308
18798TIP3    H277810   2.447   0.072   3.944 -0.2188 -0.3785 -1.0391
18799TIP3   OH277811   1.474   1.097   2.218  0.0731  0.3908  0.3153
18799TIP3    H177812   1.437   1.167   2.166  0.3660  0.6040  0.3919
18799TIP3    H277813   1.418   1.091   2.295 -1.0960 -0.7409 -0.5834
18800TIP3   OH277814   4.374   1.253   3.108 -0.7145 -0.0439  0.2434
18800TIP3    H177815   4.432   1.208   3.169 -0.9754 -0.9286 -0.1303
18800TIP3    H277816   4.294   1.269   3.159 -0.2658  0.8855  0.6630
18801TIP3   OH277817   1.946   1.355  16.766 -0.2491 -0.6950 -0.7009
18801TIP3    H177818   1.947   1.347  16.862 -2.4696 -0.5997 -0.6200
18801TIP3    H277819   1.959   1.266  16.734 -0.6778 -0.9128 -0.2793
18802TIP3   OH277820   0.998   4.075  13.651  0.0860  0.9181 -0.5841
18802TIP3    H177821   0.963   4.154  13.693  0.7181  0.8602  0.0748
18802TIP3    H277822   1.085   4.064  13.689  0.0005 -0.1145 -0.6542
18803TIP3   OH277823   2.420   5.648  15.622 -0.1419 -0.3125  0.3984
18803TIP3    H177824   2.389   5.631  15.533  0.3284 -0.7085  0.3056
18803TIP3    H277825   2.344   5.684  15.667  0.1290  1.8375 -0.7096
18804TIP3   OH277826   0.288   5.063   2.760  0.8117  0.6553 -0.0234
18804TIP3    H177827   0.298   5.008   2.683  1.9789 -0.0911  0.6281
18804TIP3    H277828   0.374   5.104   2.771  0.5969  0.9111  0.7576
18805TIP3   OH277829   1.778   5.593   2.267  0.0624 -0.6131 -0.1202
18805TIP3    H177830   1.798   5.658   2.334  0.9946 -0.3073 -0.6714
18805TIP3    H277831   1.834   5.518   2.288  0.8526 -0.2656 -0.9086
18806TIP3   OH277832   4.578   1.617   3.452 -0.0775  0.0027 -0.5882
18806TIP3    H177833   4.523   1.695   3.444 -0.6256 -0.3857 -0.6719
18806TIP3    H277834   4.614   1.603   3.365 -1.4869 -0.9199 -1.0579
18807TIP3   OH277835   5.126   4.148  16.004 -0.3594 -0.2077 -0.3394
18807TIP3    H177836   5.151   4.193  16.085  0.5934  1.0660 -1.2878
18807TIP3    H277837   5.123   4.218  15.939  1.5381 -1.5532 -1.9753
18808TIP3   OH277838   3.534   5.880  15.690  0.1344  0.6967  0.0066
18808TIP3    H177839   3.611   5.832  15.721 -1.0372 -1.3266 -0.0228
18808TIP3    H277840   3.520   5.948  15.756  1.2493  0.3498  0.6303
18809TIP3   OH277841   0.132   1.271   0.169 -0.3898  0.1534  0.1356
18809TIP3    H177842   0.215   1.266   0.216 -0.9146 -1.1437  0.9426
18809TIP3    H277843   0.076   1.326   0.224 -0.6634 -0.4944  0.5032
18810TIP3   OH277844   2.743   4.434   0.345  0.0486  0.1871  0.7267
18810TIP3    H177845   2.706   4.441   0.433  1.0124  0.9900  1.0839
18810TIP3    H277846   2.725   4.344   0.319  0.8756 -0.4710  2.2772
18811TIP3   OH277847   4.603   0.470  16.009  0.0543 -0.3712 -0.0363
18811TIP3    H177848   4.658   0.548  16.018 -0.1781 -0.2702  0.5427
18811TIP3    H277849   4.526   0.489  16.063 -0.8852 -0.2153 -1.3957
18812TIP3   OH277850   2.373   4.382  11.002  0.2550  0.1619 -0.2283
18812TIP3    H177851   2.442   4.436  11.040  0.7768  0.6512 -1.7953
18812TIP3    H277852   2.348   4.429  10.922 -0.9905 -0.6791 -0.3454
18813TIP3   OH277853   1.557   0.524   5.741  0.0270 -0.5685 -0.4111
18813TIP3    H177854   1.472   0.491   5.710  0.0124 -1.0262  0.0951
18813TIP3    H277855   1.558   0.502   5.834  0.6539 -0.4478 -0.3876
18814TIP3   OH277856   1.550   5.050   4.860 -0.0591 -0.2519  0.4755
18814TIP3    H177857   1.493   5.093   4.797 -0.6043 -1.7984 -0.1472
18814TIP3    H277858   1.605   5.120   4.895 -2.0206  1.2170  0.7825
18815TIP3   OH277859   6.132   0.706   3.217 -0.5448 -0.4176 -0.1129
18815TIP3    H177860   6.059   0.675   3.271  0.0973 -3.2736 -0.7432
18815TIP3    H277861   6.118   0.666   3.131  1.0032  0.1155 -0.6514
18816TIP3   OH277862   1.143   0.399   2.947  0.7909  0.1740  0.3159
18816TIP3    H177863   1.223   0.392   2.999  0.1001 -1.3875  1.2080
18816TIP3    H277864   1.082   0.339   2.988 -0.2878  0.0386 -1.4024
18817TIP3   OH277865   5.682   0.439   5.643 -0.3983 -0.0952 -0.3128
18817TIP3    H177866   5.595   0.480   5.647  0.1469  1.1541 -0.7755
18817TIP3    H277867   5.741   0.506   5.678  0.4473 -0.7375 -0.4872
18818TIP3   OH277868   1.771   2.653  14.137 -0.0464  0.1311 -0.4607
18818TIP3    H177869   1.804   2.564  14.153 -1.7647 -0.6433 -1.0067
18818TIP3    H277870   1.810   2.678  14.053 -1.7436 -1.2686 -1.7198
18819TIP3   OH277871   4.377   3.071   4.820 -0.5559  0.3420  0.2518
18819TIP3    H177872   4.405   3.162   4.818  0.2595  0.1039 -2.0689
18819TIP3    H277873   4.449   3.023   4.779  0.3093 -1.7975  3.8013
18820TIP3   OH277874   2.498   1.703   2.213  0.1371  0.2261 -0.3307
18820TIP3    H177875   2.471   1.663   2.296 -0.3608 -1.1927 -1.1388
18820TIP3    H277876   2.542   1.784   2.239 -0.3988  0.0437  1.2909
18821TIP3   OH277877   6.569   6.621   0.504 -0.4647  0.0994  0.0213
18821TIP3    H177878   6.555   6.585   0.591  0.8814 -0.2776  0.1052
18821TIP3    H277879   6.607   6.548   0.454 -1.7047  0.1518 -1.0335
18822TIP3   OH277880   2.771   3.377   0.801 -0.3076  0.4107 -0.1792
18822TIP3    H177881   2.805   3.430   0.873  1.1328  1.0980 -1.3028
18822TIP3    H277882   2.678   3.365   0.821 -0.5003  2.6442  0.5529
18823TIP3   OH277883   0.586   3.948   5.801 -0.3009  0.2468 -0.2464
18823TIP3    H177884   0.597   3.853   5.812 -1.8869  0.0473 -0.1105
18823TIP3    H277885   0.493   3.959   5.782  0.3954  1.5050 -3.4510
18824TIP3   OH277886   2.513   0.800  15.049 -0.1632  0.3703 -0.0099
18824TIP3    H177887   2.515   0.894  15.065  0.9064  0.6052 -1.3029
18824TIP3    H277888   2.512   0.761  15.137 -2.1508  1.5501  0.5638
18825TIP3   OH277889   5.363   5.449   0.689 -0.6536 -0.8215  0.2579
18825TIP3    H177890   5.337   5.453   0.597 -2.0603  1.2276  0.6596
18825TIP3    H277891   5.399   5.536   0.707 -0.0412 -1.3156  1.5534
18826TIP3   OH277892   5.229   6.476  11.391 -0.5554  0.4811 -0.0690
18826TIP3    H177893   5.141   6.445  11.409 -0.2674 -0.3382 -0.0176
18826TIP3    H277894   5.258   6.423  11.316 -0.1510  0.8153 -0.1518
18827TIP3   OH277895   4.735   6.378   3.168  0.2020  0.3357 -0.0116
18827TIP3    H177896   4.771   6.365   3.081  0.7043  0.0423  0.2315
18827TIP3    H277897   4.659   6.435   3.155 -0.5289 -0.7799 -0.8010
18828TIP3   OH277898   0.953   0.713   4.113 -0.6179  0.2940 -0.3092
18828TIP3    H177899   0.932   0.780   4.178 -0.8310 -0.8735  0.8637
18828TIP3    H277900   0.872   0.663   4.103  0.4074 -1.8696  1.3859
18829TIP3   OH277901   1.976   3.218  16.350  0.1333  0.2820 -0.3219
18829TIP3    H177902   1.886   3.196  16.377 -0.4436  1.6237 -1.0361
18829TIP3    H277903   1.988   3.308  16.381  1.4488 -0.0706  0.2371
18830TIP3   OH277904   5.751   1.740  12.150 -0.0056  0.6288 -0.0803
18830TIP3    H177905   5.805   1.752  12.228 -2.5226 -0.7338  2.0267
18830TIP3    H277906   5.766   1.649  12.125 -0.5483  0.5474 -0.1077
18831TIP3   OH277907   0.925   1.318  11.282 -0.1700 -0.0468  0.3295
18831TIP3    H177908   0.841   1.305  11.327 -1.3640  2.9258 -0.7299
18831TIP3    H277909   0.912   1.278  11.196 -0.4120  0.1453  0.2740
18832TIP3   OH277910   1.078   4.926  11.549 -0.2806  0.0032 -0.4376
18832TIP3    H177911   1.158   4.958  11.591 -0.1915  0.6516 -1.0795
18832TIP3    H277912   1.062   4.987  11.477 -0.3962 -1.0893 -1.3840
18833TIP3   OH277913   6.513   3.778  16.887 -0.0663 -0.2042  0.0774
18833TIP3    H177914   6.492   3.794  16.979  1.1574 -0.2326  0.3770
18833TIP3    H277915   6.500   3.684  16.876  0.2806 -0.2831  0.3491
18834TIP3   OH277916   3.764   3.638   5.588  0.0906 -0.3573  0.8182
18834TIP3    H177917   3.684   3.680   5.619 -0.0944 -0.3690  0.3561
18834TIP3    H277918   3.815   3.623   5.668  0.8759  2.1835  0.8884
18835TIP3   OH277919   4.674   3.621   2.061  0.2357 -0.6306 -0.2926
18835TIP3    H177920   4.733   3.548   2.078  0.8189 -0.1664 -0.2969
18835TIP3    H277921   4.729   3.689   2.022 -0.0731  0.2045  0.6689
18836TIP3   OH277922   4.307   1.958  12.448  0.3213  0.0081 -0.2335
18836TIP3    H177923   4.274   1.991  12.364 -0.7393 -0.1205  0.1219
18836TIP3    H277924   4.272   1.869  12.454 -0.7761  0.4831  0.9619
18837TIP3   OH277925   6.604   0.364   0.631 -0.4598  0.2617 -0.1714
18837TIP3    H177926   6.544   0.290   0.620  1.5700 -1.3778 -0.9506
18837TIP3    H277927   6.588   0.394   0.721  1.9166 -4.3638  2.2033
18838TIP3   OH277928   2.226   5.211   2.472  0.5605  0.6046 -0.1170
18838TIP3    H177929   2.295   5.153   2.442 -0.3133 -0.3584 -0.3315
18838TIP3    H277930   2.156   5.201   2.406  0.3464  1.8188 -0.1014
18839TIP3   OH277931   5.246   6.668  14.465  0.5880 -0.2486 -0.0338
18839TIP3    H177932   5.240   6.583  14.421  2.5605 -0.8776  0.7897
18839TIP3    H277933   5.323   6.710  14.427 -0.0153  0.9399 -0.0018
18840TIP3   OH277934   3.606   2.424   2.153 -0.3689 -0.2424  0.2786
18840TIP3    H177935   3.696   2.455   2.154 -0.8832  1.2953  0.9029
18840TIP3    H277936   3.563   2.470   2.225 -2.0898  0.4056 -1.0919
18841TIP3   OH277937   0.508   3.659   3.149  0.8737  0.2844 -0.6558
18841TIP3    H177938   0.435   3.638   3.092  1.4390 -0.4995 -1.1124
18841TIP3    H277939   0.485   3.620   3.234  0.9973 -0.4392 -0.9471
18842TIP3   OH277940   5.626   1.109   5.663 -1.2433 -0.2966 -0.6278
18842TIP3    H177941   5.718   1.132   5.654 -1.0348 -0.6796  0.4143
18842TIP3    H277942   5.599   1.149   5.745 -1.5572 -1.5514 -0.0913
18843TIP3   OH277943   6.281   2.860  16.444  0.0280 -0.1199  0.1750
18843TIP3    H177944   6.354   2.906  16.403  0.4771 -0.9394  0.0333
18843TIP3    H277945   6.299   2.865  16.538  2.6784 -4.0136  0.0941
18844TIP3   OH277946   6.440   4.712  11.120  0.0652 -0.1265  0.1172
18844TIP3    H177947   6.435   4.706  11.024 -2.3951  0.4245  0.1544
18844TIP3    H277948   6.409   4.800  11.141 -0.1030 -0.4796  1.4584
18845TIP3   OH277949   1.610   6.679   5.667  0.0019  0.1038  0.1006
18845TIP3    H177950   1.673   6.749   5.687 -0.1666  0.1641  0.4393
18845TIP3    H277951   1.569   6.706   5.585  1.2452 -0.5188 -0.7598
18846TIP3   OH277952   5.733   2.653  16.186 -0.3472  0.3364 -0.4730
18846TIP3    H177953   5.655   2.597  16.190 -0.1504  0.1088  0.2673
18846TIP3    H277954   5.789   2.611  16.121 -1.0813  0.8205 -1.4449
18847TIP3   OH277955   4.275   6.219  13.922 -0.3689 -0.0434 -0.0637
18847TIP3    H177956   4.290   6.252  14.011  0.8866 -1.7577  0.4114
18847TIP3    H277957   4.213   6.148  13.933 -2.0051  1.1832 -0.9051
18848TIP3   OH277958   6.641   6.111  11.027 -0.6225  0.0751 -0.1391
18848TIP3    H177959   6.706   6.137  10.962  1.3641 -0.8939  1.3348
18848TIP3    H277960   6.613   6.023  11.000  0.3893 -0.4306  0.4104
18849TIP3   OH277961   0.517   6.009   2.908  0.0409 -0.2299  0.6843
18849TIP3    H177962   0.435   5.979   2.870 -0.2147  0.2552  0.8481
18849TIP3    H277963   0.508   6.104   2.915  1.0368 -0.0335 -0.3016
18850TIP3   OH277964   3.850   0.541  16.730 -0.7640 -0.5490 -0.0305
18850TIP3    H177965   3.772   0.593  16.750 -1.9455 -2.2784  0.0358
18850TIP3    H277966   3.839   0.460  16.781  0.7650 -1.0969 -0.5191
18851TIP3   OH277967   6.515   6.504   0.747  0.2376  0.0533 -0.3110
18851TIP3    H177968   6.440   6.466   0.792 -0.3397 -1.3289 -2.2961
18851TIP3    H277969   6.582   6.435   0.749  0.3612  0.1344 -1.1268
18852TIP3   OH277970   5.356   6.093  15.013  0.4312  0.4905  0.1072
18852TIP3    H177971   5.350   6.006  14.974 -2.8697  0.4346  0.4083
18852TIP3    H277972   5.420   6.139  14.959  1.2413 -1.6775 -0.9101
18853TIP3   OH277973   3.526   1.842   0.867 -0.6960 -0.2048 -0.0509
18853TIP3    H177974   3.561   1.776   0.807  0.5632 -0.3389  0.7917
18853TIP3    H277975   3.602   1.893   0.895 -1.3655  0.3652  0.8115
18854TIP3   OH277976   3.889   0.199   5.301  0.2058  0.9052 -0.3643
18854TIP3    H177977   3.822   0.164   5.242 -0.1691  0.8949  0.0693
18854TIP3    H277978   3.959   0.228   5.242  0.3305 -0.1564 -0.7574
18855TIP3   OH277979   5.309   3.466  12.602 -0.0630 -0.1238  0.1313
18855TIP3    H177980   5.370   3.404  12.563 -1.3568 -0.6612 -1.1426
18855TIP3    H277981   5.254   3.495  12.529 -0.0601  1.8927  0.8469
18856TIP3   OH277982   5.339   0.629   6.238  0.2658  0.4833  0.1202
18856TIP3    H177983   5.403   0.561   6.256 -0.6286 -0.3156  0.3565
18856TIP3    H277984   5.307   0.655   6.324  0.8217  1.4430  0.0551
18857TIP3   OH277985   5.548   3.939  15.289 -0.1441 -0.4933 -0.7178
18857TIP3    H177986   5.534   3.949  15.195 -1.8801 -0.3239 -0.4697
18857TIP3    H277987   5.520   3.850  15.309 -0.9894 -0.1119 -0.1651
18858TIP3   OH277988   1.794   0.385  10.518 -0.2442 -0.0300 -0.0764
18858TIP3    H177989   1.816   0.478  10.522  1.5807 -0.4186 -0.2551
18858TIP3    H277990   1.862   0.347  10.464  0.0535 -1.7416  1.4107
18859TIP3   OH277991   0.942   4.816   4.253 -0.2563 -0.2250  0.3558
18859TIP3    H177992   0.868   4.808   4.193  0.4749 -0.7100 -0.5070
18859TIP3    H277993   0.902   4.823   4.340 -1.2887 -1.2294 -0.0219
18860TIP3   OH277994   0.053   2.488  13.329 -0.6750 -0.0021 -0.8492
18860TIP3    H177995  -0.004   2.510  13.256  0.2405 -0.9881 -1.9041
18860TIP3    H277996  -0.005   2.451  13.395 -1.8701  2.9171 -0.0748
18861TIP3   OH277997   3.892   3.965   5.683 -0.1098  0.3742 -0.1172
18861TIP3    H177998   3.845   3.957   5.765  0.9335  2.0364  0.7196
18861TIP3    H277999   3.978   3.927   5.701 -0.5060 -1.0848 -1.1005
18862TIP3   OH278000   4.549   1.473  12.113  0.1993 -0.0406  0.3563
18862TIP3    H178001   4.535   1.378  12.117  0.4683 -0.0348  1.6325
18862TIP3    H278002   4.629   1.483  12.061 -1.2364 -0.3537 -2.0442
18863TIP3   OH278003   0.458   2.756  12.360  0.0927 -0.0096  0.2137
18863TIP3    H178004   0.467   2.686  12.424  1.3026 -1.0584 -1.0356
18863TIP3    H278005   0.396   2.817  12.399 -1.2554 -1.9141  1.2231
18864TIP3   OH278006   4.661   5.011   5.668 -0.2755 -0.2616 -0.0690
18864TIP3    H178007   4.683   5.068   5.741 -2.1830 -0.4168  0.7014
18864TIP3    H278008   4.718   4.935   5.678  0.1947  0.1784  0.6579
18865TIP3   OH278009   0.257   3.470  14.396 -0.1778 -0.5764 -0.0908
18865TIP3    H178010   0.272   3.465  14.301 -2.6477  1.6886 -0.7331
18865TIP3    H278011   0.171   3.429  14.409 -1.2727  1.7654  0.6046
18866TIP3   OH278012   0.061   5.305  14.214 -0.8182 -0.2604  0.2056
18866TIP3    H178013   0.080   5.306  14.121 -0.5990  0.3493  0.2581
18866TIP3    H278014   0.050   5.212  14.235  1.0010 -0.5757 -0.0488
18867TIP3   OH278015   0.635   4.766   0.423  0.3970  0.4388 -0.9408
18867TIP3    H178016   0.546   4.791   0.445  0.2449 -1.2595  0.5577
18867TIP3    H278017   0.689   4.836   0.462 -0.2062  0.7132 -0.5737
18868TIP3   OH278018   2.754   3.028  15.206 -0.8061 -0.8948  0.3441
18868TIP3    H178019   2.711   3.093  15.261 -0.1357 -0.4325  0.3385
18868TIP3    H278020   2.721   2.944  15.238 -1.5758 -0.5627  0.4426
18869TIP3   OH278021   4.217   4.313   1.682 -0.2113 -0.9072 -0.0234
18869TIP3    H178022   4.216   4.296   1.587  1.4249  1.7987 -0.6415
18869TIP3    H278023   4.263   4.238   1.719  2.2816 -0.4499 -1.8915
18870TIP3   OH278024   4.542   2.208  12.723 -0.3327 -0.2023  0.3240
18870TIP3    H178025   4.605   2.139  12.742 -1.3666 -1.6642 -1.2961
18870TIP3    H278026   4.497   2.223  12.807 -0.0880 -1.4974  0.7104
18871TIP3   OH278027   1.845   0.959   5.720 -0.6513  0.1334 -0.7045
18871TIP3    H178028   1.824   1.044   5.681 -0.5766  0.9952  1.0315
18871TIP3    H278029   1.763   0.910   5.717 -1.0992  0.8454 -0.3397
18872TIP3   OH278030   6.699   3.808  13.051 -0.5154 -0.7318 -0.1958
18872TIP3    H178031   6.724   3.859  12.974 -1.7487  1.0258  0.4857
18872TIP3    H278032   6.646   3.736  13.017 -1.2908  0.1867 -1.0027
18873TIP3   OH278033   6.486   6.669   1.128 -0.2739 -0.5096 -0.5022
18873TIP3    H178034   6.448   6.750   1.095  0.5498 -0.5728 -1.6533
18873TIP3    H278035   6.420   6.602   1.108 -0.9500 -0.1415  0.4401
18874TIP3   OH278036   6.705   4.704  12.076 -0.1262 -0.0904 -0.2276
18874TIP3    H178037   6.769   4.735  12.140 -0.2555 -1.5803  0.6692
18874TIP3    H278038   6.677   4.783  12.030  0.9661  0.8328  0.6324
18875TIP3   OH278039   4.712   6.061   6.828 -0.3291 -0.2948 -0.5897
18875TIP3    H178040   4.760   6.097   6.754 -1.3999  1.0569 -0.6568
18875TIP3    H278041   4.660   5.990   6.791 -0.5458  0.1060 -1.0520
18876TIP3   OH278042   6.569   4.683  13.989 -0.4246  0.4183 -0.4751
18876TIP3    H178043   6.650   4.727  13.960 -1.2159  2.2403 -0.0514
18876TIP3    H278044   6.534   4.644  13.910  0.4200  0.3517 -0.8337
18877TIP3   OH278045   0.043   5.005   3.867  0.0961 -0.8543  0.0646
18877TIP3    H178046   0.137   4.992   3.882  0.3826 -1.0564 -1.6334
18877TIP3    H278047   0.003   4.923   3.894  0.7653 -1.8037 -1.6138
18878TIP3   OH278048   4.404   3.999   3.283 -0.3464  0.5270  0.0882
18878TIP3    H178049   4.345   3.927   3.307 -0.4426  0.1503 -1.2016
18878TIP3    H278050   4.349   4.058   3.232  0.4070  0.1101 -1.2398
18879TIP3   OH278051   4.704   5.958  15.150  0.0235  0.2825  0.5763
18879TIP3    H178052   4.767   5.968  15.221 -2.5656 -3.2216  3.8150
18879TIP3    H278053   4.743   5.895  15.090 -0.1063 -1.5844  2.3615
18880TIP3   OH278054   5.320   0.876   0.802 -0.0604  0.2915  0.1502
18880TIP3    H178055   5.338   0.792   0.761 -0.5881 -0.3578  1.2045
18880TIP3    H278056   5.405   0.920   0.806  0.1654 -0.0561 -0.6764
18881TIP3   OH278057   2.023   5.993  12.526  0.4324 -0.1686 -0.3262
18881TIP3    H178058   2.056   6.051  12.458  1.3837 -1.0307 -0.6359
18881TIP3    H278059   2.034   5.905  12.490  0.9794 -0.6476  0.9461
18882TIP3   OH278060   4.382   3.138   1.654 -0.5970  0.4185  0.0364
18882TIP3    H178061   4.389   3.122   1.560 -0.1804 -0.9340  0.2763
18882TIP3    H278062   4.315   3.205   1.662  0.2656  1.5172 -1.3081
18883TIP3   OH278063   1.161   0.860  10.814 -0.1425 -0.5587  0.3930
18883TIP3    H178064   1.181   0.953  10.817  3.6409 -1.2449  2.1849
18883TIP3    H278065   1.085   0.850  10.872 -0.5349  1.3484  0.2658
18884TIP3   OH278066   4.263   6.470   6.233 -0.3999  0.0826 -0.0409
18884TIP3    H178067   4.199   6.451   6.301 -0.3001 -1.2496 -0.2802
18884TIP3    H278068   4.271   6.388   6.184  3.7583 -0.9379  1.9030
18885TIP3   OH278069   1.042   4.759  13.040  0.6830 -0.1603 -0.2837
18885TIP3    H178070   1.069   4.708  12.964  1.5258  0.7505 -0.6181
18885TIP3    H278071   0.949   4.738  13.051  0.8457 -1.2236 -0.8229
18886TIP3   OH278072   4.925   2.158   1.967  0.1481  0.1393 -0.0538
18886TIP3    H178073   4.979   2.198   1.899 -2.0401 -0.1293 -2.1259
18886TIP3    H278074   4.984   2.103   2.017  2.1319  1.4795 -0.8234
18887TIP3   OH278075   0.559   4.974   5.726  0.1672 -0.1675  0.1314
18887TIP3    H178076   0.637   4.944   5.679 -1.4335 -0.0861 -2.8179
18887TIP3    H278077   0.554   4.918   5.803  1.6718 -1.9765 -1.0051
18888TIP3   OH278078   2.048   3.033   0.601 -0.1122  0.1263  0.5713
18888TIP3    H178079   2.007   2.948   0.617 -1.9929  0.9929  0.6227
18888TIP3    H278080   2.012   3.091   0.668 -0.9937  1.6039 -1.0862
18889TIP3   OH278081   5.125   5.092  16.553  0.7795  0.7178 -0.2089
18889TIP3    H178082   5.122   5.107  16.647  1.3081  1.4474 -0.3040
18889TIP3    H278083   5.105   4.999  16.543 -0.8762  0.9637  0.5103
18890TIP3   OH278084   2.752   5.578  14.400  0.5379  0.3310  0.2194
18890TIP3    H178085   2.825   5.617  14.352  0.2723 -0.7678 -1.1279
18890TIP3    H278086   2.763   5.484  14.388 -1.5531  0.1577 -0.7229
18891TIP3   OH278087   6.633   2.612  13.106  0.3987  0.0362  0.8681
18891TIP3    H178088   6.655   2.703  13.084  0.4171 -0.1292  0.1888
18891TIP3    H278089   6.546   2.618  13.145  0.8053  0.4595  1.7640
18892TIP3   OH278090   5.893   2.091  12.807 -0.5813 -0.2571  0.7054
18892TIP3    H178091   5.968   2.049  12.763 -0.6360 -1.8114  1.9943
18892TIP3    H278092   5.889   2.049  12.893 -3.5739 -1.0290  0.3005
18893TIP3   OH278093   3.148   5.220   2.504 -0.2788 -0.1315 -0.3143
18893TIP3    H178094   3.145   5.259   2.591  2.3851 -0.0797 -0.1613
18893TIP3    H278095   3.158   5.126   2.520 -1.8351 -0.3895 -0.6441
18894TIP3   OH278096   0.642   0.945   1.234  0.0576 -0.2138 -0.2757
18894TIP3    H178097   0.608   0.897   1.158  0.9771 -0.3414 -0.6229
18894TIP3    H278098   0.730   0.971   1.208  0.1315  0.3350  0.5001
18895TIP3   OH278099   2.807   2.283  13.199 -0.0595  0.6988 -0.4383
18895TIP3    H178100   2.898   2.286  13.229  0.0299  1.3539 -0.7516
18895TIP3    H278101   2.779   2.375  13.199 -1.0059  0.4191  0.5073
18896TIP3   OH278102   5.216   6.574  13.146  0.2263 -0.3136 -0.7254
18896TIP3    H178103   5.130   6.531  13.142 -0.4436  1.0440 -1.6990
18896TIP3    H278104   5.214   6.637  13.074  0.7303  2.1075  1.2487
18897TIP3   OH278105   1.819   4.754  14.816 -0.1303 -0.7180  0.0202
18897TIP3    H178106   1.751   4.752  14.749 -0.9499  1.0531  0.7465
18897TIP3    H278107   1.900   4.738  14.767 -0.8062 -0.4465 -1.2443
18898TIP3   OH278108   3.770   2.270   1.587  0.2676  0.2248  0.0819
18898TIP3    H178109   3.827   2.249   1.513  0.7693 -0.2183  0.5851
18898TIP3    H278110   3.803   2.353   1.621  0.1088  0.3707 -0.1189
18899TIP3   OH278111   6.072   1.186  13.814  0.3979  0.2364  0.0632
18899TIP3    H178112   5.978   1.181  13.796  0.6080 -1.1608 -0.8312
18899TIP3    H278113   6.077   1.199  13.909 -0.6854  1.6410 -0.0290
18900TIP3   OH278114   1.499   3.183   4.902  0.1077 -0.0260  0.5495
18900TIP3    H178115   1.486   3.105   4.956  1.0943 -0.8882 -0.3974
18900TIP3    H278116   1.565   3.233   4.949  1.1502 -0.8963  0.0817
18901TIP3   OH278117   1.153   3.268  16.693  0.5553 -0.0998  0.0859
18901TIP3    H178118   1.223   3.205  16.674 -0.4395 -1.2941  0.2079
18901TIP3    H278119   1.080   3.213  16.721 -0.8847  1.0086 -1.3666
18902TIP3   OH278120   5.527   3.740   6.604  0.0103 -0.4734 -0.2827
18902TIP3    H178121   5.613   3.731   6.561  2.0508 -1.0394  3.4704
18902TIP3    H278122   5.523   3.666   6.665 -2.4052  0.5051  0.8637
18903TIP3   OH278123   5.955   3.068  13.082 -1.1726  0.1137  0.1879
18903TIP3    H178124   5.881   3.107  13.129 -0.8427  2.0520 -0.7547
18903TIP3    H278125   5.914   3.022  13.008 -1.4713  1.4822 -0.5395
18904TIP3   OH278126   0.693   5.991  14.523 -0.0412  0.1442  0.4423
18904TIP3    H178127   0.712   5.947  14.441 -1.5854 -2.5014  1.3837
18904TIP3    H278128   0.675   6.082  14.498  0.8548 -0.2665 -1.9208
18905TIP3   OH278129   2.190   5.427   1.063 -0.9226 -0.7255  0.1019
18905TIP3    H178130   2.188   5.429   1.159 -1.0258 -0.6817  0.0988
18905TIP3    H278131   2.122   5.364   1.039  0.0818 -1.8387  0.1003
18906TIP3   OH278132   3.059   1.147   4.881  0.4176 -0.0206 -0.1650
18906TIP3    H178133   3.025   1.139   4.970  1.9896 -1.4228  0.3737
18906TIP3    H278134   3.089   1.237   4.874 -0.7745  0.4366  0.2847
18907TIP3   OH278135   4.689   5.359  16.088  0.0726 -0.1920  0.2188
18907TIP3    H178136   4.702   5.265  16.105  1.1189 -0.3152 -1.0881
18907TIP3    H278137   4.776   5.397  16.101 -0.2699  0.5555  0.3725
18908TIP3   OH278138   2.216   0.984   3.399  0.3654 -0.0691  0.1545
18908TIP3    H178139   2.276   1.007   3.329 -0.2315  0.5780 -0.1616
18908TIP3    H278140   2.135   1.032   3.378  0.2192  0.2417  1.3415
18909TIP3   OH278141   1.906   2.559  16.217 -0.2790  0.2262 -0.1357
18909TIP3    H178142   1.866   2.504  16.150  0.0464 -0.2003  0.0215
18909TIP3    H278143   1.834   2.577  16.279 -0.1766 -0.7460  0.2811
18910TIP3   OH278144   5.622   6.452   2.657  0.0803  0.3345 -0.5020
18910TIP3    H178145   5.554   6.494   2.604 -0.6453  0.2741  0.3588
18910TIP3    H278146   5.597   6.360   2.661  1.0055  0.0295 -1.3675
18911TIP3   OH278147   6.062   4.017   2.360 -0.0592  0.4467  0.1140
18911TIP3    H178148   6.081   4.010   2.267  0.0042 -0.7129  0.1996
18911TIP3    H278149   6.100   4.101   2.386 -2.8683  2.3749 -1.5409
18912TIP3   OH278150   2.028   0.153   2.481 -0.0852  0.2591  0.0232
18912TIP3    H178151   1.946   0.162   2.434  0.7240  0.6869 -1.3665
18912TIP3    H278152   2.036   0.060   2.499  0.4448 -0.2380 -2.3986
18913TIP3   OH278153   5.519   3.567   5.353 -0.1358  0.2450  0.1284
18913TIP3    H178154   5.511   3.657   5.385  1.5816  0.5545 -0.2068
18913TIP3    H278155   5.527   3.514   5.433  0.9726  0.6513  0.3045
18914TIP3   OH278156   2.600   3.597  16.122 -0.2436 -0.1206  0.1200
18914TIP3    H178157   2.559   3.675  16.160 -0.2605  0.0253 -0.1912
18914TIP3    H278158   2.616   3.539  16.196 -0.8755 -0.1115  0.2698
18915TIP3   OH278159   1.939   0.922  13.350 -0.9505  0.0856  0.0392
18915TIP3    H178160   1.990   0.883  13.279 -2.2276 -0.4235 -0.6394
18915TIP3    H278161   1.985   0.895  13.429 -0.2566 -0.4908 -0.5349
18916TIP3   OH278162   3.639   1.258  14.235 -0.2015  0.2119  0.2909
18916TIP3    H178163   3.574   1.299  14.178 -1.0305  0.7969  1.6061
18916TIP3    H278164   3.591   1.189  14.281  0.5002 -0.3884  0.1327
18917TIP3   OH278165   5.475   2.471  14.592  0.4013 -0.6713  0.5620
18917TIP3    H178166   5.391   2.451  14.550 -0.4431 -0.7164  2.2051
18917TIP3    H278167   5.523   2.389  14.589  1.9054  0.0960 -3.4526
18918TIP3   OH278168   0.890   1.842  13.418  0.5761  0.6327 -0.3386
18918TIP3    H178169   0.798   1.870  13.424  0.7697  1.6395 -1.6061
18918TIP3    H278170   0.914   1.858  13.327  2.0099  0.3463 -0.0341
18919TIP3   OH278171   0.858   1.694   4.441 -0.2519 -0.0618  0.1552
18919TIP3    H178172   0.869   1.603   4.467 -0.3511 -0.0013  0.4164
18919TIP3    H278173   0.869   1.744   4.522  1.2859  0.2756 -0.2262
18920TIP3   OH278174   4.802   4.230  13.096  0.6690 -0.1533  0.5372
18920TIP3    H178175   4.716   4.224  13.138  0.3922 -2.0214 -0.1810
18920TIP3    H278176   4.784   4.268  13.010  0.4795 -0.8760  0.2469
18921TIP3   OH278177   1.327   6.252   4.177  0.7308 -0.4747 -0.0414
18921TIP3    H178178   1.297   6.339   4.152  0.4707 -1.4550 -3.5639
18921TIP3    H278179   1.247   6.203   4.196  0.6711 -0.7306 -0.9377
18922TIP3   OH278180   1.347   0.475  11.240 -0.3836  0.0431  0.1042
18922TIP3    H178181   1.409   0.545  11.219  0.8059 -0.2017  2.4510
18922TIP3    H278182   1.370   0.404  11.180  0.5593  0.5239 -0.1231
18923TIP3   OH278183   4.886   2.188   4.529  0.2513  0.2571 -0.0172
18923TIP3    H178184   4.931   2.104   4.541  0.8590  0.4832 -0.6407
18923TIP3    H278185   4.823   2.171   4.458 -0.9493 -0.1621  1.1051
18924TIP3   OH278186   0.617   5.955  17.551 -0.3004 -0.1412  0.0166
18924TIP3    H178187   0.593   5.875  17.599 -0.0952 -1.1450 -1.4856
18924TIP3    H278188   0.648   5.923  17.466  0.0829  1.5369 -0.5023
18925TIP3   OH278189   2.863   5.947  16.175 -0.3073  0.2701 -0.2505
18925TIP3    H178190   2.814   5.872  16.141  0.4202  0.1160 -0.9853
18925TIP3    H278191   2.801   5.991  16.234 -1.9131  1.0169 -2.3807
18926TIP3   OH278192   0.907   5.885  13.573  0.5806  0.1178  0.3667
18926TIP3    H178193   0.878   5.883  13.481 -2.1238 -0.5480  1.1675
18926TIP3    H278194   0.932   5.795  13.592 -0.0350 -0.0035  0.6171
18927TIP3   OH278195   6.135   5.430  16.406  0.5466  0.2397 -0.0642
18927TIP3    H178196   6.184   5.469  16.334  0.4134 -1.7440 -1.3116
18927TIP3    H278197   6.155   5.336  16.400 -0.7600 -0.1755  1.4839
18928TIP3   OH278198   4.368   5.007   6.192 -0.0867 -0.4381 -0.5485
18928TIP3    H178199   4.413   5.029   6.110  1.0235 -0.5068  0.0116
18928TIP3    H278200   4.276   5.023   6.174  0.3598  1.9572 -1.0627
18929TIP3   OH278201   0.314   2.791   1.657  0.2775  0.2071 -0.1027
18929TIP3    H178202   0.398   2.808   1.614 -1.5204  0.8043 -3.7261
18929TIP3    H278203   0.253   2.852   1.615 -2.3487 -1.3872  1.1597
18930TIP3   OH278204   2.979   2.789   5.310  0.1672 -0.4478 -0.4661
18930TIP3    H178205   2.975   2.736   5.389  1.5125  0.6421  0.3598
18930TIP3    H278206   2.926   2.866   5.329 -0.0816 -0.5099 -0.8890
18931TIP3   OH278207   1.359   1.148  12.107  0.2149  0.3364  0.6341
18931TIP3    H178208   1.437   1.187  12.069  1.0088 -0.6232  1.2219
18931TIP3    H278209   1.364   1.169  12.200 -0.3673  0.4947  0.6331
18932TIP3   OH278210   3.739   2.501   0.167  0.4826 -0.2601  0.1927
18932TIP3    H178211   3.648   2.473   0.167  0.1645  0.7198  0.7401
18932TIP3    H278212   3.764   2.503   0.259  0.9127 -0.0648  0.0782
18933TIP3   OH278213   2.135   4.777  13.023  0.2486 -0.2171  0.2842
18933TIP3    H178214   2.048   4.793  13.059  0.7453  0.3551  1.2770
18933TIP3    H278215   2.194   4.821  13.083  1.2887 -1.2257  0.0417
18934TIP3   OH278216   6.068   4.509  16.184  0.2972 -0.0443 -0.1112
18934TIP3    H178217   6.101   4.580  16.130 -0.5873 -0.7295 -1.6148
18934TIP3    H278218   6.144   4.481  16.236  0.9481  1.1924 -0.3600
18935TIP3   OH278219   4.948   1.929   4.579 -0.5477 -0.6818 -0.6437
18935TIP3    H178220   5.009   1.905   4.648  0.1535 -0.4484 -1.1681
18935TIP3    H278221   4.868   1.880   4.599 -0.2552 -0.8453  0.1548
18936TIP3   OH278222   5.862   3.509  10.984 -0.1512  0.3930  0.7756
18936TIP3    H178223   5.795   3.455  10.942  0.6738  1.3308 -1.9692
18936TIP3    H278224   5.817   3.590  11.007 -0.1023  0.9101 -0.8084
18937TIP3   OH278225   1.941   5.014   1.270  0.3715 -0.0635  0.3267
18937TIP3    H178226   2.028   5.025   1.232  0.0043  1.8397 -0.0542
18937TIP3    H278227   1.954   5.027   1.364  0.7027 -1.2184  0.4579
18938TIP3   OH278228   1.870   1.277  14.784  0.2648  0.0688  0.3312
18938TIP3    H178229   1.834   1.300  14.870  0.5902 -0.9216  0.7500
18938TIP3    H278230   1.882   1.182  14.788 -3.4094 -0.7044 -2.2017
18939TIP3   OH278231   5.512   5.744  15.505 -0.5862  0.2075 -0.2403
18939TIP3    H178232   5.559   5.697  15.574  1.1758  0.7127 -1.0433
18939TIP3    H278233   5.440   5.787  15.551  0.7467  0.8225  1.3846
18940TIP3   OH278234   0.433   4.686  17.231  0.4115  0.2070 -0.6187
18940TIP3    H178235   0.397   4.775  17.239  0.9205  0.5103 -1.5739
18940TIP3    H278236   0.387   4.648  17.156  1.2174  0.1817 -1.1125
18941TIP3   OH278237   1.650   0.297   3.475 -0.7183  0.3602  0.0257
18941TIP3    H178238   1.722   0.263   3.421 -0.2812  0.6981  0.3928
18941TIP3    H278239   1.576   0.302   3.414 -0.3893  0.1819 -0.4000
18942TIP3   OH278240   0.801   3.349  15.275  0.4453 -0.2151 -0.3639
18942TIP3    H178241   0.865   3.399  15.325 -0.4971 -0.0676  0.7569
18942TIP3    H278242   0.839   3.262  15.267  0.4916 -0.3389  0.9308
18943TIP3   OH278243   6.042   2.501  14.344 -0.5973  0.5068  0.4496
18943TIP3    H178244   6.092   2.581  14.361 -1.5216  0.8826  1.6488
18943TIP3    H278245   6.027   2.501  14.250 -0.5465  1.7514  0.4198
18944TIP3   OH278246   3.370   0.889  15.156 -0.4919 -0.2323  0.6619
18944TIP3    H178247   3.448   0.908  15.103 -1.0300 -0.0686 -0.0917
18944TIP3    H278248   3.405   0.850  15.236  0.3120 -1.2961 -0.1681
18945TIP3   OH278249   4.584   6.010   1.629  0.0618 -0.0535 -0.2548
18945TIP3    H178250   4.581   5.916   1.645  1.6783 -0.2573 -0.9084
18945TIP3    H278251   4.661   6.040   1.678 -0.8451  1.0814  0.5496
18946TIP3   OH278252   2.020   0.255   1.029 -0.3286 -0.0818 -0.0529
18946TIP3    H178253   2.049   0.196   1.099  0.2548  0.0064 -0.2080
18946TIP3    H278254   2.010   0.198   0.952 -1.3510 -0.2440  0.1925
18947TIP3   OH278255   3.422   3.828  17.241 -0.6482  0.6242  0.5327
18947TIP3    H178256   3.461   3.781  17.315 -0.6976 -1.9167 -0.9562
18947TIP3    H278257   3.484   3.898  17.221  0.8771 -0.5313  1.0739
18948TIP3   OH278258   3.027   5.633  15.449 -0.7372  0.5852 -0.8193
18948TIP3    H178259   3.020   5.602  15.540  1.7855 -3.5727 -1.7635
18948TIP3    H278260   2.944   5.605  15.409 -0.8489  0.1575 -0.3189
18949TIP3   OH278261   1.769   2.745  12.597  0.7499  0.0020 -0.0110
18949TIP3    H178262   1.706   2.690  12.643  1.2370 -0.5528  0.0157
18949TIP3    H278263   1.831   2.773  12.664  1.9790 -1.5418 -0.4286
18950TIP3   OH278264   0.897   3.286  11.665 -0.2954  0.0756  0.1555
18950TIP3    H178265   0.937   3.335  11.736 -0.5077 -0.3619  0.5842
18950TIP3    H278266   0.857   3.209  11.708  1.6110 -1.4731 -0.6946
18951TIP3   OH278267   1.551   2.814  13.356  0.1501 -0.4656  0.1464
18951TIP3    H178268   1.541   2.756  13.280  2.0967 -1.9219  0.9018
18951TIP3    H278269   1.590   2.893  13.319 -1.5946  0.0331 -0.7527
18952TIP3   OH278270   4.130   3.250  11.094 -0.3452 -0.0690 -0.1761
18952TIP3    H178271   4.111   3.334  11.051 -0.0164 -0.5072 -1.2014
18952TIP3    H278272   4.221   3.232  11.072 -0.4880 -0.8130 -0.1736
18953TIP3   OH278273   3.905   3.081  16.298  0.3062 -0.0262  0.6480
18953TIP3    H178274   3.976   3.062  16.237  0.1495  1.8275 -0.2113
18953TIP3    H278275   3.941   3.148  16.356  0.4731 -1.8020  2.7056
18954TIP3   OH278276   2.744   3.116  14.177 -0.0988 -0.4554 -0.3551
18954TIP3    H178277   2.732   3.152  14.089  0.0968 -1.5728 -0.8589
18954TIP3    H278278   2.676   3.158  14.230 -2.5970 -2.3781 -1.8454
18955TIP3   OH278279   2.534   6.396  15.912  0.1168 -0.5365  0.3469
18955TIP3    H178280   2.511   6.465  15.849  1.3709  0.8053  1.2821
18955TIP3    H278281   2.626   6.377  15.893  0.2383 -0.7875  1.1611
18956TIP3   OH278282   5.825   4.971   3.307 -0.7286  0.2703  0.3535
18956TIP3    H178283   5.890   4.917   3.352 -1.4316 -1.0983 -0.2134
18956TIP3    H278284   5.758   4.909   3.278 -0.0545  0.9259 -3.1095
18957TIP3   OH278285   2.273   3.725  11.595  0.1992  0.9796  0.3441
18957TIP3    H178286   2.349   3.693  11.644  0.9170  2.2637  0.1141
18957TIP3    H278287   2.310   3.785  11.531 -0.6930 -0.7202 -1.9177
18958TIP3   OH278288   4.989   1.672   1.128 -0.6679 -0.5239 -0.0854
18958TIP3    H178289   4.932   1.657   1.203 -0.0788 -1.6339  0.1557
18958TIP3    H278290   5.066   1.717   1.164 -0.7770 -0.2598 -0.1792
18959TIP3   OH278291   1.267   1.653   4.324  0.0520  0.0205  0.4118
18959TIP3    H178292   1.347   1.601   4.316  0.1753 -0.0275  1.7082
18959TIP3    H278293   1.215   1.608   4.390 -0.1488  1.1483  1.0575
18960TIP3   OH278294   5.583   0.562  17.411 -0.2957  0.1973  0.5129
18960TIP3    H178295   5.629   0.478  17.402 -0.6999  0.0901 -0.7904
18960TIP3    H278296   5.644   0.626  17.374  0.0576  0.5084  1.6067
18961TIP3   OH278297   5.187   5.341  16.387  0.6022 -0.2052  0.0940
18961TIP3    H178298   5.272   5.301  16.404  0.5730 -0.8924 -1.1993
18961TIP3    H278299   5.123   5.275  16.413  0.4895 -0.0033  0.3277
18962TIP3   OH278300   2.511   3.384   5.385 -0.3627 -0.3914 -0.1249
18962TIP3    H178301   2.543   3.346   5.466 -0.9290  0.9639  0.7569
18962TIP3    H278302   2.446   3.322   5.353  1.0390 -1.7624 -0.4646
18963TIP3   OH278303   3.768   0.212   1.499  0.1330  0.0891  0.4357
18963TIP3    H178304   3.840   0.257   1.455 -0.2385 -0.1410 -0.4289
18963TIP3    H278305   3.754   0.261   1.579  0.5475  0.7695  0.0975
18964TIP3   OH278306   6.116   4.279  15.609  0.1518 -0.3385  0.3345
18964TIP3    H178307   6.199   4.327  15.615 -0.5280  0.7122  1.8165
18964TIP3    H278308   6.072   4.317  15.533  1.4808 -1.7365 -1.2318
18965TIP3   OH278309   1.886   4.895   3.693 -0.2631 -0.2177  0.2902
18965TIP3    H178310   1.879   4.887   3.597 -1.8977 -0.6097  0.4030
18965TIP3    H278311   1.962   4.842   3.715  0.9320  0.9258 -0.8949
18966TIP3   OH278312   5.402   1.443   5.639  0.2262 -0.5314 -0.2366
18966TIP3    H178313   5.494   1.468   5.631 -0.5372  2.0940 -2.0184
18966TIP3    H278314   5.372   1.432   5.549 -1.9847  2.1435  0.0407
18967TIP3   OH278315   3.060   6.637   1.516  0.1974 -0.4065 -0.1767
18967TIP3    H178316   3.095   6.690   1.444 -0.9628  0.4995 -0.1057
18967TIP3    H278317   3.036   6.701   1.583  0.8462 -1.2076  0.8378
18968TIP3   OH278318   5.906   6.358   3.967 -0.4125  0.3324 -0.0973
18968TIP3    H178319   5.870   6.280   4.008 -1.1315  0.7954  0.1869
18968TIP3    H278320   5.866   6.361   3.880  1.0883 -0.6328 -0.8607
18969TIP3   OH278321   4.215   3.654   2.271  0.2216 -0.2121 -0.0978
18969TIP3    H178322   4.216   3.640   2.365  0.2028 -0.5373 -0.1438
18969TIP3    H278323   4.307   3.665   2.247  0.1724  0.6233  0.0625
18970TIP3   OH278324   5.488   6.164   1.370 -0.8821  0.5681  0.2689
18970TIP3    H178325   5.478   6.213   1.451  2.1984  2.6942 -0.4279
18970TIP3    H278326   5.449   6.221   1.303 -3.0068 -0.9666  0.1066
18971TIP3   OH278327   3.170   2.140  15.521 -0.3788  0.1252 -0.3882
18971TIP3    H178328   3.104   2.119  15.587  0.9060  0.7268  1.1814
18971TIP3    H278329   3.126   2.200  15.461 -1.2006  0.7445  0.7846
18972TIP3   OH278330   2.224   3.007   3.203  0.2797 -0.8098 -0.0263
18972TIP3    H178331   2.251   2.916   3.190 -1.0775 -1.3735  0.8487
18972TIP3    H278332   2.160   3.003   3.274 -1.1895  0.5863 -1.1903
18973TIP3   OH278333   0.057   5.615   3.265 -0.3075  0.0977 -0.1204
18973TIP3    H178334   0.075   5.692   3.319  0.2507 -0.3275  0.3109
18973TIP3    H278335   0.117   5.624   3.191  0.6622 -0.5501  0.5611
18974TIP3   OH278336   2.054   1.463   2.663 -0.0678  0.5280 -0.0047
18974TIP3    H178337   2.131   1.490   2.713  0.5107 -0.0280 -0.5722
18974TIP3    H278338   2.075   1.374   2.635 -1.1697  0.1569  0.3187
18975TIP3   OH278339   2.081   4.152   5.612 -0.1522  0.5458 -0.1542
18975TIP3    H178340   2.023   4.175   5.685  1.5151  1.8882  0.8171
18975TIP3    H278341   2.128   4.233   5.593 -0.3188  0.1726 -2.5818
18976TIP3   OH278342   0.423   4.223   4.003  0.0643 -0.1644  0.3151
18976TIP3    H178343   0.447   4.269   4.083  1.0460 -0.6110  0.2868
18976TIP3    H278344   0.464   4.274   3.933 -1.1080  0.4468  0.0438
18977TIP3   OH278345   0.417   1.160   4.291  0.2303 -0.1834  0.5385
18977TIP3    H178346   0.450   1.134   4.205 -1.7742  0.2726 -0.4163
18977TIP3    H278347   0.404   1.254   4.285 -2.7409 -0.4989  0.2237
18978TIP3   OH278348   5.399   5.777   3.782  0.6247 -0.1251  0.2681
18978TIP3    H178349   5.386   5.723   3.861  0.2248  0.2293  0.4478
18978TIP3    H278350   5.352   5.858   3.801 -1.6978 -0.9993 -1.3511
18979TIP3   OH278351   3.365   0.174   1.146 -0.3985 -0.5721  0.1725
18979TIP3    H178352   3.404   0.101   1.097 -2.7749 -0.7854 -1.5989
18979TIP3    H278353   3.390   0.252   1.096  0.1113 -0.3996  0.6829
18980TIP3   OH278354   1.252   3.549   6.307  0.2510 -0.3506 -0.2670
18980TIP3    H178355   1.187   3.616   6.285  1.2278  1.2916  1.5881
18980TIP3    H278356   1.336   3.593   6.299  1.0576 -1.9110 -0.7971
18981TIP3   OH278357   1.974   4.563   5.110  0.3456 -0.0562  0.2633
18981TIP3    H178358   1.960   4.469   5.122  0.3787 -0.3432 -1.6005
18981TIP3    H278359   2.065   4.569   5.079  0.0138  0.4818 -0.6165
18982TIP3   OH278360   1.052   5.380   4.959 -0.0858 -0.1420  0.0212
18982TIP3    H178361   1.078   5.295   4.923  0.0907 -0.2747  0.4594
18982TIP3    H278362   1.135   5.425   4.976 -0.1588 -0.1923  0.5297
18983TIP3   OH278363   2.617   3.129   2.206 -0.0691  0.0770  0.0346
18983TIP3    H178364   2.619   3.033   2.207 -0.3556  0.0731  0.8032
18983TIP3    H278365   2.642   3.152   2.116  1.0046 -0.6898  0.1217
18984TIP3   OH278366   0.502   0.669  16.031 -0.7837 -0.4703  1.2069
18984TIP3    H178367   0.444   0.737  16.066 -1.7573 -1.6435  1.9461
18984TIP3    H278368   0.580   0.674  16.087 -0.5387  0.4814  0.8111
18985TIP3   OH278369   5.181   6.351   3.682  0.2984  0.1170 -0.8806
18985TIP3    H178370   5.195   6.256   3.678  1.4917  0.3223 -2.1447
18985TIP3    H278371   5.229   6.385   3.607  1.2552  1.8926  0.4802
18986TIP3   OH278372   3.780   6.404   6.903 -0.2265 -0.4100  0.7054
18986TIP3    H178373   3.716   6.384   6.972 -0.0584  0.5097  1.1454
18986TIP3    H278374   3.759   6.494   6.876  0.4554 -0.3389  0.3849
18987TIP3   OH278375   6.421   6.572   2.425  0.2221 -0.1927 -0.7293
18987TIP3    H178376   6.334   6.546   2.455  0.7727  0.6920  1.9339
18987TIP3    H278377   6.411   6.584   2.331 -2.3507 -0.8238 -0.6156
18988TIP3   OH278378   3.296   3.922  16.418 -0.3120  0.0148 -0.2968
18988TIP3    H178379   3.303   3.889  16.328 -0.9991 -1.3943  0.1342
18988TIP3    H278380   3.213   3.887  16.450  1.2502 -2.0810  1.8433
18989TIP3   OH278381   1.425   3.517  16.239  0.1820 -0.8820  0.5851
18989TIP3    H178382   1.491   3.530  16.307 -0.2698  1.6178  0.6235
18989TIP3    H278383   1.344   3.549  16.277 -0.3158 -0.5773 -0.6836
18990TIP3   OH278384   2.074   0.152  15.770  0.7791 -0.3976 -0.5688
18990TIP3    H178385   1.987   0.115  15.786  0.1065  1.1801 -0.4389
18990TIP3    H278386   2.058   0.244  15.750  2.5509  0.3147  1.0265
18991TIP3   OH278387   1.279   3.456  11.974  0.6840 -0.0146 -0.1678
18991TIP3    H178388   1.276   3.522  12.043  0.5622 -0.9666  0.7717
18991TIP3    H278389   1.216   3.486  11.909 -1.0536 -0.3004  1.2925
18992TIP3   OH278390   4.877   5.628   5.701  0.2662  0.0967  0.4279
18992TIP3    H178391   4.852   5.720   5.707 -0.7974 -0.1566  0.0478
18992TIP3    H278392   4.953   5.627   5.642  1.1398  0.8613  1.5069
18993TIP3   OH278393   3.395   3.411  11.275 -0.2488  0.5297 -0.2330
18993TIP3    H178394   3.319   3.364  11.239  0.1011  1.2918 -2.0912
18993TIP3    H278395   3.459   3.342  11.294 -0.6465  0.0489 -0.6186
18994TIP3   OH278396   0.633   5.575  13.196  0.5671  0.4057  0.1818
18994TIP3    H178397   0.621   5.484  13.169 -1.0309  0.4295  0.7691
18994TIP3    H278398   0.704   5.606  13.140  0.5764 -0.9479 -0.6116
18995TIP3   OH278399   3.472   2.051  14.739  0.4747  0.7697  0.3844
18995TIP3    H178400   3.449   2.000  14.661  1.9408  1.0390 -0.2643
18995TIP3    H278401   3.548   2.006  14.776 -0.7746  0.0645  2.2762
18996TIP3   OH278402   3.873   1.879   4.557 -0.0750  0.2203 -0.0130
18996TIP3    H178403   3.815   1.926   4.617 -0.1054 -0.0857  0.2011
18996TIP3    H278404   3.868   1.928   4.475 -0.5997  0.2182  0.0182
18997TIP3   OH278405   5.690   6.623  17.220 -0.3261  0.1291  0.3167
18997TIP3    H178406   5.747   6.626  17.297 -0.1066 -2.6524  0.3852
18997TIP3    H278407   5.620   6.563  17.245 -2.6816  2.5062 -0.2202
18998TIP3   OH278408   1.197   0.882  11.130  0.1994  0.1738  0.3140
18998TIP3    H178409   1.164   0.797  11.100  0.5412  0.0616  0.2487
18998TIP3    H278410   1.121   0.940  11.128 -0.4116 -0.5139  1.8735
18999TIP3   OH278411   3.453   6.348   1.270  0.0887 -0.2814  0.2311
18999TIP3    H178412   3.412   6.263   1.288 -1.3208  0.1835 -0.6430
18999TIP3    H278413   3.435   6.399   1.349 -1.2766 -0.0033 -0.2378
19000TIP3   OH278414   6.597   0.123  16.027 -0.3442 -0.5671  0.6243
19000TIP3    H178415   6.689   0.152  16.029 -0.3255 -0.4587 -0.9207
19000TIP3    H278416   6.568   0.132  16.118  0.4343  1.8428  0.7216
19001TIP3   OH278417   2.372   5.668   5.007 -0.5272  0.3048  0.7384
19001TIP3    H178418   2.461   5.636   5.020 -0.5421  0.3423  0.9399
19001TIP3    H278419   2.317   5.608   5.058 -0.5233  0.8520  1.3987
19002TIP3   OH278420   4.467   2.456  17.482 -0.4696 -0.1109 -0.1388
19002TIP3    H178421   4.510   2.527  17.435  1.6723 -0.2307  1.4697
19002TIP3    H278422   4.515   2.378  17.456 -0.1919 -0.3737  1.1136
19003TIP3   OH278423   0.845   2.607  14.509  0.2745  0.1739 -0.4638
19003TIP3    H178424   0.853   2.588  14.416 -0.0818 -0.1392 -0.4311
19003TIP3    H278425   0.906   2.547  14.551  1.1699  0.9903 -0.5616
19004TIP3   OH278426   0.874   0.537   5.219 -0.4824 -0.1250 -0.1387
19004TIP3    H178427   0.832   0.616   5.184  0.6013  0.0331 -1.1555
19004TIP3    H278428   0.839   0.529   5.307 -0.0425  1.9590  0.2849
19005TIP3   OH278429   6.138   5.942   4.616 -0.5535 -0.0124 -0.5504
19005TIP3    H178430   6.193   5.953   4.538 -0.2536 -0.5506 -0.4191
19005TIP3    H278431   6.199   5.946   4.689 -0.6338 -0.9820 -0.4231
19006TIP3   OH278432   6.202   1.709  16.182 -0.3482 -0.2571  0.0647
19006TIP3    H178433   6.235   1.663  16.259 -0.6714 -0.9680 -0.2068
19006TIP3    H278434   6.274   1.765  16.153  0.5117 -1.5293 -0.3307
19007TIP3   OH278435   3.788   2.288  13.595  0.4760 -0.2001  0.1818
19007TIP3    H178436   3.821   2.348  13.528  0.5579  1.2746  1.4967
19007TIP3    H278437   3.695   2.310  13.602  0.2005 -1.1587 -0.2352
19008TIP3   OH278438   5.045   5.566   4.045  0.3771 -0.3712  0.1995
19008TIP3    H178439   4.982   5.637   4.052 -1.3994 -1.6912 -1.5843
19008TIP3    H278440   5.023   5.507   4.117  0.2583 -0.3417  0.1859
19009TIP3   OH278441   5.046   1.169  12.376 -0.2844 -0.1244 -0.2781
19009TIP3    H178442   5.103   1.203  12.445 -0.3986  0.1573 -0.3258
19009TIP3    H278443   5.051   1.074  12.387  0.2187 -0.1051 -0.2975
19010TIP3   OH278444   1.742   6.384  12.502 -0.3037 -0.4118 -0.4155
19010TIP3    H178445   1.813   6.332  12.540 -0.5059 -0.1821  0.2926
19010TIP3    H278446   1.767   6.475  12.520  0.9544 -0.1001 -3.2103
19011TIP3   OH278447   2.489   0.187  17.366 -0.5234 -0.3818 -0.2497
19011TIP3    H178448   2.491   0.131  17.444  1.9921 -0.0542 -0.0094
19011TIP3    H278449   2.518   0.131  17.295 -0.2198  0.0051 -0.4377
19012TIP3   OH278450   0.385   5.672   0.250  0.0136  0.1563 -0.0929
19012TIP3    H178451   0.432   5.744   0.293 -0.0928  0.4060 -0.3995
19012TIP3    H278452   0.420   5.670   0.161 -1.4676  1.1773 -0.7335
19013TIP3   OH278453   2.922   3.828   3.014 -0.3579  0.2992  0.2013
19013TIP3    H178454   2.887   3.899   2.961 -0.0223  2.1071  2.2294
19013TIP3    H278455   2.858   3.817   3.085 -0.1258 -1.0669  0.2267
19014TIP3   OH278456   3.949   2.757  14.390 -0.2759 -0.2957  0.7232
19014TIP3    H178457   3.868   2.794  14.426  0.8380  1.2917  1.7213
19014TIP3    H278458   4.006   2.832  14.376  0.4430 -1.2014 -1.6310
19015TIP3   OH278459   4.041   2.434   0.159 -0.6309  0.2526 -0.3161
19015TIP3    H178460   4.012   2.502   0.219 -2.0042  0.1361 -0.8195
19015TIP3    H278461   4.038   2.353   0.210 -0.9020  0.2852 -0.2802
19016TIP3   OH278462   5.048   4.911  11.852  0.5181  0.1440 -0.0125
19016TIP3    H178463   5.004   4.993  11.876 -0.1456 -0.4551  0.8711
19016TIP3    H278464   4.992   4.874  11.784  0.9387  0.5185 -0.5740
19017TIP3   OH278465   0.940   5.527  13.882 -0.7271  0.0601  0.1780
19017TIP3    H178466   0.950   5.432  13.879  0.1695  0.1561 -0.5222
19017TIP3    H278467   0.850   5.543  13.855 -0.9959 -0.6131  0.6717
19018TIP3   OH278468   5.825   0.948   2.109  0.5523  0.2822  0.2785
19018TIP3    H178469   5.820   0.966   2.015  0.4613  0.5020  0.3241
19018TIP3    H278470   5.803   0.855   2.117  0.0356  0.3875  0.1315
19019TIP3   OH278471   5.253   1.203  17.492  0.2727 -0.3997  0.4339
19019TIP3    H178472   5.250   1.117  17.532 -0.1370 -1.4779 -1.7516
19019TIP3    H278473   5.341   1.210  17.454 -0.4739 -0.9389 -1.5064
19020TIP3   OH278474   4.865   2.901   1.389  0.4822  0.1446 -0.0967
19020TIP3    H178475   4.770   2.899   1.379  0.3841  0.8105  0.5482
19020TIP3    H278476   4.894   2.811   1.373 -0.1051  0.2073 -1.6182
19021TIP3   OH278477   5.291   3.064   1.021  0.5040 -0.3869  0.0578
19021TIP3    H178478   5.211   3.058   1.072  0.6955 -0.0590  0.4019
19021TIP3    H278479   5.285   2.992   0.958 -1.0495  0.8994 -1.3527
19022TIP3   OH278480   6.296   1.630   0.102  0.3014 -0.5207 -0.5100
19022TIP3    H178481   6.377   1.673   0.076 -0.8316  1.0209 -1.7333
19022TIP3    H278482   6.244   1.627   0.022 -2.0476  1.3770  0.8174
19023TIP3   OH278483   3.391   3.662  13.006 -0.5178 -0.2300  0.3640
19023TIP3    H178484   3.460   3.603  13.034 -0.8134 -0.2092  1.1670
19023TIP3    H278485   3.431   3.749  13.010 -0.5369 -0.2349  0.6535
19024TIP3   OH278486   4.649   2.661  15.489 -0.4342  0.1751 -0.0209
19024TIP3    H178487   4.709   2.707  15.429  1.1543 -3.7956 -1.8342
19024TIP3    H278488   4.570   2.646  15.437  0.2244 -1.6306 -0.5774
19025TIP3   OH278489   5.872   0.674   5.685 -0.3530  0.4565 -0.0469
19025TIP3    H178490   5.858   0.702   5.594  0.2228 -0.8282 -0.5519
19025TIP3    H278491   5.937   0.736   5.719 -1.0932  1.3886 -0.2600
19026TIP3   OH278492   2.085   2.152  16.159  0.4447 -0.0363  0.0809
19026TIP3    H178493   2.150   2.117  16.097  0.2034 -0.5465  0.1099
19026TIP3    H278494   2.014   2.185  16.104  0.6453  0.3640  0.0549
19027TIP3   OH278495   3.959   5.441  16.774 -0.2771  0.4412 -0.0775
19027TIP3    H178496   3.967   5.518  16.717  2.6815 -0.4234 -1.0490
19027TIP3    H278497   3.939   5.369  16.714  0.8949 -0.1437  0.1888
19028TIP3   OH278498   2.304   0.907   3.639 -0.1384  0.4580  0.2158
19028TIP3    H178499   2.361   0.984   3.644  0.4898 -0.0555  1.6528
19028TIP3    H278500   2.262   0.914   3.553 -0.0465  2.3445  0.2730
19029TIP3   OH278501   1.611   5.975   0.420  1.2022 -0.4232 -0.3733
19029TIP3    H178502   1.616   5.939   0.508  0.3806  0.4964  0.0611
19029TIP3    H278503   1.602   5.898   0.363  0.6975 -0.9723  0.4358
19030TIP3   OH278504   5.587   5.843  17.227 -0.1198 -0.3274 -0.4830
19030TIP3    H178505   5.533   5.766  17.212 -1.2661  0.1688  0.9281
19030TIP3    H278506   5.530   5.904  17.273  0.8372  1.2848 -1.3341
19031TIP3   OH278507   6.536   5.044  16.363  0.3204  0.0195 -0.4971
19031TIP3    H178508   6.618   5.034  16.315  0.0385  0.4863 -1.0930
19031TIP3    H278509   6.489   5.114  16.317 -1.6333 -2.0508 -1.9122
19032TIP3   OH278510   4.702   0.295  12.004 -0.2193 -0.0956 -0.2067
19032TIP3    H178511   4.690   0.372  11.948  0.3470 -0.8167 -1.3413
19032TIP3    H278512   4.722   0.223  11.944  0.0188 -0.9842  0.8864
19033TIP3   OH278513   0.826   3.520   1.982  0.7233 -0.2481  0.3943
19033TIP3    H178514   0.806   3.611   1.960 -3.3663 -1.3256 -1.2331
19033TIP3    H278515   0.839   3.521   2.077 -1.8765  1.7454  0.8418
19034TIP3   OH278516   1.010   3.971  14.605 -0.6922 -0.2982 -0.2329
19034TIP3    H178517   0.952   3.970  14.681 -0.7704 -0.9877 -0.2939
19034TIP3    H278518   1.035   3.879  14.593 -2.0593 -0.4833 -2.0909
19035TIP3   OH278519   4.654   0.728   2.977 -0.2535  0.1722  0.1959
19035TIP3    H178520   4.690   0.646   3.011 -0.8186 -0.3036 -0.3393
19035TIP3    H278521   4.615   0.770   3.054 -1.2288 -0.7415  0.2223
19036TIP3   OH278522   6.681   5.947  13.107  0.2118 -0.6488  0.1107
19036TIP3    H178523   6.598   5.925  13.149  0.7865  2.0966  3.0745
19036TIP3    H278524   6.739   5.873  13.129 -0.5646 -1.0438  0.9024
19037TIP3   OH278525   4.341   2.328   5.173  0.4901  0.1011 -0.0818
19037TIP3    H178526   4.436   2.338   5.171  0.5930  0.2125  2.3761
19037TIP3    H278527   4.308   2.416   5.190 -0.2841  0.5214 -3.1603
19038TIP3   OH278528   4.304   4.313  11.223 -0.0063 -0.2840 -0.0909
19038TIP3    H178529   4.298   4.401  11.260  2.0293 -0.6563  1.2744
19038TIP3    H278530   4.336   4.327  11.133  0.5378  0.3804  0.1954
19039TIP3   OH278531   0.351   5.940   5.027 -0.4021  0.5476 -0.0142
19039TIP3    H178532   0.425   6.000   5.020  1.3713 -1.6841 -1.6764
19039TIP3    H278533   0.337   5.908   4.938 -0.3707 -2.5050  0.9764
19040TIP3   OH278534   6.195   5.837   2.454  0.5725 -0.2471 -0.0720
19040TIP3    H178535   6.182   5.767   2.390 -0.0333 -0.4962  0.3183
19040TIP3    H278536   6.128   5.902   2.433  1.0397  0.1574 -0.3399
19041TIP3   OH278537   6.354   5.550   4.205 -0.7585 -0.3209 -0.4126
19041TIP3    H178538   6.434   5.534   4.255 -0.6930  1.3028  0.0585
19041TIP3    H278539   6.305   5.468   4.211 -0.2730 -0.5158  1.4544
19042TIP3   OH278540   0.578   5.096  11.741 -0.1850  0.1185  0.0772
19042TIP3    H178541   0.581   5.190  11.756  2.1700 -0.0139  0.9553
19042TIP3    H278542   0.670   5.070  11.737 -0.7459 -1.8685 -2.1695
19043TIP3   OH278543   3.079   0.348   2.355 -0.2027 -0.4479  0.0657
19043TIP3    H178544   3.082   0.383   2.444  1.1735 -0.3048 -0.0120
19043TIP3    H278545   3.157   0.293   2.348  0.2472  0.3187 -1.3504
19044TIP3   OH278546   4.700   2.574  14.277 -0.2009  0.0330  0.3145
19044TIP3    H178547   4.757   2.630  14.329 -1.5968  0.5233  1.4031
19044TIP3    H278548   4.628   2.551  14.336 -2.3541  1.3525 -1.5860
19045TIP3   OH278549   5.987   0.217   1.415 -0.7455  0.0694  0.4078
19045TIP3    H178550   5.939   0.272   1.477 -0.9843  0.2756  0.0487
19045TIP3    H278551   6.059   0.180   1.466 -0.4176  0.9408  0.5943
19046TIP3   OH278552   4.869   5.621   0.947 -0.4784  0.1176  0.1854
19046TIP3    H178553   4.895   5.713   0.954 -0.2111  0.0528  0.0641
19046TIP3    H278554   4.888   5.597   0.857 -1.1793  0.1280  0.0305
19047TIP3   OH278555   0.554   2.496   0.660 -0.1878  0.3138  0.1015
19047TIP3    H178556   0.568   2.580   0.618 -0.3624 -0.4424 -1.5279
19047TIP3    H278557   0.464   2.473   0.640  0.4268 -1.1372 -1.1478
19048TIP3   OH278558   1.277   3.442   1.434 -0.1872  0.1918  0.1627
19048TIP3    H178559   1.266   3.353   1.403  0.3198  0.0114  0.4904
19048TIP3    H278560   1.366   3.445   1.468 -0.3042  0.7372  0.4354
19049TIP3   OH278561   4.211   4.959  16.020 -0.8658  0.0838  0.1148
19049TIP3    H178562   4.264   4.925  16.092 -1.0658  0.9493  0.6869
19049TIP3    H278563   4.137   4.898  16.013 -0.3584 -0.5296  0.0134
19050TIP3   OH278564   4.093   6.035   5.754 -0.1238 -0.2437  0.1824
19050TIP3    H178565   4.163   6.011   5.692  0.8565  0.2267  1.0663
19050TIP3    H278566   4.098   6.131   5.759 -0.4979 -0.2449  0.6434
19051TIP3   OH278567   5.389   3.586  13.261 -0.4908 -0.3774 -0.5090
19051TIP3    H178568   5.362   3.626  13.344 -2.1774  1.6783 -1.9463
19051TIP3    H278569   5.309   3.585  13.208  0.9393  0.2128 -2.8067
19052TIP3   OH278570   0.080   2.015  12.707 -0.8067  0.2091 -0.2409
19052TIP3    H178571   0.059   1.937  12.757  1.5378 -0.6624 -0.5120
19052TIP3    H278572   0.118   2.076  12.771  1.1773 -0.4932 -0.6785
19053TIP3   OH278573   3.958   2.064   4.948 -0.1983 -0.2432 -0.6403
19053TIP3    H178574   4.017   2.119   5.000 -0.0528  0.1903 -1.2542
19053TIP3    H278575   3.904   2.019   5.013 -0.9969  1.3665 -0.1214
19054TIP3   OH278576   5.070   0.482  15.558  0.2398  0.5932 -0.0297
19054TIP3    H178577   4.986   0.438  15.572  0.5665  0.5084  1.9015
19054TIP3    H278578   5.093   0.461  15.467 -1.6544  0.3487 -0.4948
19055TIP3   OH278579   6.626   5.076   4.867  0.2329  0.5164 -0.1825
19055TIP3    H178580   6.712   5.082   4.826  1.5932 -2.2224  2.0126
19055TIP3    H278581   6.564   5.086   4.794  2.4506 -1.1352 -2.4426
19056TIP3   OH278582   5.044   5.902   5.912 -0.4976  0.3258  0.4942
19056TIP3    H178583   4.968   5.878   5.965 -0.3538  0.3195  0.6948
19056TIP3    H278584   5.117   5.854   5.951 -0.1730  1.2284  1.0004
19057TIP3   OH278585   2.913   1.816   1.669 -0.1032  0.2930 -0.0260
19057TIP3    H178586   2.821   1.794   1.681 -0.0176 -0.2528 -0.3593
19057TIP3    H278587   2.960   1.756   1.726  0.2005 -1.1866 -1.7363
19058TIP3   OH278588   4.386   0.334  12.316 -0.2092 -0.2038  0.3541
19058TIP3    H178589   4.426   0.315  12.401  0.7657 -1.0005 -0.2560
19058TIP3    H278590   4.440   0.403  12.279  1.1498 -1.8306 -0.8122
19059TIP3   OH278591   2.638   4.067  10.967  0.0246 -0.1339 -0.1750
19059TIP3    H178592   2.668   4.115  10.890  1.4419  0.0099  0.4388
19059TIP3    H278593   2.691   3.987  10.967 -0.2712 -0.3327  0.3998
19060TIP3   OH278594   6.645   4.336  11.468 -0.3005  0.2842  0.2301
19060TIP3    H178595   6.739   4.332  11.487  0.1605  0.9648 -1.7028
19060TIP3    H278596   6.605   4.281  11.536  1.4872 -0.0957  1.0453
19061TIP3   OH278597   4.213   3.783   3.274  0.2059 -0.1218  0.0313
19061TIP3    H178598   4.150   3.711   3.284  1.0388 -0.9630 -0.5676
19061TIP3    H278599   4.238   3.779   3.182 -0.7179  1.8045 -0.3415
19062TIP3   OH278600   6.546   4.070  11.695 -0.2652  0.0400 -0.2207
19062TIP3    H178601   6.563   4.112  11.779 -1.0889 -1.2424  0.6281
19062TIP3    H278602   6.478   4.122  11.654 -0.9853 -0.2148  0.6306
19063TIP3   OH278603   6.050   3.556   6.190  0.1940  0.4342 -0.0994
19063TIP3    H178604   5.997   3.535   6.113 -2.4043  1.6110  1.2128
19063TIP3    H278605   6.093   3.474   6.213 -1.6913 -0.8435 -0.8555
19064TIP3   OH278606   6.386   3.699  15.011 -0.1474  0.4510  0.0845
19064TIP3    H178607   6.349   3.685  14.924  1.1270  0.9277 -0.5653
19064TIP3    H278608   6.459   3.760  14.996 -1.8454  3.1497  1.9176
19065TIP3   OH278609   4.604   1.301   1.744 -0.3880 -0.4209 -0.5252
19065TIP3    H178610   4.688   1.346   1.753 -0.3837 -0.5267 -0.0115
19065TIP3    H278611   4.602   1.273   1.653 -0.5244  0.8845 -0.9526
19066TIP3   OH278612   1.107   6.614  10.935  0.2153  0.6620 -0.3227
19066TIP3    H178613   1.032   6.658  10.893 -0.7165 -1.6842 -1.3146
19066TIP3    H278614   1.183   6.648  10.889 -0.6187 -0.0369 -2.3512
19067TIP3   OH278615   0.157   4.210  15.038 -0.1356 -0.3483 -0.3992
19067TIP3    H178616   0.095   4.229  15.109 -0.4215  0.4309 -0.8413
19067TIP3    H278617   0.102   4.191  14.963  0.1692 -1.0460 -0.4489
19068TIP3   OH278618   1.051   2.177   3.017 -0.1195 -0.1358  0.1203
19068TIP3    H178619   1.034   2.219   2.933 -0.7907  0.6366  0.6186
19068TIP3    H278620   1.132   2.216   3.048  1.7216 -2.4594 -1.4044
19069TIP3   OH278621   6.325   3.674  16.504 -0.1713 -0.3253 -0.6196
19069TIP3    H178622   6.240   3.629  16.502  0.3955 -1.4751  0.1374
19069TIP3    H278623   6.344   3.684  16.597  1.9872 -2.9831 -0.6788
19070TIP3   OH278624   1.869   0.025  10.632  0.1404  0.2348 -0.2035
19070TIP3    H178625   1.946   0.083  10.635  0.2133  0.3407 -2.4594
19070TIP3    H278626   1.842   0.026  10.540 -1.5490 -1.1495  0.2297
19071TIP3   OH278627   3.724   2.151  12.493 -0.2000 -0.2393 -0.3573
19071TIP3    H178628   3.714   2.219  12.560 -3.1137 -0.8452 -0.0515
19071TIP3    H278629   3.747   2.072  12.541 -0.1206 -0.1968 -0.3257
19072TIP3   OH278630   1.125   0.448  11.961  0.1670  0.6133 -0.4613
19072TIP3    H178631   1.164   0.506  12.026  1.2515 -0.0156 -0.5378
19072TIP3    H278632   1.079   0.382  12.012 -1.5374  1.7938 -0.3718
19073TIP3   OH278633   3.372   2.068  11.169 -0.2183 -0.7424  0.1967
19073TIP3    H178634   3.423   2.117  11.104 -0.2976  1.0991  1.4398
19073TIP3    H278635   3.292   2.043  11.123 -0.8539  1.6538 -0.1366
19074TIP3   OH278636   3.923   0.041  10.742  0.1668 -0.0221  0.1856
19074TIP3    H178637   3.865   0.115  10.728  0.9353  0.6445  0.4145
19074TIP3    H278638   4.007   0.069  10.705  0.7842 -0.3102  1.3092
19075TIP3   OH278639   4.644   2.229   3.246  0.1807  0.1217  0.1702
19075TIP3    H178640   4.739   2.223   3.254  0.2005  1.1076  0.8173
19075TIP3    H278641   4.615   2.138   3.235  1.1317 -0.2498  0.6153
19076TIP3   OH278642   5.498   3.241   3.724  0.7971 -0.4316  0.0485
19076TIP3    H178643   5.453   3.215   3.805 -0.1788 -0.9488 -0.6418
19076TIP3    H278644   5.591   3.236   3.746  0.5783 -1.8801  0.7614
19077TIP3   OH278645   0.196   3.782   5.713  0.3967  0.6411 -0.0292
19077TIP3    H178646   0.106   3.768   5.742 -0.2542  0.1203 -2.1051
19077TIP3    H278647   0.200   3.876   5.692  0.5115  0.7686  0.5368
19078TIP3   OH278648   6.156   6.144   5.406 -0.0311 -0.1947  0.1990
19078TIP3    H178649   6.077   6.153   5.459 -0.6440  0.7905 -0.8296
19078TIP3    H278650   6.143   6.063   5.357 -1.6246  1.2222 -1.8549
19079TIP3   OH278651   1.777   1.907  12.394  0.0838  0.1518  0.5673
19079TIP3    H178652   1.867   1.930  12.373  0.4107 -0.5039  1.1780
19079TIP3    H278653   1.732   1.904  12.310  0.7876 -0.1357  0.1936
19080TIP3   OH278654   2.349   4.067  14.431  0.0613  0.4216  0.9886
19080TIP3    H178655   2.262   4.052  14.468 -0.7804  0.1696 -0.9575
19080TIP3    H278656   2.369   4.158  14.454 -0.5623  0.3820  1.7377
19081TIP3   OH278657   3.043   2.155  14.040 -0.4128 -0.1239 -0.2305
19081TIP3    H178658   3.023   2.213  14.113  0.1267  1.1882 -1.0895
19081TIP3    H278659   2.960   2.112  14.020 -0.8611  0.4705  0.3047
19082TIP3   OH278660   4.182   4.250  15.812 -0.4165  0.1985 -0.3492
19082TIP3    H178661   4.214   4.321  15.867  1.5195  0.3794 -1.6043
19082TIP3    H278662   4.096   4.279  15.782  0.4062  2.1061 -0.9689
19083TIP3   OH278663   5.477   5.932   5.970 -0.4464 -0.3249 -0.2308
19083TIP3    H178664   5.557   5.951   5.919 -0.1997  1.0636  0.6203
19083TIP3    H278665   5.501   5.953   6.060 -0.8496 -2.8392  0.5406
19084TIP3   OH278666   6.496   0.672  10.653  0.0239 -0.2431  0.1129
19084TIP3    H178667   6.449   0.673  10.570 -0.2710 -0.4328  0.2760
19084TIP3    H278668   6.427   0.661  10.719  0.4059 -1.9347  0.2679
19085TIP3   OH278669   3.552   4.412  14.073  0.1886 -0.3137 -0.2259
19085TIP3    H178670   3.633   4.378  14.111  0.6115  0.1929 -0.6560
19085TIP3    H278671   3.565   4.507  14.070 -0.7412 -0.1482  0.4223
19086TIP3   OH278672   4.334   3.812  14.062  0.6941 -0.0669  0.2664
19086TIP3    H178673   4.316   3.718  14.053 -1.4565  0.2551  0.7958
19086TIP3    H278674   4.258   3.847  14.106  2.2882  1.6666  1.8014
19087TIP3   OH278675   6.084   5.240  17.358 -0.0265 -0.1877 -0.0846
19087TIP3    H178676   6.021   5.287  17.412  0.7549  0.5723  0.1863
19087TIP3    H278677   6.043   5.238  17.271 -0.3529  0.4283  0.0481
19088TIP3   OH278678   3.711   0.776   0.829  0.3970  0.3552 -0.4227
19088TIP3    H178679   3.684   0.818   0.748 -0.7797  1.7123  0.6286
19088TIP3    H278680   3.796   0.816   0.850  0.6234  0.1213 -0.8861
19089TIP3   OH278681   4.936   5.019   3.663 -0.5601 -0.0934  0.0630
19089TIP3    H178682   4.938   4.950   3.597 -1.9459  0.4064 -0.5254
19089TIP3    H278683   4.843   5.031   3.684 -0.6139  2.8746 -1.2697
19090TIP3   OH278684   3.396   4.413   4.064 -0.0740  0.0004  0.3433
19090TIP3    H178685   3.350   4.405   4.147  0.0204 -0.6547  0.3348
19090TIP3    H278686   3.326   4.427   4.000 -0.0210  3.0858  0.8110
19091TIP3   OH278687   3.592   1.450   1.712  0.0176  0.1486 -0.5886
19091TIP3    H178688   3.654   1.385   1.745 -0.1308  1.1485  1.8805
19091TIP3    H278689   3.637   1.491   1.639  1.1972 -0.9064 -0.4813
19092TIP3   OH278690   1.073   0.910   4.935  0.6582  0.6955 -0.5218
19092TIP3    H178691   1.110   0.846   4.995 -0.7854  0.7578  0.4892
19092TIP3    H278692   1.131   0.986   4.941  1.7105 -0.0673 -0.8337
19093TIP3   OH278693   5.473   5.877  14.879  0.0247  0.2530 -1.0275
19093TIP3    H178694   5.545   5.910  14.826  0.5277 -0.8836 -1.0959
19093TIP3    H278695   5.400   5.869  14.818 -0.1417  1.3209 -0.9797
19094TIP3   OH278696   1.237   0.905   2.378 -0.2080  0.5327  0.5087
19094TIP3    H178697   1.218   0.927   2.470 -0.5822 -0.4239  0.6673
19094TIP3    H278698   1.312   0.846   2.383  1.2013  2.2186  0.0422
19095TIP3   OH278699   0.732   5.550  12.368  0.2221 -0.1826 -0.1645
19095TIP3    H178700   0.779   5.582  12.292 -0.0194 -1.6091 -0.9631
19095TIP3    H278701   0.786   5.576  12.443  1.4131 -0.3227 -0.9481
19096TIP3   OH278702   6.273   5.932   1.409  0.2868 -0.2937 -0.3713
19096TIP3    H178703   6.180   5.912   1.423  0.3684 -1.5008 -1.3604
19096TIP3    H278704   6.308   5.943   1.498 -0.0321 -3.6527  0.3035
19097TIP3   OH278705   1.099   1.640  10.883  0.0969  0.2190 -0.0445
19097TIP3    H178706   1.195   1.635  10.880  0.1635  0.7006  0.9313
19097TIP3    H278707   1.078   1.713  10.825  0.2609 -0.3698 -0.8584
19098TIP3   OH278708   4.498   5.946   2.532 -0.3818 -0.0155 -0.8082
19098TIP3    H178709   4.565   5.889   2.494  0.0269  0.4436 -0.7878
19098TIP3    H278710   4.478   5.905   2.617  0.0270 -0.0415 -0.7199
19099TIP3   OH278711   0.916   3.169   3.939  0.4883  0.2270  0.7693
19099TIP3    H178712   0.920   3.099   4.004 -1.0823  0.6127  1.3314
19099TIP3    H278713   0.881   3.127   3.860 -0.7561  0.4024  1.2013
19100TIP3   OH278714   3.246   4.309   3.640 -0.4012 -0.2701 -0.2788
19100TIP3    H178715   3.311   4.315   3.570  0.7980  1.1556  0.8694
19100TIP3    H278716   3.207   4.223   3.629  1.2194 -0.9239 -1.4341
19101TIP3   OH278717   4.668   5.556   5.178  0.0517  0.2103  0.4250
19101TIP3    H178718   4.733   5.626   5.179  0.0058  0.2630  0.0608
19101TIP3    H278719   4.584   5.601   5.187  0.0362  0.1866  0.4021
19102TIP3   OH278720   5.081   3.644  14.954  0.2595 -0.3991  0.6527
19102TIP3    H178721   5.044   3.556  14.953  0.9498 -0.7087 -0.4392
19102TIP3    H278722   5.006   3.703  14.957 -0.4005 -1.0049 -1.8733
19103TIP3   OH278723   5.417   4.967  16.520 -0.0608 -0.0205  0.0910
19103TIP3    H178724   5.463   4.887  16.548 -0.8664 -0.0542  1.3839
19103TIP3    H278725   5.375   4.999  16.599  1.7937  2.7853  0.0712
19104TIP3   OH278726   2.884   3.462  16.404  0.0202  0.2029 -0.3962
19104TIP3    H178727   2.858   3.376  16.439 -1.7774  1.1033  0.6355
19104TIP3    H278728   2.966   3.482  16.450 -0.9888  0.2266  1.5169
19105TIP3   OH278729   2.915   1.252  16.942  0.0726  0.5392  0.4510
19105TIP3    H178730   2.988   1.215  16.892 -0.9123  1.2365 -1.5951
19105TIP3    H278731   2.924   1.213  17.029  0.9158 -2.0445 -0.6965
19106TIP3   OH278732   4.633   3.280   5.279 -0.3049 -0.0101  0.3594
19106TIP3    H178733   4.596   3.359   5.318 -0.8216  1.6016 -3.0044
19106TIP3    H278734   4.727   3.290   5.290 -0.4460  0.0950  1.6103
19107TIP3   OH278735   3.553   2.615  15.824  0.2666 -0.1751  0.2707
19107TIP3    H178736   3.531   2.694  15.874  1.3480  0.1914  0.2032
19107TIP3    H278737   3.469   2.572  15.809 -0.2783  0.6518  0.8265
19108TIP3   OH278738   5.257   6.421   2.912  0.3224 -0.1568 -0.3982
19108TIP3    H178739   5.203   6.435   2.835  1.4120 -1.6468 -1.5029
19108TIP3    H278740   5.338   6.469   2.894  0.3770 -0.0836  0.0365
19109TIP3   OH278741   3.631   0.071  13.744  0.2010  0.1132  0.1775
19109TIP3    H178742   3.649   0.155  13.788 -0.7721  0.2927  0.2682
19109TIP3    H278743   3.617   0.009  13.816 -2.4954  0.6449  0.2268
19110TIP3   OH278744   4.301   5.731  11.731  0.1332 -0.0967 -0.0954
19110TIP3    H178745   4.259   5.700  11.651  2.0524  0.9513 -1.5836
19110TIP3    H278746   4.374   5.671  11.744 -0.4816 -0.6046  1.2552
19111TIP3   OH278747   5.764   5.099   2.730 -0.1376 -0.2346  0.1673
19111TIP3    H178748   5.787   5.192   2.726 -0.9558 -0.0775 -1.7170
19111TIP3    H278749   5.840   5.058   2.772 -0.1054  1.3546  1.7935
19112TIP3   OH278750   2.866   4.428   0.849 -0.6456 -0.4347  0.1284
19112TIP3    H178751   2.857   4.506   0.793  1.2528  0.2333  0.6825
19112TIP3    H278752   2.928   4.372   0.803 -1.2524 -1.2014  0.2141
19113TIP3   OH278753   2.229   1.496   6.337 -0.3122  0.0112  0.1503
19113TIP3    H178754   2.228   1.524   6.429  1.0618 -0.3707  0.3047
19113TIP3    H278755   2.187   1.568   6.290 -0.5143  0.4759  1.0207
19114TIP3   OH278756   2.222   0.472  13.071 -0.2761  0.2080  0.0185
19114TIP3    H178757   2.188   0.532  13.005 -2.5776  0.3703  1.2461
19114TIP3    H278758   2.195   0.509  13.154  0.9287 -0.9580  0.9783
19115TIP3   OH278759   5.708   0.401  15.543 -0.4868  0.4811 -0.0993
19115TIP3    H178760   5.719   0.431  15.634  0.3570  0.7972 -0.2937
19115TIP3    H278761   5.787   0.432  15.499 -0.5145 -0.3727 -0.7595
19116TIP3   OH278762   4.897   6.305  16.846 -0.1606 -0.5369 -0.1488
19116TIP3    H178763   4.828   6.325  16.782 -0.7580 -0.6687  0.4464
19116TIP3    H278764   4.970   6.275  16.792 -0.7473 -0.9031 -0.7668
19117TIP3   OH278765   4.686   1.156   5.304 -0.0110  0.3854 -0.1498
19117TIP3    H178766   4.722   1.235   5.345  0.1657 -0.1929  0.8450
19117TIP3    H278767   4.609   1.135   5.357 -0.0867 -0.0858 -0.4383
19118TIP3   OH278768   0.793   3.879   1.271  0.2422 -0.3702 -0.8171
19118TIP3    H178769   0.834   3.845   1.192 -0.2737 -0.6843 -0.9551
19118TIP3    H278770   0.715   3.925   1.240 -1.0082 -2.1005 -0.3674
19119TIP3   OH278771   1.339   4.310  15.140 -0.2273  0.5579 -0.8336
19119TIP3    H178772   1.350   4.232  15.194  0.8633  2.1952  1.4922
19119TIP3    H278773   1.421   4.317  15.092  1.1329  1.9211  1.4515
19120TIP3   OH278774   3.664   0.787   5.023  0.4841  0.2236 -0.8516
19120TIP3    H178775   3.710   0.867   4.998 -1.3271  0.7617 -2.6060
19120TIP3    H278776   3.722   0.716   4.993  1.2507  0.8571 -0.9140
19121TIP3   OH278777   3.815   6.567  10.919  0.3203 -0.7308 -0.0615
19121TIP3    H178778   3.848   6.628  10.853 -2.1616 -0.1621 -0.8772
19121TIP3    H278779   3.795   6.487  10.871  0.5072 -1.0718  0.4191
19122TIP3   OH278780   4.671   4.240   1.802 -0.0118 -0.3318  0.1205
19122TIP3    H178781   4.615   4.221   1.877  1.7515  0.4893  1.7175
19122TIP3    H278782   4.638   4.323   1.768 -1.2399 -1.0343 -0.4945
19123TIP3   OH278783   4.939   0.283  11.274 -0.0272  0.0260 -0.3073
19123TIP3    H178784   4.911   0.193  11.257 -0.9409  0.3777 -0.7697
19123TIP3    H278785   4.933   0.326  11.189  0.3397  0.5393 -0.0772
19124TIP3   OH278786   3.905   4.713  12.225  0.1393 -0.2064 -0.3304
19124TIP3    H178787   3.905   4.727  12.320 -0.1614 -0.3081 -0.3136
19124TIP3    H278788   3.997   4.698  12.203  0.4011  1.1361 -0.2545
19125TIP3   OH278789   1.507   0.920   6.764  0.6587 -0.2165  0.2398
19125TIP3    H178790   1.411   0.915   6.762  0.6032 -0.5696  1.9752
19125TIP3    H278791   1.527   1.014   6.758  0.1675 -0.0915  0.5278
19126TIP3   OH278792   0.450   3.625   4.764 -0.0432  0.3162 -0.2400
19126TIP3    H178793   0.512   3.602   4.696 -1.7527 -2.4682 -1.0036
19126TIP3    H278794   0.366   3.636   4.718 -0.9903 -0.4115  1.2186
19127TIP3   OH278795   5.363   2.677   5.224 -0.1500  0.9925  0.9185
19127TIP3    H178796   5.417   2.601   5.245  2.2211  2.4693  0.5484
19127TIP3    H278797   5.342   2.667   5.132  0.9516  1.1877  0.6234
19128TIP3   OH278798   2.244   0.347  17.619 -0.5515  0.1382 -0.2781
19128TIP3    H178799   2.308   0.399  17.570 -0.6978  0.6718  0.0769
19128TIP3    H278800   2.265   0.256  17.599  0.7261  0.2781  0.3105
19129TIP3   OH278801   3.222   3.230  11.199 -0.4013  0.4441 -0.4713
19129TIP3    H178802   3.249   3.138  11.198  1.9951  1.0852 -1.7152
19129TIP3    H278803   3.186   3.246  11.112  2.6683  1.5043 -1.6895
19130TIP3   OH278804   0.480   2.581   6.535  0.5404  0.4565 -0.0741
19130TIP3    H178805   0.470   2.659   6.480  0.2749 -0.1588 -0.9097
19130TIP3    H278806   0.405   2.527   6.513  1.0404 -0.3041  0.0716
19131TIP3   OH278807   2.596   3.618   4.604 -0.1918 -0.0611 -0.3511
19131TIP3    H178808   2.521   3.630   4.546 -0.0463 -0.4277 -0.6166
19131TIP3    H278809   2.650   3.696   4.590  0.1645 -0.4460 -1.1968
19132TIP3   OH278810   3.564   0.111  11.207  0.0215 -0.7179 -0.1432
19132TIP3    H178811   3.487   0.160  11.235  1.4326  0.9044  1.1190
19132TIP3    H278812   3.535   0.062  11.129 -1.9132  0.8255 -0.4656
19133TIP3   OH278813   6.661   5.839  15.299  0.3466 -0.0276 -0.1430
19133TIP3    H178814   6.679   5.925  15.338  1.1876 -0.3751  0.2755
19133TIP3    H278815   6.566   5.833  15.297  0.2782  0.7653  0.1554
19134TIP3   OH278816   2.705   1.925  15.533  0.1654 -0.1080 -0.0994
19134TIP3    H178817   2.742   2.001  15.489 -1.3203  0.1920 -0.8658
19134TIP3    H278818   2.686   1.956  15.622  0.4979  0.1119 -0.1024
19135TIP3   OH278819   2.613   0.770  16.772  0.6578  0.5725 -0.0347
19135TIP3    H178820   2.671   0.740  16.842 -0.4659 -1.7564 -0.0108
19135TIP3    H278821   2.570   0.848  16.808  0.3656 -0.3674  1.7473
19136TIP3   OH278822   1.362   2.774  16.469  0.9814 -0.5487 -0.1863
19136TIP3    H178823   1.359   2.738  16.558 -0.2990 -0.1677 -0.0653
19136TIP3    H278824   1.374   2.868  16.481 -1.7716 -0.1109 -0.2920
19137TIP3   OH278825   0.725   2.594   0.862  0.0762 -0.0030 -0.2827
19137TIP3    H178826   0.656   2.599   0.797 -1.3103  1.7331  1.2210
19137TIP3    H278827   0.704   2.516   0.914 -0.5226  0.2983 -0.0752
19138TIP3   OH278828   2.026   4.233   0.737 -0.2528  0.0457  0.2359
19138TIP3    H178829   2.077   4.184   0.801  0.5757  0.5718 -0.0063
19138TIP3    H278830   1.935   4.224   0.767  0.2046  1.1505  2.1208
19139TIP3   OH278831   1.488   4.911  13.495  0.1295  0.8818  0.1954
19139TIP3    H178832   1.554   4.965  13.451 -1.4691  1.5826 -1.5116
19139TIP3    H278833   1.487   4.829  13.444 -0.5026  0.9965  0.0143
19140TIP3   OH278834   0.391   5.791   4.395  0.4555 -0.2895 -0.4120
19140TIP3    H178835   0.345   5.809   4.313 -0.2634  1.1449  0.2649
19140TIP3    H278836   0.450   5.865   4.407 -0.5876  0.3525  1.1117
19141TIP3   OH278837   3.595   5.997  11.601  0.4260 -0.3998 -0.4905
19141TIP3    H178838   3.534   6.056  11.645  1.0917  0.2369 -0.4064
19141TIP3    H278839   3.540   5.949  11.539 -0.2998 -0.4029  0.1333
19142TIP3   OH278840   1.003   3.079  11.492  0.1669 -0.4054  0.5086
19142TIP3    H178841   0.984   3.171  11.513 -0.2325 -0.7539  1.7820
19142TIP3    H278842   1.076   3.083  11.430 -0.5805  0.7962 -0.3355
19143TIP3   OH278843   0.559   0.866  15.367  0.3694 -0.2339 -0.1944
19143TIP3    H178844   0.504   0.871  15.445  0.6464 -1.5658  0.0998
19143TIP3    H278845   0.527   0.790  15.319  0.9978 -0.1451 -0.7747
19144TIP3   OH278846   5.416   4.182  14.651  0.5498 -0.2933  0.0878
19144TIP3    H178847   5.494   4.125  14.649  0.9950  0.2410  1.4907
19144TIP3    H278848   5.387   4.185  14.559  0.4045 -2.9020 -0.0341
19145TIP3   OH278849   6.551   3.725   1.599 -0.1226 -0.5047  0.2500
19145TIP3    H178850   6.476   3.779   1.623 -0.8122 -0.5044 -1.6701
19145TIP3    H278851   6.576   3.757   1.512  1.3550 -1.3213  0.3385
19146TIP3   OH278852   6.407   5.626   2.294 -0.3122 -0.3128 -0.2436
19146TIP3    H178853   6.468   5.608   2.223 -0.1838  3.8060 -1.4351
19146TIP3    H278854   6.320   5.615   2.255 -0.2439  0.2008 -0.5558
19147TIP3   OH278855   4.734   2.956   3.097 -0.5684 -0.3793  0.1822
19147TIP3    H178856   4.653   2.949   3.047  1.1924 -1.5281 -2.7860
19147TIP3    H278857   4.789   3.016   3.045  1.5135 -1.9365  0.4532
19148TIP3   OH278858   4.199   5.418  12.711 -0.1873  0.1461  0.2179
19148TIP3    H178859   4.191   5.512  12.698 -2.2952 -0.1312 -0.9586
19148TIP3    H278860   4.283   5.395  12.671 -0.2226  1.3539 -0.5943
19149TIP3   OH278861   0.274   0.602  16.960  0.7018  0.1596 -0.5461
19149TIP3    H178862   0.346   0.665  16.962  0.8465  0.0236 -1.1048
19149TIP3    H278863   0.288   0.548  17.037  0.3421  1.0576  0.1652
19150TIP3   OH278864   2.991   5.343  11.564  0.4148  0.5406  0.1736
19150TIP3    H178865   2.957   5.417  11.514  2.3320  0.6157 -1.0967
19150TIP3    H278866   2.974   5.267  11.509  1.5277  0.4832 -0.1072
19151TIP3   OH278867   1.144   1.444   0.649 -0.3926 -0.3278 -0.1242
19151TIP3    H178868   1.095   1.440   0.567  0.6236 -0.8283 -0.7199
19151TIP3    H278869   1.234   1.464   0.623 -0.1247 -0.1380  0.8997
19152TIP3   OH278870   1.414   4.801  16.865  0.8780  0.0641 -0.3059
19152TIP3    H178871   1.351   4.863  16.902  0.0942 -0.8117 -0.1301
19152TIP3    H278872   1.483   4.856  16.829 -0.2526  1.0785 -1.0143
19153TIP3   OH278873   6.017   3.316   2.460 -0.1369  0.3129  0.2570
19153TIP3    H178874   5.950   3.316   2.528 -1.6068 -0.5444 -1.1081
19153TIP3    H278875   6.079   3.383   2.488 -1.7650  1.4343  1.4231
19154TIP3   OH278876   6.349   6.453  17.376  0.2625  0.0712  0.3623
19154TIP3    H178877   6.287   6.488  17.312 -1.9409 -1.2993  1.6347
19154TIP3    H278878   6.318   6.365  17.394  1.9415 -0.2569  1.9108
19155TIP3   OH278879   5.903   5.067  15.079  0.5191 -0.1171  0.3277
19155TIP3    H178880   5.914   5.111  14.995  1.6025 -1.2394 -0.1393
19155TIP3    H278881   5.948   4.984  15.069 -0.0128 -0.6064  1.7693
19156TIP3   OH278882   6.606   0.264  14.641  0.5081 -0.9618  0.1860
19156TIP3    H178883   6.699   0.284  14.646  0.3365 -0.4898  2.8193
19156TIP3    H278884   6.598   0.175  14.674  0.0242 -1.0472 -0.1428
19157TIP3   OH278885   0.418   3.980  16.292  0.4501  0.0431  0.1326
19157TIP3    H178886   0.407   3.896  16.336 -0.7447  0.0635 -0.0759
19157TIP3    H278887   0.396   4.045  16.359  1.7902  0.2257  0.4204
19158TIP3   OH278888   0.509   1.374  17.491  0.6672  0.5244 -0.4311
19158TIP3    H178889   0.578   1.360  17.556  2.1209  0.5800 -1.8896
19158TIP3    H278890   0.509   1.468  17.476 -0.2711  0.6229  0.0837
19159TIP3   OH278891   5.522   0.612   5.910  0.1801 -0.6139  0.6994
19159TIP3    H178892   5.612   0.644   5.903 -0.0148 -0.2062  0.0037
19159TIP3    H278893   5.488   0.615   5.821  0.3216 -3.2943  0.4783
19160TIP3   OH278894   3.616   4.005   1.843 -0.1718  0.8869  0.2841
19160TIP3    H178895   3.531   3.973   1.873  0.3786 -2.6694 -1.4252
19160TIP3    H278896   3.679   3.967   1.903  0.4393 -0.0742 -0.9264
19161TIP3   OH278897   6.323   0.747   1.118  0.1416 -0.2987 -0.3520
19161TIP3    H178898   6.377   0.694   1.176  0.6744 -0.7881 -1.2798
19161TIP3    H278899   6.372   0.829   1.108  1.1768 -1.0798 -1.9010
19162TIP3   OH278900   6.160   1.741  15.318  0.6386  0.2920 -0.1159
19162TIP3    H178901   6.248   1.705  15.324  0.3902 -0.1114  2.4687
19162TIP3    H278902   6.104   1.665  15.299  0.7810  0.5204 -1.5799
19163TIP3   OH278903   4.571   0.471  15.729 -0.3720 -0.2302 -0.6050
19163TIP3    H178904   4.499   0.511  15.681 -1.3312 -1.4679 -0.2460
19163TIP3    H278905   4.540   0.464  15.819 -0.6347 -2.5859 -0.8223
19164TIP3   OH278906   2.077   2.323   0.785 -0.2343 -0.7206  0.1961
19164TIP3    H178907   2.099   2.321   0.692  1.6958 -0.8057  0.6216
19164TIP3    H278908   2.075   2.417   0.807  2.3055 -0.7222  0.6825
19165TIP3   OH278909   4.586   0.452   2.051  0.2173  0.2893  1.0024
19165TIP3    H178910   4.591   0.380   2.114 -1.7031  0.6965  1.7158
19165TIP3    H278911   4.509   0.432   1.997 -0.2161  1.6425  1.0584
19166TIP3   OH278912   0.842   1.711  16.050 -0.3119  0.1005 -0.1946
19166TIP3    H178913   0.892   1.634  16.023 -0.5412 -0.3666  0.6793
19166TIP3    H278914   0.846   1.710  16.146  0.7518  1.8811 -0.1701
19167TIP3   OH278915   2.369   3.044   2.657  0.2446  0.4631 -0.0823
19167TIP3    H178916   2.409   3.042   2.570 -2.2331  3.2445 -1.4825
19167TIP3    H278917   2.442   3.029   2.717  2.4467  0.5109 -2.5461
19168TIP3   OH278918   4.625   3.392   1.132 -0.5520 -0.5619 -0.0213
19168TIP3    H178919   4.626   3.454   1.059 -0.6475  1.1600  1.3612
19168TIP3    H278920   4.591   3.443   1.206  0.0364 -2.0753  1.3541
19169TIP3   OH278921   5.950   3.450   1.966 -0.8167 -0.0449  0.6322
19169TIP3    H178922   6.042   3.455   1.989 -0.9315  0.7285  0.9539
19169TIP3    H278923   5.936   3.522   1.904 -1.2235 -0.0860  0.6689
19170TIP3   OH278924   1.589   1.265  12.042 -0.1404  0.1168  0.5350
19170TIP3    H178925   1.624   1.300  12.124  2.2668  0.4604 -0.5584
19170TIP3    H278926   1.638   1.184  12.027 -2.5977 -1.5384  0.8201
19171TIP3   OH278927   4.557   3.346   3.085 -0.1974 -0.1541 -0.6499
19171TIP3    H178928   4.594   3.434   3.076 -0.7305  0.2112  0.5406
19171TIP3    H278929   4.557   3.330   3.179 -0.0596 -1.4650 -0.8574
19172TIP3   OH278930   0.626   5.805   6.061 -0.1704 -0.0807  0.0941
19172TIP3    H178931   0.542   5.806   6.105  0.7094 -1.7805  1.9404
19172TIP3    H278932   0.615   5.743   5.988 -0.5867 -0.0991  0.1752
19173TIP3   OH278933   6.512   6.249  16.779  0.6517 -0.2148  0.0743
19173TIP3    H178934   6.474   6.312  16.841 -0.4140 -1.8136  1.1300
19173TIP3    H278935   6.536   6.174  16.833  1.4466 -0.9126 -1.2155
19174TIP3   OH278936   0.908   5.344   2.898 -0.5050 -0.1647  0.1411
19174TIP3    H178937   0.995   5.313   2.926 -1.6551 -2.9019  1.1107
19174TIP3    H278938   0.910   5.338   2.803  0.6051  0.5543  0.1013
19175TIP3   OH278939   1.590   2.240  14.957 -0.1566  0.3321 -0.2718
19175TIP3    H178940   1.545   2.177  15.015  0.2706  0.4641  0.2146
19175TIP3    H278941   1.683   2.225  14.974 -0.0543  1.5892  0.3881
19176TIP3   OH278942   0.339   0.675   0.926 -0.1067 -0.2720 -0.3586
19176TIP3    H178943   0.328   0.583   0.903 -0.8041 -0.0022 -1.1292
19176TIP3    H278944   0.386   0.714   0.852  0.7056 -0.1150  0.2172
19177TIP3   OH278945   4.618   6.236  16.251  0.9079 -0.7377  1.0618
19177TIP3    H178946   4.671   6.193  16.184  0.8339 -0.7695  1.0234
19177TIP3    H278947   4.560   6.168  16.283 -1.3672 -0.0206 -1.1320
19178TIP3   OH278948   6.461   0.592   4.766 -0.3710 -1.0727 -0.1707
19178TIP3    H178949   6.459   0.681   4.731 -1.0051 -1.3800 -0.9398
19178TIP3    H278950   6.540   0.589   4.820  0.6149 -0.5510 -1.5179
19179TIP3   OH278951   3.610   0.534   4.433  0.4542 -0.4849  0.3135
19179TIP3    H178952   3.569   0.575   4.356 -1.2380  1.9475  2.3465
19179TIP3    H278953   3.704   0.542   4.417  0.1520  0.6044 -1.2151
19180TIP3   OH278954   3.365   2.455   4.529  0.0435 -0.1095  0.6564
19180TIP3    H178955   3.371   2.364   4.559 -1.9812 -1.0788 -1.5914
19180TIP3    H278956   3.275   2.464   4.497  0.7265  2.1571 -0.8529
19181TIP3   OH278957   2.264   5.472   0.799  0.5887 -0.0183  0.3881
19181TIP3    H178958   2.235   5.455   0.889  0.3415 -0.5569  0.2129
19181TIP3    H278959   2.234   5.561   0.781 -1.8746 -0.8460 -0.1078
19182TIP3   OH278960   5.706   4.758   5.785 -0.1285  0.5176 -0.7162
19182TIP3    H178961   5.696   4.851   5.805 -0.9297  0.1337  0.8392
19182TIP3    H278962   5.668   4.713   5.861  1.1557 -1.0772 -0.9588
19183TIP3   OH278963   0.657   5.496   0.623 -0.4942 -0.4271  0.1457
19183TIP3    H178964   0.581   5.521   0.571  1.5958  2.8409 -1.7077
19183TIP3    H278965   0.681   5.576   0.670  1.7462 -1.3697  0.7337
19184TIP3   OH278966   6.085   0.835   3.870  0.3222  0.1900  0.5260
19184TIP3    H178967   6.049   0.786   3.796  1.4387  0.7620 -0.4344
19184TIP3    H278968   6.164   0.786   3.894  0.5649  0.6200  0.6053
19185TIP3   OH278969   3.003   4.130   3.345  0.3061 -0.2869  0.5498
19185TIP3    H178970   2.961   4.156   3.427 -0.2739 -1.4948  0.6438
19185TIP3    H278971   2.997   4.208   3.290  0.1989  0.3586  1.4509
19186TIP3   OH278972   4.179   2.929   1.811 -0.1229 -0.3980 -0.5041
19186TIP3    H178973   4.086   2.915   1.829 -0.3773 -0.5117 -1.8495
19186TIP3    H278974   4.183   3.016   1.771  0.3567 -0.3787 -0.4163
19187TIP3   OH278975   2.764   4.386   3.291  0.1175 -0.3131 -0.4639
19187TIP3    H178976   2.670   4.403   3.289 -0.0202 -0.8486  0.6120
19187TIP3    H278977   2.795   4.430   3.370  0.5568 -1.1152 -0.1767
19188TIP3   OH278978   3.246   2.143   3.752  0.0760  0.0107  0.5037
19188TIP3    H178979   3.200   2.220   3.784  0.1493 -0.3044  1.4128
19188TIP3    H278980   3.183   2.071   3.762 -1.2003  0.3846 -3.3580
19189TIP3   OH278981   3.652   0.850  13.877 -0.4591 -0.7569 -0.1350
19189TIP3    H178982   3.562   0.859  13.846 -0.0063 -0.6557 -1.4993
19189TIP3    H278983   3.703   0.840  13.797  0.5676 -2.4216  0.6651
19190TIP3   OH278984   5.366   6.075   4.781  0.0730 -0.0758  0.1623
19190TIP3    H178985   5.320   6.111   4.856 -0.0546 -0.3085  0.1991
19190TIP3    H278986   5.450   6.044   4.816  0.1008  0.0085  0.1685
19191TIP3   OH278987   3.601   1.523  12.695  0.0115  0.0532 -0.9853
19191TIP3    H178988   3.560   1.594  12.647  2.0658  2.0435  0.0132
19191TIP3    H278989   3.573   1.535  12.786  0.7099 -0.1188 -0.7336
19192TIP3   OH278990   4.332   3.538   3.677 -0.2261 -0.8443 -0.0908
19192TIP3    H178991   4.367   3.528   3.589 -0.3982 -1.0966 -0.1312
19192TIP3    H278992   4.241   3.509   3.671 -0.8008  0.8583 -0.2403
19193TIP3   OH278993   3.162   6.289  15.136  0.1438 -0.0367  0.2391
19193TIP3    H178994   3.249   6.254  15.114  1.0862  0.9764  2.1031
19193TIP3    H278995   3.105   6.212  15.139  1.3418 -0.9335  0.6241
19194TIP3   OH278996   0.674   2.533  15.269  0.0663  0.3214  0.5208
19194TIP3    H178997   0.655   2.520  15.362  3.6823  0.1643  1.3882
19194TIP3    H278998   0.617   2.471  15.224 -0.0422 -1.4423  2.8648
19195TIP3   OH278999   6.108   1.978   6.001  0.3375  0.1417  0.0458
19195TIP3    H179000   6.038   1.962   6.065 -0.0032  2.4496  0.3188
19195TIP3    H279001   6.071   1.948   5.918 -1.0207  1.3452  0.1834
19196TIP3   OH279002   1.518   3.212  15.644 -0.2876  0.0831  0.1192
19196TIP3    H179003   1.579   3.142  15.618  0.1626  0.5419 -0.0711
19196TIP3    H279004   1.565   3.293  15.626 -1.6065  0.5164 -1.7802
19197TIP3   OH279005   6.075   4.257   4.337  0.3402 -0.3085 -0.2945
19197TIP3    H179006   6.146   4.294   4.388  1.0841 -0.8691 -0.9031
19197TIP3    H279007   6.059   4.170   4.375 -1.1513  0.4352  0.8933
19198TIP3   OH279008   5.720   1.447  14.768 -0.3043 -0.6531  0.3630
19198TIP3    H179009   5.774   1.456  14.690  0.7910 -0.7724  1.0988
19198TIP3    H279010   5.709   1.537  14.801  0.1225 -0.7111  0.6654
19199TIP3   OH279011   1.625   5.895  11.777 -0.6027 -0.2981  0.7174
19199TIP3    H179012   1.680   5.876  11.853  1.0164  2.2101  0.3087
19199TIP3    H279013   1.535   5.890  11.811 -0.3975 -5.1613  1.2533
19200TIP3   OH279014   2.744   5.393   3.215  0.0653 -0.1414  0.4973
19200TIP3    H179015   2.756   5.302   3.189 -3.5128 -0.1245 -1.8717
19200TIP3    H279016   2.760   5.443   3.135 -0.8984  0.9966  0.9850
19201TIP3   OH279017   4.096   5.639  14.858  0.3643  0.1375 -0.0469
19201TIP3    H179018   4.051   5.716  14.891 -1.3145 -0.6702 -0.3356
19201TIP3    H279019   4.087   5.574  14.928  1.0740 -0.0408 -0.1164
19202TIP3   OH279020   2.570   2.507   1.390 -0.0586 -0.3678 -0.3094
19202TIP3    H179021   2.561   2.473   1.300 -0.7380  0.2004 -0.4675
19202TIP3    H279022   2.485   2.549   1.408 -0.0074 -0.6675  0.6830
19203TIP3   OH279023   0.018   6.709   5.047 -0.2884 -0.1234 -0.0202
19203TIP3    H179024   0.039   6.798   5.074  3.9369 -0.8823 -0.0643
19203TIP3    H279025   0.067   6.697   4.965 -2.0754 -1.9946 -0.9038
19204TIP3   OH279026   4.195   5.595  16.589 -0.0102 -0.0370  0.5091
19204TIP3    H179027   4.274   5.541  16.581 -0.7529 -1.9558  4.0695
19204TIP3    H279028   4.130   5.549  16.536  0.9458  1.1540 -1.8475
19205TIP3   OH279029   5.479   0.411  15.409  0.2918  1.1435  0.2110
19205TIP3    H179030   5.458   0.320  15.386 -1.8495  1.2401  1.5258
19205TIP3    H279031   5.552   0.404  15.470 -0.5039  0.2142  1.0882
19206TIP3   OH279032   2.663   1.465   0.538 -0.5915  0.4561 -0.0967
19206TIP3    H179033   2.753   1.443   0.564 -0.1914  0.5460 -1.3056
19206TIP3    H279034   2.632   1.387   0.491 -1.4957  0.0705  1.1095
19207TIP3   OH279035   3.052   1.938   1.257 -0.0711 -0.7728 -0.2420
19207TIP3    H179036   3.070   1.898   1.172  0.9426 -0.3494 -0.2440
19207TIP3    H279037   3.033   2.029   1.237  0.8183 -0.5172  0.0226
19208TIP3   OH279038   4.689   1.200  15.157 -0.2373 -0.4588 -0.1154
19208TIP3    H179039   4.606   1.153  15.168 -0.3643 -0.3451 -0.5511
19208TIP3    H279040   4.670   1.265  15.088  0.3595 -0.7696 -0.5772
19209TIP3   OH279041   5.528   5.756  11.714 -0.2627  0.0436  0.4804
19209TIP3    H179042   5.527   5.835  11.659  0.9273 -0.9918 -1.1273
19209TIP3    H279043   5.436   5.733  11.725 -0.6094  1.4267  0.6544
19210TIP3   OH279044   4.649   6.206   4.297 -0.3628  0.2587  0.1887
19210TIP3    H179045   4.668   6.300   4.301  0.4932  0.0789  0.4733
19210TIP3    H279046   4.696   6.175   4.219  0.8815 -0.2561  1.1095
19211TIP3   OH279047   6.362   1.038   0.519  0.2720  0.0541  0.0239
19211TIP3    H179048   6.405   0.953   0.524  0.8825  0.3759  0.4179
19211TIP3    H279049   6.341   1.050   0.427  0.3420 -0.4413 -0.0574
19212TIP3   OH279050   1.818   2.455  14.497  0.3546  0.6959  0.1842
19212TIP3    H179051   1.844   2.403  14.422 -0.1504 -0.3291  0.7026
19212TIP3    H279052   1.890   2.447  14.559 -0.0019  0.0747  0.5251
19213TIP3   OH279053   0.075   0.233  15.624  0.0184  0.2927  0.3685
19213TIP3    H179054   0.047   0.171  15.557  1.2503 -0.3535  0.4219
19213TIP3    H279055   0.051   0.192  15.707  1.7694 -0.6320  0.4457
19214TIP3   OH279056   5.386   3.736  12.323  0.0454 -0.1165 -0.1791
19214TIP3    H179057   5.391   3.813  12.267  2.1417 -0.9929 -1.3020
19214TIP3    H279058   5.329   3.676  12.277 -0.7578  0.3399  0.1966
19215TIP3   OH279059   6.115   3.374  13.390  0.0220  0.0654  0.0434
19215TIP3    H179060   6.119   3.391  13.296  2.6235  0.7810  0.2009
19215TIP3    H279061   6.136   3.458  13.431  0.1741 -0.5203  1.2227
19216TIP3   OH279062   1.639   0.645   3.270 -0.4815 -0.1649  0.1765
19216TIP3    H179063   1.732   0.625   3.259 -0.2119  0.0619  1.7422
19216TIP3    H279064   1.600   0.627   3.185  1.1170  0.4414 -0.7214
19217TIP3   OH279065   5.584   1.027   4.867 -0.1778  0.1490  0.4150
19217TIP3    H179066   5.677   1.002   4.872 -0.3466 -1.9481 -3.1901
19217TIP3    H279067   5.580   1.087   4.792 -1.7940 -0.5658 -0.1133
19218TIP3   OH279068   1.089   4.250   1.917 -0.2639  1.0031  0.3607
19218TIP3    H179069   1.121   4.314   1.982  1.2820  0.1836  0.4674
19218TIP3    H279070   1.169   4.213   1.880 -1.1108 -1.2589  0.6876
19219TIP3   OH279071   1.768   0.897  12.884  0.3565  0.0460 -0.2382
19219TIP3    H179072   1.861   0.895  12.908  0.1529 -0.8536  0.5648
19219TIP3    H279073   1.734   0.976  12.926  0.3572 -0.6697  1.1816
19220TIP3   OH279074   6.017   1.905  15.711  0.4110  0.3143  0.1375
19220TIP3    H179075   6.033   1.930  15.620  3.2724 -0.8169  0.2193
19220TIP3    H279076   5.933   1.860  15.709  0.8849 -0.6009 -2.1857
19221TIP3   OH279077   3.399   3.919   3.534  0.1001  0.1329  0.1287
19221TIP3    H179078   3.362   4.000   3.570 -0.2573 -0.1658  0.4415
19221TIP3    H279079   3.399   3.933   3.439  1.0409  0.9225  0.2227
19222TIP3   OH279080   1.516   0.339  15.244  0.1020  0.4715 -0.5585
19222TIP3    H179081   1.457   0.316  15.316  1.0947  0.2588  0.2028
19222TIP3    H279082   1.482   0.290  15.169  0.0156 -0.6086  0.1644
19223TIP3   OH279083   6.228   0.202  11.228 -0.2779 -0.5896 -0.0008
19223TIP3    H179084   6.175   0.125  11.247  1.8819 -2.4113 -0.8180
19223TIP3    H279085   6.283   0.214  11.306 -1.0177  0.5181  0.3628
19224TIP3   OH279086   3.588   4.627   1.547  0.5702  0.2574 -0.0185
19224TIP3    H179087   3.665   4.684   1.548  1.0172 -0.3331 -0.4327
19224TIP3    H279088   3.515   4.686   1.564  1.4111  0.2989  4.4667
19225TIP3   OH279089   0.841   3.143  12.245  0.5943  0.2153  0.3603
19225TIP3    H179090   0.891   3.063  12.260  1.2039  0.4489 -0.3652
19225TIP3    H279091   0.759   3.113  12.205  0.3513 -0.1305  1.1113
19226TIP3   OH279092   0.175   3.396  15.421 -0.2911  0.2688  0.3660
19226TIP3    H179093   0.182   3.301  15.417 -0.4592  0.1726  1.7837
19226TIP3    H279094   0.083   3.414  15.403 -0.3323  0.1232  0.4226
19227TIP3   OH279095   3.525   3.949   3.808 -0.7588 -0.1132 -0.3002
19227TIP3    H179096   3.507   3.875   3.750  1.2163  0.0396 -1.1664
19227TIP3    H279097   3.575   3.913   3.880 -0.5097  0.2403 -0.2933
19228TIP3   OH279098   3.865   3.596   1.319  0.0071  0.0770 -0.3522
19228TIP3    H179099   3.907   3.601   1.405  0.4771  1.5032 -0.6495
19228TIP3    H279100   3.772   3.582   1.338  0.3641 -1.5860  0.3347
19229TIP3   OH279101   6.556   3.002   5.024 -0.3210  0.4123  0.0215
19229TIP3    H179102   6.624   3.020   5.089 -0.4599 -0.2333  0.3535
19229TIP3    H279103   6.599   2.946   4.959 -0.9600 -1.4880  1.1397
19230TIP3   OH279104   4.990   4.790  13.542 -0.2777  0.2095 -0.0825
19230TIP3    H179105   5.051   4.856  13.574  1.0731 -0.4509 -1.2131
19230TIP3    H279106   5.010   4.712  13.594 -2.4533  0.8513  1.8589
19231TIP3   OH279107   3.680   4.573  12.297 -0.3781 -0.0908  0.6478
19231TIP3    H179108   3.646   4.536  12.215 -0.0662  0.2472  0.3628
19231TIP3    H279109   3.756   4.625  12.270  1.6553 -2.4400  1.4726
19232TIP3   OH279110   2.650   4.203   5.477  0.3295  0.0347  0.3617
19232TIP3    H179111   2.645   4.126   5.421 -1.8243 -0.6510  1.3802
19232TIP3    H279112   2.565   4.246   5.467  0.9404  1.4555  0.9602
19233TIP3   OH279113   0.815   2.188   4.738  0.3825  0.2835 -0.7113
19233TIP3    H179114   0.866   2.187   4.820 -0.7539 -3.6099  0.1738
19233TIP3    H279115   0.882   2.184   4.670  1.3787 -0.8212  0.2616
19234TIP3   OH279116   3.888   0.762   0.488  0.2746 -0.1053 -0.0165
19234TIP3    H179117   3.795   0.776   0.507  0.5289  0.2659  1.0312
19234TIP3    H279118   3.905   0.819   0.413 -0.1347  0.5659  0.3828
19235TIP3   OH279119   0.171   6.546  12.097  0.4029  0.5015  0.5727
19235TIP3    H179120   0.233   6.551  12.024 -0.3880 -1.2786 -0.2929
19235TIP3    H279121   0.161   6.452  12.114  0.0428  0.8462  2.5462
19236TIP3   OH279122   2.941   3.992   4.885 -0.4941  0.2678 -0.5441
19236TIP3    H179123   3.022   3.973   4.838  0.3755  1.5949  0.3694
19236TIP3    H279124   2.904   3.906   4.905  1.6447 -0.4156  0.6618
19237TIP3   OH279125   3.027   3.685  15.841 -0.3260  0.8007  0.3179
19237TIP3    H179126   2.960   3.641  15.894 -1.6369  1.8577 -0.4304
19237TIP3    H279127   3.095   3.618  15.829 -2.1092 -0.9475 -0.5293
19238TIP3   OH279128   3.649   4.733  15.833  0.2647 -0.3350  0.2795
19238TIP3    H179129   3.642   4.782  15.751 -0.8000 -0.8845  0.0171
19238TIP3    H279130   3.591   4.779  15.894  2.2446  1.0205  1.2664
19239TIP3   OH279131   1.587   1.748  17.602 -0.2646 -0.3269 -0.4653
19239TIP3    H179132   1.501   1.775  17.634 -0.6798  0.8860 -2.4787
19239TIP3    H279133   1.597   1.658  17.634 -1.1881  0.3073  1.8483
19240TIP3   OH279134   5.091   2.702   2.916  0.0624  0.0727  0.4813
19240TIP3    H179135   5.138   2.776   2.954  0.6901 -0.3258  0.4927
19240TIP3    H279136   5.010   2.696   2.967 -1.0602  2.1301 -0.9267
19241TIP3   OH279137   4.865   4.938  13.065 -0.2236 -0.7321  0.1307
19241TIP3    H179138   4.897   5.020  13.102  0.2017 -1.0193  0.4084
19241TIP3    H279139   4.875   4.874  13.136 -1.4780 -0.8190  0.2524
19242TIP3   OH279140   0.863   1.512   4.021 -0.2851  0.6876 -0.5861
19242TIP3    H179141   0.956   1.532   4.015  0.3665 -1.1413  1.8959
19242TIP3    H279142   0.829   1.574   4.087 -0.0068 -0.8451  1.0737
19243TIP3   OH279143   1.877   3.934   2.140  0.1978  0.3515  0.3642
19243TIP3    H179144   1.925   3.853   2.125  0.1941  0.6284 -1.4990
19243TIP3    H279145   1.941   4.003   2.123 -0.0578  0.7429  0.9574
19244TIP3   OH279146   3.013   0.135   5.221 -0.0607  0.4234  0.3316
19244TIP3    H179147   3.069   0.192   5.169 -1.2787  0.2611 -1.2247
19244TIP3    H279148   3.062   0.053   5.229  0.1301  0.4435 -0.5897
19245TIP3   OH279149   1.859   2.175  11.146  0.0425 -0.0374  0.5748
19245TIP3    H179150   1.857   2.225  11.065  1.0727  0.2719  0.7288
19245TIP3    H279151   1.891   2.089  11.121 -1.1090 -0.4402  0.4175
19246TIP3   OH279152   4.182   0.168  16.261 -0.1500 -0.0496  0.1847
19246TIP3    H179153   4.276   0.171  16.276 -0.3149 -0.0129  1.3546
19246TIP3    H279154   4.144   0.199  16.344 -1.2079 -1.0496  0.0932
19247TIP3   OH279155   4.385   5.272   5.047  0.1204 -0.3414 -0.2676
19247TIP3    H179156   4.371   5.366   5.033  0.6332 -0.4318 -1.4477
19247TIP3    H279157   4.379   5.233   4.960  2.7006 -1.0274 -0.2190
19248TIP3   OH279158   0.092   2.420   1.122 -0.8349  0.3259  0.8485
19248TIP3    H179159   0.115   2.504   1.081  1.7179 -0.0179  1.3944
19248TIP3    H279160   0.001   2.431   1.149 -0.7412  2.7226  0.4452
19249TIP3   OH279161   6.557   4.770   3.816 -0.1171 -0.0946  0.3546
19249TIP3    H179162   6.490   4.701   3.814 -1.1649  0.9110 -0.4911
19249TIP3    H279163   6.581   4.782   3.724  2.4986 -1.5792  0.7409
19250TIP3   OH279164   3.747   3.909  12.002  0.1041 -0.0632  0.2403
19250TIP3    H179165   3.682   3.974  12.030  2.5083  1.9012  1.7047
19250TIP3    H279166   3.784   3.945  11.922  0.6985 -0.1491  0.4692
19251TIP3   OH279167   1.396   1.083  16.577  0.1855  0.5242 -0.2382
19251TIP3    H179168   1.381   1.173  16.605  1.7625  1.8060 -3.0314
19251TIP3    H279169   1.480   1.059  16.616 -0.5395 -0.0661  1.0464
19252TIP3   OH279170   2.900   5.456  12.206 -0.2118  0.4045 -0.0820
19252TIP3    H179171   2.949   5.416  12.279 -0.7532  0.4489  0.3081
19252TIP3    H279172   2.897   5.549  12.228 -2.6465  0.0915  1.2132
19253TIP3   OH279173   4.919   1.319   4.697 -0.1077 -0.5021  0.2890
19253TIP3    H179174   4.912   1.334   4.791  1.8563 -1.4716  0.6487
19253TIP3    H279175   5.008   1.348   4.675 -1.3528  2.2244 -1.8255
19254TIP3   OH279176   2.780   4.857   2.992 -0.1041 -0.7818 -0.2411
19254TIP3    H179177   2.693   4.829   3.020  0.1709 -2.1888 -0.7315
19254TIP3    H279178   2.769   4.880   2.900 -0.6918  2.4617  0.5243
19255TIP3   OH279179   1.578   2.943  15.387  0.1405 -0.3635  0.1881
19255TIP3    H179180   1.609   2.889  15.459  0.4783 -0.3572  0.0494
19255TIP3    H279181   1.650   3.002  15.368  0.3689 -0.9137 -0.6928
19256TIP3   OH279182   1.404   3.078   2.096  0.4219  0.0665 -0.0621
19256TIP3    H179183   1.331   3.107   2.041 -0.4260  0.3180  1.1421
19256TIP3    H279184   1.447   3.159   2.123  0.1541  0.0125  0.5328
19257TIP3   OH279185   0.307   2.289  13.273  0.0550  0.3207  0.4070
19257TIP3    H179186   0.367   2.303  13.200 -0.1298 -0.8633  0.0034
19257TIP3    H279187   0.344   2.214  13.320 -0.2277  0.6162  1.1157
19258TIP3   OH279188   4.161   3.861  16.267  0.0629  0.9854 -0.0975
19258TIP3    H179189   4.149   3.951  16.236 -0.5007  1.1504  0.5740
19258TIP3    H279190   4.136   3.864  16.359  2.6641  0.7196  0.6884
19259TIP3   OH279191   3.403   6.081   0.902  0.4633  0.0417 -0.0769
19259TIP3    H179192   3.329   6.022   0.912 -1.5924  2.6341  1.1796
19259TIP3    H279193   3.447   6.080   0.987  1.1556 -0.5376 -0.4283
19260TIP3   OH279194   1.552   0.510  12.285  0.1402  0.1251 -0.4194
19260TIP3    H179195   1.583   0.479  12.370  2.8984  0.7411 -1.0753
19260TIP3    H279196   1.471   0.556  12.304 -0.0654 -0.9557  1.6502
19261TIP3   OH279197   3.998   5.320  12.883  0.5740 -0.4025 -0.4114
19261TIP3    H179198   4.047   5.366  12.816  0.9488 -0.8482 -0.4572
19261TIP3    H279199   4.065   5.292  12.946  0.0935  1.0959  0.8123
19262TIP3   OH279200   4.023   0.989   2.655 -0.0359  0.2249 -0.2529
19262TIP3    H179201   3.939   0.993   2.609  0.4577  2.7502 -1.1024
19262TIP3    H279202   4.001   1.000   2.748 -0.6058  2.6739 -0.6149
19263TIP3   OH279203   6.383   3.961  13.997 -0.4900  0.0109  0.0636
19263TIP3    H179204   6.460   3.983  14.049 -3.1227  2.8192  3.2908
19263TIP3    H279205   6.402   3.996  13.910  1.2039  2.5009  1.2873
19264TIP3   OH279206   0.050   4.977   0.854  0.0414  0.0032  0.0692
19264TIP3    H179207   0.121   4.979   0.789 -0.8247  0.0469 -0.8984
19264TIP3    H279208   0.020   4.886   0.853 -0.9494  0.3150 -0.7019
19265TIP3   OH279209   4.312   5.471  13.682 -0.2424  0.5200 -0.4873
19265TIP3    H179210   4.404   5.488  13.662  0.5706 -2.5074  0.0553
19265TIP3    H279211   4.282   5.415  13.610 -0.5319 -1.3826  1.0138
19266TIP3   OH279212   4.964   4.416   3.973 -0.4097 -0.1934 -0.5920
19266TIP3    H179213   5.043   4.418   3.920 -0.6448  2.1170 -0.9939
19266TIP3    H279214   4.903   4.360   3.924  0.0653  0.2606 -1.7322
19267TIP3   OH279215   3.060   2.671   0.763 -0.6421 -0.3645 -0.4373
19267TIP3    H179216   3.057   2.731   0.838  1.1616  0.0260 -0.6506
19267TIP3    H279217   3.002   2.712   0.699 -0.2758  0.5894 -0.1762
19268TIP3   OH279218   3.608   0.076  12.805 -0.3379  0.2078  0.2819
19268TIP3    H179219   3.516   0.100  12.796  0.1362  1.6444 -0.9813
19268TIP3    H279220   3.649   0.152  12.846  0.3946 -0.2295  0.3795
19269TIP3   OH279221   2.201   4.414  11.717 -0.0586  0.0440 -0.3984
19269TIP3    H179222   2.226   4.322  11.724 -0.1979 -0.1076 -1.7351
19269TIP3    H279223   2.105   4.413  11.717 -0.0847  0.0104 -2.2085
19270TIP3   OH279224   2.264   5.452   3.618  0.4458  0.2960  0.2818
19270TIP3    H179225   2.273   5.373   3.671 -0.5674  0.6186  0.9455
19270TIP3    H279226   2.175   5.482   3.633  0.1937  0.5248 -1.4454
19271TIP3   OH279227   3.573   5.788  16.394  0.4805  0.1467  0.1542
19271TIP3    H179228   3.541   5.814  16.307 -1.0693  0.9627  0.9260
19271TIP3    H279229   3.665   5.814  16.394  0.2413  1.0873 -0.8874
19272TIP3   OH279230   1.794   6.162   0.308 -0.2745  0.5539 -0.2510
19272TIP3    H179231   1.816   6.122   0.224  1.2206 -0.4609  0.5728
19272TIP3    H279232   1.726   6.105   0.344 -1.6825  1.5827 -1.1867
19273TIP3   OH279233   3.565   5.665   4.185  0.2387 -0.1786 -0.0845
19273TIP3    H179234   3.485   5.717   4.191  0.5915  0.4095 -0.4412
19273TIP3    H279235   3.608   5.695   4.105  0.2882 -1.2400 -0.4813
19274TIP3   OH279236   3.223   4.347   0.091  0.4908  0.6803 -0.2103
19274TIP3    H179237   3.164   4.340   0.016  0.6128  1.5717 -0.4011
19274TIP3    H279238   3.244   4.257   0.114  0.0050  0.3880 -0.8966
19275TIP3   OH279239   0.094   2.082  17.148 -0.8573 -0.0271  0.4174
19275TIP3    H179240   0.072   2.135  17.072 -1.2673  0.5952  0.9681
19275TIP3    H279241   0.021   2.020  17.156 -0.4332 -0.6204 -0.1542
19276TIP3   OH279242   0.348   1.359   2.422 -0.2250  0.3326 -0.5039
19276TIP3    H179243   0.375   1.420   2.490 -1.2196  0.2905 -0.0494
19276TIP3    H279244   0.291   1.410   2.365  1.3435  0.6244 -1.8771
19277TIP3   OH279245   0.275   1.339   5.546 -0.4744  0.5197  0.1092
19277TIP3    H179246   0.279   1.378   5.459 -0.5004  0.1321 -0.0670
19277TIP3    H279247   0.266   1.413   5.606  2.8243  1.1135  0.0829
19278TIP3   OH279248   2.116   6.512  12.087 -1.0575  0.2844  0.3675
19278TIP3    H179249   2.139   6.420  12.097 -0.6283  0.3155 -0.2745
19278TIP3    H279250   2.098   6.542  12.176  1.9758  0.4105  1.0479
19279TIP3   OH279251   0.200   1.857  15.826 -0.0925  0.0001  0.2160
19279TIP3    H179252   0.247   1.931  15.865 -0.4118 -0.7774  2.2030
19279TIP3    H279253   0.108   1.874  15.847 -0.0216 -1.8139  2.3858
19280TIP3   OH279254   4.104   6.385  15.098  0.0991  0.5013 -0.2871
19280TIP3    H179255   4.070   6.316  15.154 -0.8616  0.3720 -1.0126
19280TIP3    H279256   4.060   6.464  15.127 -0.7619  0.3538 -1.1501
19281TIP3   OH279257   5.295   3.579  12.873 -0.0222  0.4255  0.3711
19281TIP3    H179258   5.205   3.574  12.905  0.7421 -2.7803  2.6132
19281TIP3    H279259   5.295   3.529  12.791 -0.1696 -0.4778  0.9013
19282TIP3   OH279260   0.252   3.872   2.654 -0.3119 -0.7934 -0.7836
19282TIP3    H179261   0.176   3.930   2.653 -0.4933 -0.9868  0.3117
19282TIP3    H279262   0.268   3.852   2.562 -2.0600 -1.3822 -0.9955
19283TIP3   OH279263   4.655   2.853   1.031 -0.0971  0.6527 -0.3216
19283TIP3    H179264   4.608   2.930   1.063  0.0715  0.5075  0.2834
19283TIP3    H279265   4.669   2.871   0.938 -0.4845  1.1348 -0.2933
19284TIP3   OH279266   1.500   2.224  16.075  0.2504 -0.5430 -0.8389
19284TIP3    H179267   1.592   2.251  16.067  0.1793  0.4034  1.1082
19284TIP3    H279268   1.504   2.131  16.096  0.8172 -0.2906  0.2207
19285TIP3   OH279269   3.333   2.892  14.778  0.2273  0.5459  0.3074
19285TIP3    H179270   3.332   2.981  14.743 -1.6790  0.6504  0.5231
19285TIP3    H279271   3.403   2.893  14.844  2.0653  1.0836 -1.5354
19286TIP3   OH279272   2.843   0.427   1.526 -0.7220 -0.6559  0.2318
19286TIP3    H179273   2.762   0.378   1.536 -1.4623  0.7338  1.6254
19286TIP3    H279274   2.911   0.360   1.515 -1.9706 -1.8583 -0.4750
19287TIP3   OH279275   4.257   3.420   3.077  0.3246  0.3404 -0.4416
19287TIP3    H179276   4.342   3.376   3.065  0.0575 -0.5207  0.5881
19287TIP3    H279277   4.200   3.351   3.111 -1.1307  0.6048 -2.1903
19288TIP3   OH279278   6.136   5.373   4.867 -0.3276 -0.8540 -0.1314
19288TIP3    H179279   6.177   5.327   4.940 -0.7179  0.1043  0.7149
19288TIP3    H279280   6.171   5.462   4.872 -0.0710 -0.8762 -1.3502
19289TIP3   OH279281   1.041   5.435   0.518  0.3772  0.3629  0.2411
19289TIP3    H179282   0.985   5.430   0.441  0.1676  0.8163  0.3603
19289TIP3    H279283   1.110   5.371   0.502 -0.6536 -0.8568  0.4921
19290TIP3   OH279284   2.027   2.672  17.017  0.0754  0.1286 -0.2056
19290TIP3    H179285   2.110   2.642  16.981 -0.4067 -2.1255  0.4123
19290TIP3    H279286   2.010   2.614  17.091 -0.6807  2.3895  1.5235
19291TIP3   OH279287   5.027   4.280  14.757 -1.0622  0.9151 -0.1217
19291TIP3    H179288   5.025   4.285  14.662 -0.4377  0.5074 -0.1605
19291TIP3    H279289   5.118   4.260  14.779 -1.1046  1.4366  0.5852
19292TIP3   OH279290   2.452   4.528  16.269 -0.2362 -0.1896 -0.1243
19292TIP3    H179291   2.528   4.499  16.218 -0.0814 -0.5423  0.3041
19292TIP3    H279292   2.428   4.452  16.322 -0.6276  0.0557  0.0517
19293TIP3   OH279293   1.777   0.852   1.625 -0.1890 -0.3028 -0.2829
19293TIP3    H179294   1.804   0.848   1.533 -0.2777 -0.3312 -0.3085
19293TIP3    H279295   1.716   0.925   1.628 -1.7119 -1.4812 -0.6619
19294TIP3   OH279296   3.090   4.523  12.667  0.4225  0.6084 -0.1751
19294TIP3    H179297   3.116   4.515  12.759  1.6180  0.1125 -0.5309
19294TIP3    H279298   3.006   4.479  12.662  1.2263 -1.0535  0.3173
19295TIP3   OH279299   2.372   0.272   6.317 -0.3022  0.1924  0.4420
19295TIP3    H179300   2.425   0.253   6.239  0.0469  2.2775  0.1117
19295TIP3    H279301   2.400   0.206   6.381  1.4810  0.1889 -0.2675
19296TIP3   OH279302   1.272   1.763  17.516 -0.1184  0.2509 -0.1871
19296TIP3    H179303   1.355   1.799  17.486 -0.4217  0.2317 -1.1040
19296TIP3    H279304   1.208   1.792  17.451 -0.8109  0.1627  0.4325
19297TIP3   OH279305   0.508   6.456  13.432 -0.0431  0.3314  0.1350
19297TIP3    H179306   0.480   6.511  13.504 -0.1399  1.3879 -0.6936
19297TIP3    H279307   0.498   6.510  13.354 -1.8343 -1.4149 -0.9534
19298TIP3   OH279308   0.580   1.563   1.928 -0.1320 -0.2484 -0.5376
19298TIP3    H179309   0.601   1.656   1.917  0.6758 -0.1809  1.1886
19298TIP3    H279310   0.552   1.556   2.020 -0.3430 -1.6801 -0.6903
19299TIP3   OH279311   1.888   3.554   2.327 -0.0032  0.4745 -0.0459
19299TIP3    H179312   1.870   3.515   2.412  2.7309 -0.8811  0.0132
19299TIP3    H279313   1.849   3.642   2.333  0.4890  0.6076  2.7895
19300TIP3   OH279314   1.844   2.288   1.224  0.2952  0.1355 -0.0055
19300TIP3    H179315   1.848   2.217   1.159  0.0478  0.4797 -0.4049
19300TIP3    H279316   1.792   2.356   1.181 -0.3429  0.1490  0.7790
19301TIP3   OH279317   0.222   5.153  13.752 -0.5220 -0.7358  0.3995
19301TIP3    H179318   0.283   5.098  13.802 -0.3095 -0.7377  0.1433
19301TIP3    H279319   0.192   5.219  13.814 -0.8917 -1.2271  0.7502
19302TIP3   OH279320   0.821   0.179   6.213  0.1931  0.1706 -0.5290
19302TIP3    H179321   0.817   0.239   6.288  1.3927  0.4581 -0.6790
19302TIP3    H279322   0.886   0.113   6.238 -0.2540 -0.4035 -0.8493
19303TIP3   OH279323   0.208   3.975  14.421  0.3285  0.0712  0.6004
19303TIP3    H179324   0.211   3.922  14.500 -2.3400  0.0545  0.7787
19303TIP3    H279325   0.149   4.047  14.443  0.2690  0.5747 -1.0866
19304TIP3   OH279326   5.975   0.465  16.874 -0.0983 -0.0770  0.0223
19304TIP3    H179327   5.988   0.549  16.919 -1.1491  0.6817 -1.0324
19304TIP3    H279328   5.994   0.399  16.940 -2.6215  0.9748  1.9430
19305TIP3   OH279329   2.639   5.882   0.917  0.0718  0.5490 -0.8173
19305TIP3    H179330   2.633   5.787   0.923 -1.4179  0.7028  0.6857
19305TIP3    H279331   2.610   5.902   0.828  0.8401 -0.3955 -1.3042
19306TIP3   OH279332   2.040   1.623   5.022  0.1996 -0.1289  0.3224
19306TIP3    H179333   2.100   1.643   4.950  1.5472 -1.6136  0.9594
19306TIP3    H279334   1.953   1.634   4.985  0.8540 -0.1001 -1.3004
19307TIP3   OH279335   2.609   4.678   5.613  0.2953 -0.2036  0.1064
19307TIP3    H179336   2.684   4.710   5.563 -0.0310 -0.0100 -0.2670
19307TIP3    H279337   2.588   4.749   5.673  0.2667 -0.1648  0.0509
19308TIP3   OH279338   2.115   3.799  11.884  0.5026  0.1761  0.3742
19308TIP3    H179339   2.121   3.884  11.840  1.6936 -0.4041 -0.6814
19308TIP3    H279340   2.028   3.766  11.862  0.3446  0.7656  0.1076
19309TIP3   OH279341   1.116   5.299  16.689  0.1750 -0.0985  0.0054
19309TIP3    H179342   1.172   5.226  16.661 -1.4847 -1.1885 -0.6471
19309TIP3    H279343   1.034   5.257  16.715 -1.5609  1.6259 -2.2621
19310TIP3   OH279344   0.930   1.402   5.976 -0.0163 -0.3507 -0.3916
19310TIP3    H179345   1.018   1.440   5.980 -0.9130  1.9046 -0.3585
19310TIP3    H279346   0.905   1.408   5.884 -1.2232  1.8649  0.0165
19311TIP3   OH279347   0.819   5.169   2.203 -0.2629 -0.3195  0.6025
19311TIP3    H179348   0.784   5.256   2.183  0.8231 -0.5644 -3.0118
19311TIP3    H279349   0.742   5.111   2.198 -0.5415  0.0714  0.2819
19312TIP3   OH279350   5.980   5.862  16.914 -0.0445  0.6307 -0.0044
19312TIP3    H179351   5.903   5.821  16.953 -0.7932  0.3862 -1.6738
19312TIP3    H279352   6.039   5.878  16.988 -1.0617 -0.5547  1.0966
19313TIP3   OH279353   1.853   5.559  16.965  0.6386 -0.1093 -0.1049
19313TIP3    H179354   1.915   5.486  16.970 -1.3293 -1.8647 -0.0444
19313TIP3    H279355   1.835   5.580  17.057 -0.0324 -0.7009 -0.0871
19314TIP3   OH279356   1.705   3.142   5.670  0.2308 -0.0856  0.3195
19314TIP3    H179357   1.800   3.126   5.669  0.7484  2.6092  0.3745
19314TIP3    H279358   1.678   3.117   5.759  0.3571 -3.1019 -0.3707
19315TIP3   OH279359   3.912   6.614  12.164  0.0162  0.4883  0.0981
19315TIP3    H179360   3.891   6.707  12.155  1.6867  0.8184 -0.8984
19315TIP3    H279361   3.951   6.606  12.251 -1.3729  0.4181  0.7480
19316TIP3   OH279362   4.835   1.887   3.417  0.5629 -0.5628  0.0784
19316TIP3    H179363   4.801   1.951   3.479 -0.3662  1.5090 -2.4126
19316TIP3    H279364   4.925   1.915   3.401 -0.3871  1.4664 -2.4261
19317TIP3   OH279365   3.228   0.423   6.059 -0.2897  0.3085  0.6470
19317TIP3    H179366   3.318   0.402   6.035 -0.3515 -1.7325  2.0199
19317TIP3    H279367   3.236   0.497   6.119  0.2645  1.5125 -0.8313
19318TIP3   OH279368   0.717   6.581  12.802 -0.1594 -0.0100 -0.1667
19318TIP3    H179369   0.632   6.576  12.759 -0.4842  0.0603  0.4516
19318TIP3    H279370   0.729   6.673  12.822  0.4767  0.1115 -1.0506
19319TIP3   OH279371   0.407   3.268  13.136  0.9202  0.2489 -1.0191
19319TIP3    H179372   0.348   3.204  13.096  1.6008 -1.1942  0.1890
19319TIP3    H279373   0.351   3.319  13.196  0.8031 -0.8941 -0.1247
19320TIP3   OH279374   3.191   6.640   5.297  0.4555 -0.3706 -0.1985
19320TIP3    H179375   3.162   6.622   5.387  1.2757 -1.3305 -0.1126
19320TIP3    H279376   3.154   6.568   5.246  0.7794 -0.3379 -0.4753
19321TIP3   OH279377   1.020   5.400   2.407  0.6395 -0.7138 -0.7697
19321TIP3    H179378   1.087   5.331   2.417  0.3707 -0.8579  0.1830
19321TIP3    H279379   0.945   5.367   2.457  0.1254 -0.2067 -1.2030
19322TIP3   OH279380   5.968   5.840  17.207 -0.0770 -0.4976 -0.1437
19322TIP3    H179381   5.922   5.920  17.231  0.1529 -0.3566 -0.1674
19322TIP3    H279382   5.902   5.771  17.211 -0.9412  0.0833 -2.6738
19323TIP3   OH279383   3.588   5.178   1.820 -0.1622  0.5584  0.2443
19323TIP3    H179384   3.543   5.175   1.905 -0.2864  1.1180  0.2041
19323TIP3    H279385   3.663   5.120   1.831 -0.9867 -0.5469  0.2526
19324TIP3   OH279386   5.715   3.225  11.696  0.0435 -0.0039  0.1864
19324TIP3    H179387   5.791   3.282  11.706  0.2530 -0.6403  3.1437
19324TIP3    H279388   5.683   3.243  11.608  1.4788  2.9388  0.1530
19325TIP3   OH279389   3.129   2.985  17.014  0.3988  0.5601 -0.0020
19325TIP3    H179390   3.131   2.982  16.918  0.8897 -0.2553  0.0265
19325TIP3    H279391   3.044   2.948  17.037  0.0306  1.3132 -0.1370
19326TIP3   OH279392   3.808   6.225   4.221  0.0955 -0.2985 -0.5984
19326TIP3    H179393   3.741   6.169   4.182  0.1911  0.5122 -2.0091
19326TIP3    H279394   3.888   6.206   4.172  0.4639  0.0473 -0.1415
19327TIP3   OH279395   5.659   2.905   1.602 -0.3457  0.2476  0.0159
19327TIP3    H179396   5.736   2.962   1.605 -0.0230 -0.1868  0.1138
19327TIP3    H279397   5.591   2.953   1.649 -0.5624  1.2677 -1.2673
19328TIP3   OH279398   3.859   1.432   1.184 -0.4712  0.0130 -0.0035
19328TIP3    H179399   3.908   1.499   1.136  2.4724 -1.9687 -0.0798
19328TIP3    H279400   3.820   1.377   1.116  2.1963 -1.7311 -0.3190
19329TIP3   OH279401   0.494   4.263  13.594 -0.5750 -0.4322 -0.2907
19329TIP3    H179402   0.461   4.349  13.620 -0.5517  0.6050 -3.3738
19329TIP3    H279403   0.438   4.236  13.522 -0.1124 -2.7224  0.1233
19330TIP3   OH279404   4.144   2.055   4.023  0.7233  0.5810 -0.5074
19330TIP3    H179405   4.063   2.005   4.011  1.1810 -0.7094  1.2456
19330TIP3    H279406   4.117   2.132   4.074  0.5023  0.4530 -0.4267
19331TIP3   OH279407   2.965   5.132  16.021 -0.0648  0.0776 -0.1788
19331TIP3    H179408   2.930   5.081  16.093 -0.2846 -0.0137 -0.3483
19331TIP3    H279409   2.913   5.106  15.945 -1.0393  1.4491 -0.0354
19332TIP3   OH279410   5.991   3.494   4.380  0.5403 -0.1692 -0.5000
19332TIP3    H179411   6.017   3.525   4.467 -0.3889 -0.7615  0.0070
19332TIP3    H279412   5.900   3.523   4.371 -0.9705 -3.9278  0.6667
19333TIP3   OH279413   2.193   5.954  10.603  0.1656  0.0944  0.3140
19333TIP3    H179414   2.227   5.893  10.538 -0.7816  1.4721 -1.5440
19333TIP3    H279415   2.243   6.034  10.590 -1.8323  1.2580 -0.6121
19334TIP3   OH279416   2.608   6.090   5.529  0.0094 -0.2670 -0.0787
19334TIP3    H179417   2.673   6.121   5.592  1.1316 -0.5577 -1.0598
19334TIP3    H279418   2.612   6.154   5.458  0.3478 -1.1450 -0.8602
19335TIP3   OH279419   5.866   1.732   0.647  0.4062 -0.0352  0.1119
19335TIP3    H179420   5.896   1.692   0.728 -0.8308 -1.0146  0.1206
19335TIP3    H279421   5.782   1.689   0.628  1.2409 -0.7746 -2.3496
19336TIP3   OH279422   6.308   2.240  13.753 -0.3783 -0.3407  0.0615
19336TIP3    H179423   6.335   2.224  13.663  0.8012 -3.4131  0.8132
19336TIP3    H279424   6.214   2.260  13.747 -0.1234  0.4784 -1.8715
19337TIP3   OH279425   6.277   2.621   1.767  0.3083  0.1163 -0.1831
19337TIP3    H179426   6.290   2.531   1.796 -0.3420  0.1579  0.2623
19337TIP3    H279427   6.187   2.642   1.793  1.2517  1.7662  2.0996
19338TIP3   OH279428   1.884   6.367  13.044 -0.5957 -0.2734 -1.1118
19338TIP3    H179429   1.842   6.290  13.006  0.1799 -1.7515  0.9071
19338TIP3    H279430   1.973   6.339  13.064 -0.8421  0.4734  1.4195
19339TIP3   OH279431   2.181   5.888   1.084 -0.3520 -0.1671 -0.4588
19339TIP3    H179432   2.250   5.854   1.027 -1.8693 -1.2523 -1.7350
19339TIP3    H279433   2.221   5.894   1.170  2.2109  2.0678 -1.6691
19340TIP3   OH279434   2.960   5.235   0.823 -0.1053 -0.2375 -0.1055
19340TIP3    H179435   3.053   5.214   0.816  0.1895  0.7192  0.6857
19340TIP3    H279436   2.917   5.176   0.761  0.9391 -1.2690  0.1198
19341TIP3   OH279437   1.134   5.520   2.931  0.6621 -0.3509 -0.2594
19341TIP3    H179438   1.174   5.434   2.945 -0.6626 -0.9978 -0.2478
19341TIP3    H279439   1.093   5.542   3.015  1.2035  0.4189 -0.1882
19342TIP3   OH279440   5.884   3.968   0.428  0.0718  0.6714  1.0265
19342TIP3    H179441   5.881   3.874   0.415  1.0500  0.7768 -0.1444
19342TIP3    H279442   5.792   3.996   0.422 -0.1185 -0.0716  0.2468
19343TIP3   OH279443   0.052   3.009  15.590 -0.2899 -0.0430 -0.1151
19343TIP3    H179444   0.120   2.942  15.590 -0.3147 -0.1297 -1.8570
19343TIP3    H279445  -0.006   2.984  15.662  0.2155 -1.3501 -0.1254
19344TIP3   OH279446   2.491   6.224   2.193  0.1037 -0.5784 -0.2173
19344TIP3    H179447   2.447   6.285   2.253  1.6020  0.9174 -0.5587
19344TIP3    H279448   2.455   6.138   2.215 -3.6753  0.5769 -1.0757
19345TIP3   OH279449   0.645   1.452  17.018  0.1892 -0.3099 -0.0311
19345TIP3    H179450   0.633   1.393  17.093 -1.7214  0.2639  0.1699
19345TIP3    H279451   0.730   1.427  16.982 -0.1977 -2.6768  0.4917
19346TIP3   OH279452   5.393   5.475   2.443 -0.3353  0.6202  0.2729
19346TIP3    H179453   5.377   5.556   2.395 -2.0141  1.9929  2.9159
19346TIP3    H279454   5.481   5.485   2.479 -0.8200  1.6679  1.2144
19347TIP3   OH279455   1.843   5.574  17.256 -0.1585  0.5934 -0.4165
19347TIP3    H179456   1.937   5.588  17.259 -0.0728  0.7534 -2.2421
19347TIP3    H279457   1.833   5.480  17.246 -0.0790  0.7236 -1.9672
19348TIP3   OH279458   5.007   2.384  16.113 -0.5728 -0.4281  0.0019
19348TIP3    H179459   4.973   2.419  16.196  1.5404 -0.3143  0.8752
19348TIP3    H279460   4.930   2.349  16.069 -1.5229 -2.4563  2.9490
19349TIP3   OH279461   2.749   5.488   2.376 -0.4846 -0.3791  0.2743
19349TIP3    H179462   2.731   5.514   2.286 -0.2381 -0.8007  0.1020
19349TIP3    H279463   2.698   5.408   2.389  2.4590 -2.6303 -0.7939
19350TIP3   OH279464   3.350   5.822  14.878 -0.5457 -0.6607 -0.9435
19350TIP3    H179465   3.396   5.842  14.960 -0.7444 -2.5982 -0.3053
19350TIP3    H279466   3.417   5.785  14.821 -0.3374  0.9885 -1.8205
19351TIP3   OH279467   6.086   4.836  13.086  0.2993 -0.1315  0.4700
19351TIP3    H179468   6.015   4.786  13.046  0.2301 -0.4132  0.9287
19351TIP3    H279469   6.162   4.778  13.080 -0.1316 -1.0082  2.4411
19352TIP3   OH279470   3.936   1.214  11.445  0.2748 -0.2633  0.3717
19352TIP3    H179471   3.909   1.157  11.374 -1.1133  0.1249  0.5584
19352TIP3    H279472   4.009   1.265  11.409 -1.2575  0.8714 -1.2541
19353TIP3   OH279473   2.396   4.965   0.180  0.3035 -0.0327  0.7641
19353TIP3    H179474   2.449   4.981   0.103  0.0173 -0.2819  0.5138
19353TIP3    H279475   2.348   5.047   0.194 -0.0462 -0.1596  0.3565
19354TIP3   OH279476   1.760   1.329   4.610 -0.3723 -0.4978 -0.0620
19354TIP3    H179477   1.854   1.326   4.632 -0.1468 -0.9314 -1.0562
19354TIP3    H279478   1.757   1.314   4.516 -1.2496  2.1546 -0.5470
19355TIP3   OH279479   6.284   1.567   4.220  0.4798 -0.3418 -0.2195
19355TIP3    H179480   6.205   1.617   4.201 -1.4118 -3.0537 -0.0841
19355TIP3    H279481   6.287   1.562   4.315 -0.1602 -1.5854 -0.2423
19356TIP3   OH279482   1.100   5.587  11.186 -0.3081 -0.1050  0.0621
19356TIP3    H179483   1.015   5.563  11.150 -0.6765  0.9628  0.1628
19356TIP3    H279484   1.126   5.664  11.135 -0.6442  1.1759  1.7303
19357TIP3   OH279485   4.377   0.665  13.907  0.9230  0.2460 -0.2429
19357TIP3    H179486   4.416   0.656  13.819 -3.9182 -0.2598 -2.6416
19357TIP3    H279487   4.345   0.577  13.928 -1.2787  1.0904  0.2009
19358TIP3   OH279488   4.118   1.288   4.670 -0.2086 -0.1877 -0.7463
19358TIP3    H179489   4.188   1.347   4.697 -1.5378  0.7942  0.8003
19358TIP3    H279490   4.137   1.268   4.578  1.4463  0.9405 -0.6973
19359TIP3   OH279491   5.231   3.272  11.958 -0.0179  0.2708  0.0993
19359TIP3    H179492   5.138   3.287  11.971 -0.1130 -0.3420  0.1285
19359TIP3    H279493   5.248   3.185  11.995  0.0483 -0.7959 -2.2683
19360TIP3   OH279494   3.769   2.030   4.748  0.4885 -0.1571 -0.2576
19360TIP3    H179495   3.849   2.049   4.798  0.8907  0.5120 -1.1258
19360TIP3    H279496   3.701   2.018   4.815  1.1844 -0.1340  0.4718
19361TIP3   OH279497   0.750   3.503  17.153  0.4666 -0.1385 -0.3690
19361TIP3    H179498   0.718   3.525  17.241 -1.2850 -1.2812 -0.6654
19361TIP3    H279499   0.805   3.578  17.129 -0.1504  0.8663  1.1432
19362TIP3   OH279500   5.247   1.962   2.918 -0.1107  0.1109  0.2795
19362TIP3    H179501   5.293   2.028   2.970  0.3460  0.3147 -0.3774
19362TIP3    H279502   5.154   1.981   2.933  0.0109  1.1788 -0.2404
19363TIP3   OH279503   5.035   1.936   0.865  0.8599  0.5404 -0.2103
19363TIP3    H179504   5.006   1.845   0.863 -0.1106  0.7937  1.3289
19363TIP3    H279505   5.125   1.931   0.897  0.4266  0.1790  1.0217
19364TIP3   OH279506   3.930   3.859  13.385  0.2881 -0.2878  0.2614
19364TIP3    H179507   3.885   3.790  13.337  0.2565 -1.2220  1.6078
19364TIP3    H279508   4.018   3.826  13.398  0.6577  0.4794 -0.1768
19365TIP3   OH279509   4.282   0.032  15.888 -0.0134 -0.0955  0.1724
19365TIP3    H179510   4.296   0.126  15.874  0.2705 -0.0881  0.5016
19365TIP3    H279511   4.312  -0.008  15.806 -0.7950  0.1480 -0.2497
19366TIP3   OH279512   5.268   6.242  14.207 -0.4676  0.0825  0.0128
19366TIP3    H179513   5.336   6.180  14.232 -0.5782  0.5655  1.6473
19366TIP3    H279514   5.200   6.188  14.166  0.5480 -0.4997 -0.9548
19367TIP3   OH279515   0.474   2.645  14.927  0.6970  0.2228  0.6878
19367TIP3    H179516   0.416   2.573  14.906  0.2148  1.1014 -1.2469
19367TIP3    H279517   0.523   2.661  14.846  0.8799  1.9576  1.0932
19368TIP3   OH279518   2.197   5.787  16.883 -0.0331 -0.0797 -0.5587
19368TIP3    H179519   2.236   5.810  16.799  0.7295  0.0087 -0.1908
19368TIP3    H279520   2.228   5.698  16.901 -1.4633 -0.7087 -1.0997
19369TIP3   OH279521   1.851   2.437   6.603  0.0858  0.1509 -0.2334
19369TIP3    H179522   1.877   2.454   6.513  0.7370 -0.6044 -0.1999
19369TIP3    H279523   1.808   2.518   6.631  0.7803  0.7661 -0.8920
19370TIP3   OH279524   6.162   6.179   1.002 -0.6600  0.8914  0.1703
19370TIP3    H179525   6.083   6.204   1.050 -2.1099 -1.2747 -0.9274
19370TIP3    H279526   6.184   6.092   1.035 -0.7751  0.0148 -1.8902
19371TIP3   OH279527   0.200   2.598   0.130 -0.0846 -0.0276 -0.0118
19371TIP3    H179528   0.158   2.513   0.114 -0.9360  0.6939 -1.8885
19371TIP3    H279529   0.127   2.661   0.132  0.5655  0.7236  1.0158
19372TIP3   OH279530   1.323   2.311   2.175 -0.1084 -0.0158 -0.2222
19372TIP3    H179531   1.402   2.274   2.215  0.0297  1.5705  1.0591
19372TIP3    H279532   1.252   2.254   2.205 -0.0023  1.1163  2.3587
19373TIP3   OH279533   2.989   6.483  15.021 -0.1677 -0.0073 -0.1534
19373TIP3    H179534   2.998   6.420  15.092 -1.6594  0.7659  0.7612
19373TIP3    H279535   2.896   6.483  14.999 -0.5669  3.0188  1.0066
19374TIP3   OH279536   2.332   3.003  17.184  0.5063 -0.1169 -0.0289
19374TIP3    H179537   2.370   2.917  17.165 -0.7655 -1.2733  2.2099
19374TIP3    H279538   2.243   2.998  17.147  0.7500  0.6214 -0.7335
19375TIP3   OH279539   3.143   3.277   4.804  0.5361  0.0205  0.0976
19375TIP3    H179540   3.065   3.317   4.766  0.8507  1.0118  0.4468
19375TIP3    H279541   3.142   3.187   4.773 -0.6663  0.0565 -0.0240
19376TIP3   OH279542   6.592   0.563  14.332  0.3722 -0.5718  0.2404
19376TIP3    H179543   6.642   0.482  14.338  1.2183 -0.1964 -1.1707
19376TIP3    H279544   6.659   0.632  14.333 -0.3192  0.1018  1.1779
19377TIP3   OH279545   5.512   2.241  15.990  0.0269 -0.2015 -0.8798
19377TIP3    H179546   5.532   2.214  15.900 -1.4126 -0.5238 -1.1418
19377TIP3    H279547   5.484   2.332  15.982 -1.4245 -0.6223 -1.0063
19378TIP3   OH279548   2.605   2.112  11.951 -0.5006 -0.7451 -0.0585
19378TIP3    H179549   2.604   2.149  11.862 -4.2588 -0.0456  0.1227
19378TIP3    H279550   2.636   2.022  11.939 -0.5533 -0.5411 -2.0176
19379TIP3   OH279551   2.187   1.262   1.579 -0.6999 -0.7373 -0.2920
19379TIP3    H179552   2.177   1.242   1.486  2.8835 -1.0795 -0.7344
19379TIP3    H279553   2.175   1.357   1.585  0.0143 -0.5761 -1.2791
19380TIP3   OH279554   3.347   5.499   5.368  0.4075 -0.0183 -0.2042
19380TIP3    H179555   3.295   5.484   5.447 -0.1002 -1.2549 -0.7500
19380TIP3    H279556   3.438   5.497   5.398  0.2110 -0.0982  0.4046
19381TIP3   OH279557   1.111   0.992   3.049 -0.1061 -0.0778  0.5074
19381TIP3    H179558   1.092   1.055   2.980  3.5343  1.3575  0.6397
19381TIP3    H279559   1.137   0.913   3.002  0.6876  0.3371  0.2321
19382TIP3   OH279560   0.726   4.319   4.860  0.1368  0.0624 -0.7556
19382TIP3    H179561   0.742   4.409   4.888  1.7088 -0.4918  0.3068
19382TIP3    H279562   0.754   4.317   4.768 -0.1120  0.7017 -0.8463
19383TIP3   OH279563   0.895   1.520  12.328 -0.5095 -0.8086  0.5490
19383TIP3    H179564   0.853   1.481  12.405  0.0577  0.0458  1.3089
19383TIP3    H279565   0.884   1.614  12.339  1.0241 -0.5905  0.4470
19384TIP3   OH279566   5.351   0.367  11.317 -0.2291  0.6214 -0.1934
19384TIP3    H179567   5.445   0.348  11.315 -0.1641  0.6701  1.1686
19384TIP3    H279568   5.332   0.385  11.409 -1.2818  2.1167 -0.6512
19385TIP3   OH279569   3.735   6.205   0.512  0.4884 -0.4129  0.2948
19385TIP3    H179570   3.725   6.233   0.603 -0.1128  2.6549 -0.5854
19385TIP3    H279571   3.817   6.247   0.483 -0.2231  0.1410 -1.0059
19386TIP3   OH279572   6.424   3.117  16.879  0.2480 -0.2520  0.5393
19386TIP3    H179573   6.502   3.153  16.837  0.7533 -0.3277  1.3786
19386TIP3    H279574   6.351   3.150  16.827  0.8455 -0.4358 -0.4502
19387TIP3   OH279575   1.068   1.182   1.326 -1.0887  0.0260  0.2290
19387TIP3    H179576   0.988   1.181   1.274 -0.6108  2.4623 -0.7168
19387TIP3    H279577   1.108   1.096   1.312 -1.8663 -0.0238 -2.0192
19388TIP3   OH279578   6.225   0.895  14.671 -0.4635 -0.4396 -0.0345
19388TIP3    H179579   6.243   0.822  14.731 -0.3381 -1.0106 -0.7559
19388TIP3    H279580   6.157   0.946  14.715 -1.5908 -1.7879 -0.1507
19389TIP3   OH279581   3.288   1.476   3.408  0.5627  0.0153  0.3641
19389TIP3    H179582   3.254   1.535   3.341 -1.8598  2.4977  3.4615
19389TIP3    H279583   3.222   1.407   3.416 -0.3714  1.0118  1.6652
19390TIP3   OH279584   4.277   4.560   1.793  0.2194  0.2505 -0.0330
19390TIP3    H179585   4.259   4.487   1.734  0.4969  1.5503 -1.8078
19390TIP3    H279586   4.197   4.613   1.791 -0.1272 -0.1800  1.5455
19391TIP3   OH279587   5.836   5.353   2.704  0.4041  0.3472  0.7691
19391TIP3    H179588   5.835   5.346   2.609  1.1077  0.9486  0.7069
19391TIP3    H279589   5.893   5.428   2.722  1.0199 -0.3171  1.6979
19392TIP3   OH279590   2.667   2.394  12.735  0.1950 -0.2055 -0.0755
19392TIP3    H179591   2.611   2.368  12.662  1.2248  1.1011 -1.3937
19392TIP3    H279592   2.754   2.361  12.713  0.4594 -0.0883  0.7275
19393TIP3   OH279593   0.377   3.154   1.566 -0.0840  0.0952 -0.2686
19393TIP3    H179594   0.455   3.193   1.607 -0.9773  2.1025 -0.3296
19393TIP3    H279595   0.323   3.125   1.640  0.2128 -0.2542 -0.1873
19394TIP3   OH279596   2.029   2.046  12.414 -0.0808  0.3306 -1.0453
19394TIP3    H179597   2.121   2.038  12.390 -0.3868 -2.9229 -1.6419
19394TIP3    H279598   2.020   1.993  12.493 -1.6559 -0.5746 -1.7783
19395TIP3   OH279599   3.586   0.735   0.517 -0.0175 -0.2391  0.5720
19395TIP3    H179600   3.525   0.784   0.572 -0.2261 -1.0588  1.0944
19395TIP3    H279601   3.542   0.727   0.432  0.1253  0.6690  0.4042
19396TIP3   OH279602   3.867   0.148  11.363  0.8317 -0.7906 -0.4940
19396TIP3    H179603   3.927   0.217  11.392  0.5172 -0.3362 -0.9154
19396TIP3    H279604   3.785   0.168  11.408 -0.3565  1.2383 -3.2871
19397TIP3   OH279605   3.752   4.208   2.088 -0.3106  0.1637  0.9682
19397TIP3    H179606   3.707   4.291   2.073 -1.2521  0.0082  2.7020
19397TIP3    H279607   3.840   4.221   2.052 -1.0475  1.2137 -0.5537
19398TIP3   OH279608   5.115   3.055   3.922 -0.2964  0.3547  0.3583
19398TIP3    H179609   5.124   3.135   3.870 -1.3186 -0.0321 -0.4594
19398TIP3    H279610   5.021   3.036   3.921  0.0156 -1.4096 -0.3438
19399TIP3   OH279611   3.768   4.081  13.375  0.0282  0.1753  0.5427
19399TIP3    H179612   3.817   4.000  13.363 -0.2753  0.0897 -0.1664
19399TIP3    H279613   3.829   4.139  13.420  1.5086  0.7093 -1.9627
19400TIP3   OH279614   1.210   3.697  13.765  0.5236  0.2480 -0.1530
19400TIP3    H179615   1.141   3.659  13.821  1.6984  0.1049  1.2494
19400TIP3    H279616   1.162   3.736  13.692 -1.1319  0.9203  1.2184
19401TIP3   OH279617   5.144   2.471  16.763  0.1125  0.2531  0.5373
19401TIP3    H179618   5.172   2.550  16.809  0.2187  0.9762 -0.7415
19401TIP3    H279619   5.079   2.501  16.700  1.2786 -0.3959 -1.0651
19402TIP3   OH279620   5.443   3.745  10.959 -0.0411  0.7164 -0.3642
19402TIP3    H179621   5.464   3.802  11.034 -1.2982 -1.7866  2.0952
19402TIP3    H279622   5.355   3.712  10.979  0.3912 -1.5829 -1.9552
19403TIP3   OH279623   4.643   3.217   0.396 -0.3118 -0.2226  0.1543
19403TIP3    H179624   4.594   3.214   0.314 -0.5689 -0.3856  0.3099
19403TIP3    H279625   4.582   3.255   0.459 -0.2621 -0.4904  0.3660
19404TIP3   OH279626   4.688   4.851   2.488 -0.3820 -0.1811 -0.3465
19404TIP3    H179627   4.691   4.944   2.464  1.0774 -0.3442 -0.8912
19404TIP3    H279628   4.718   4.805   2.410 -1.2278 -1.1462 -0.1320
19405TIP3   OH279629   2.296   2.532   3.131 -0.5059  0.0171  0.1692
19405TIP3    H179630   2.356   2.479   3.183  0.8448 -0.2296 -1.5731
19405TIP3    H279631   2.234   2.567   3.195 -0.7436 -2.6762  1.5555
19406TIP3   OH279632   1.355   2.261   0.783  0.3858  0.3464 -0.0067
19406TIP3    H179633   1.437   2.242   0.829 -0.5279 -0.9969  1.1375
19406TIP3    H279634   1.323   2.176   0.754 -0.7087  0.8227 -0.2517
19407TIP3   OH279635   6.086   3.166   0.254  0.2986  0.1836  0.0305
19407TIP3    H179636   6.061   3.074   0.266 -1.4317  0.5653 -0.2750
19407TIP3    H279637   6.099   3.199   0.343  0.0549 -0.1428  0.1911
19408TIP3   OH279638   5.267   1.856  13.121 -0.3449  0.1941 -0.1910
19408TIP3    H179639   5.302   1.944  13.135 -0.1920 -0.2074  2.2530
19408TIP3    H279640   5.338   1.808  13.079  0.6183  0.4942  1.0339
19409TIP3   OH279641   3.712   2.989  17.554 -0.2594 -0.4207  0.0406
19409TIP3    H179642   3.747   2.924  17.615  1.2529  1.2663  1.0758
19409TIP3    H279643   3.752   2.966  17.470  4.4984  1.9215  1.3048
19410TIP3   OH279644   2.976   1.564  13.131  0.0964 -0.4327  0.8919
19410TIP3    H179645   3.024   1.640  13.098 -0.9989 -0.1821 -0.2181
19410TIP3    H279646   3.010   1.551  13.219 -0.2037  1.8006  1.4018
19411TIP3   OH279647   5.671   2.948   6.528 -0.0222  0.1029 -0.3124
19411TIP3    H179648   5.728   3.009   6.573 -0.3399 -0.5450  1.0138
19411TIP3    H279649   5.642   2.995   6.450 -0.0923  1.5626  0.5626
19412TIP3   OH279650   4.878   4.757  11.663 -0.2246  0.1972  0.0961
19412TIP3    H179651   4.794   4.760  11.617 -0.8548  0.8215  1.2230
19412TIP3    H279652   4.944   4.770  11.595 -1.1126  0.9616 -0.6485
19413TIP3   OH279653   4.399   6.534   1.050  0.3941  0.0317 -0.0221
19413TIP3    H179654   4.353   6.611   1.018  0.3473  0.0716  0.1440
19413TIP3    H279655   4.400   6.474   0.975 -1.5499 -0.7274  0.5154
19414TIP3   OH279656   2.281   5.509  17.252 -0.3789 -0.0728  0.1400
19414TIP3    H179657   2.213   5.576  17.237  0.2082  0.3136 -0.8693
19414TIP3    H279658   2.362   5.551  17.226  0.0185 -1.1584 -0.4344
19415TIP3   OH279659   0.208   4.804  14.152  0.0324 -0.1138  0.1311
19415TIP3    H179660   0.140   4.859  14.192 -2.2547 -0.8292 -2.4526
19415TIP3    H279661   0.195   4.717  14.189 -0.0552 -0.1214  0.0826
19416TIP3   OH279662   4.489   5.852   4.096  0.5094  0.6563 -0.1895
19416TIP3    H179663   4.540   5.799   4.157  1.8321  0.1161 -1.6971
19416TIP3    H279664   4.413   5.881   4.146  2.5788  2.0597  2.3769
19417TIP3   OH279665   0.815   2.741   5.436 -0.0324 -0.2725 -0.1733
19417TIP3    H179666   0.830   2.650   5.463 -1.3638 -0.2821  0.6853
19417TIP3    H279667   0.887   2.790   5.474 -1.3083 -0.4415  2.7389
19418TIP3   OH279668   2.216   4.199  12.362  0.0038  0.4360  0.0410
19418TIP3    H179669   2.216   4.154  12.278  1.6674 -0.7984  0.6499
19418TIP3    H279670   2.306   4.229  12.373  0.5128 -1.6505  2.4704
19419TIP3   OH279671   0.329   1.542  14.799 -0.0508 -0.2890  0.5047
19419TIP3    H179672   0.241   1.534  14.837  0.0108 -0.5028  0.6030
19419TIP3    H279673   0.362   1.626  14.832 -0.5229  0.1706 -0.1630
19420TIP3   OH279674   4.771   5.483  12.790  0.6369  0.0144  0.4613
19420TIP3    H179675   4.804   5.516  12.706  1.0375 -1.9800 -0.2086
19420TIP3    H279676   4.827   5.408  12.810 -0.3921 -0.4359  1.7814
19421TIP3   OH279677   4.810   1.821   4.232 -0.6971  0.0888 -0.5178
19421TIP3    H179678   4.827   1.784   4.318  0.9337 -1.1499 -1.3274
19421TIP3    H279679   4.784   1.746   4.178 -4.3837  1.1874 -0.5610
19422TIP3   OH279680   4.173   6.623   2.264 -0.3239  0.4794  0.2264
19422TIP3    H179681   4.168   6.546   2.206  0.6388  0.7284 -0.2055
19422TIP3    H279682   4.179   6.697   2.204  2.2935  0.6328  0.6029
19423TIP3   OH279683   4.788   6.145   6.164  0.4839 -0.6055  0.0977
19423TIP3    H179684   4.762   6.053   6.155 -1.3901 -0.3542  2.0852
19423TIP3    H279685   4.851   6.146   6.235  0.5924 -0.3478 -0.0005
19424TIP3   OH279686   2.038   6.118   2.602 -0.1648  0.0092 -0.1357
19424TIP3    H179687   2.039   6.053   2.673  0.5265 -0.2206 -0.3471
19424TIP3    H279688   1.946   6.124   2.576 -0.1603 -1.3912 -0.5729
19425TIP3   OH279689   2.931   3.334  11.599  0.2454  0.1014  0.4740
19425TIP3    H179690   2.915   3.309  11.690 -0.3844  0.1207  0.3766
19425TIP3    H279691   2.923   3.252  11.550 -0.3232  0.2334  0.3336
19426TIP3   OH279692   4.400   3.870  13.723  0.0335  0.2252  0.4518
19426TIP3    H179693   4.363   3.956  13.746  1.3738  1.1086 -0.5297
19426TIP3    H279694   4.371   3.812  13.793 -2.6374  0.9798  0.0759
19427TIP3   OH279695   2.585   2.260  14.394  0.3681 -0.1720 -0.2758
19427TIP3    H179696   2.626   2.174  14.386 -1.5043 -1.2667  1.0772
19427TIP3    H279697   2.518   2.262  14.325 -0.3104 -0.2690  0.3630
19428TIP3   OH279698   0.910   3.265   0.382 -0.6171 -0.6950  0.3855
19428TIP3    H179699   0.889   3.172   0.380  0.9053 -1.1254  1.9770
19428TIP3    H279700   0.924   3.285   0.475  1.3511  0.5477 -0.1007
19429TIP3   OH279701   1.320   6.222  15.143  0.2637 -0.5293  0.0445
19429TIP3    H179702   1.342   6.289  15.209  1.4290 -2.5896  1.9061
19429TIP3    H279703   1.233   6.192  15.167  0.2649 -0.5597  0.0114
19430TIP3   OH279704   6.223   3.485   2.476  0.4007 -0.1298 -0.3571
19430TIP3    H179705   6.311   3.465   2.442  0.5004 -0.5708  0.1462
19430TIP3    H279706   6.205   3.573   2.444  0.2397 -0.7379 -2.0709
19431TIP3   OH279707   5.984   6.003  15.289 -0.2143  0.3591 -0.3275
19431TIP3    H179708   6.047   6.059  15.244 -0.5031  1.1025  0.1793
19431TIP3    H279709   5.948   6.058  15.359 -0.2086 -0.5878  0.4341
19432TIP3   OH279710   2.242   3.806   2.866 -0.4831 -0.0881  0.2087
19432TIP3    H179711   2.283   3.757   2.938  0.8794 -0.1082 -0.5514
19432TIP3    H279712   2.266   3.897   2.883 -0.7859 -0.0020  0.1772
19433TIP3   OH279713   4.551   0.514  12.158  0.7149  0.1073 -0.2708
19433TIP3    H179714   4.485   0.485  12.095 -0.9750 -0.7845  1.7711
19433TIP3    H279715   4.530   0.605  12.176 -0.6991 -0.4453  1.1239
19434TIP3   OH279716   2.215   0.709  14.351  0.1139 -0.6462 -0.1924
19434TIP3    H179717   2.308   0.721  14.368 -0.1438 -1.3982  2.2428
19434TIP3    H279718   2.200   0.616  14.364 -1.0660 -0.4496  0.0014
19435TIP3   OH279719   0.329   4.334   0.497  0.2921  1.1564 -0.3353
19435TIP3    H179720   0.234   4.339   0.498  0.3544  3.4525  0.7271
19435TIP3    H279721   0.349   4.249   0.456 -2.2101 -0.5692  1.7124
19436TIP3   OH279722   2.464   1.006  10.608  0.2058  0.0572  0.3178
19436TIP3    H179723   2.478   0.976  10.518  1.1708 -2.2769  1.1831
19436TIP3    H279724   2.510   1.090  10.613  0.2605  0.1467 -1.2999
19437TIP3   OH279725   0.830   2.099   4.174 -0.3099 -0.2740 -0.7472
19437TIP3    H179726   0.909   2.045   4.174  1.6061  2.2588  1.4040
19437TIP3    H279727   0.760   2.039   4.201  0.9956 -2.3967 -1.8287
19438TIP3   OH279728   5.732   5.304  12.121 -0.1194 -0.2453 -0.1320
19438TIP3    H179729   5.695   5.322  12.034  0.0084  0.8635  0.0303
19438TIP3    H279730   5.807   5.363  12.128 -1.2291  1.1060  1.4385
19439TIP3   OH279731   5.406   6.283  12.598  0.4419  0.0217 -0.0236
19439TIP3    H179732   5.500   6.267  12.606  0.5518 -0.5433 -1.8843
19439TIP3    H279733   5.373   6.206  12.551 -0.7047  0.8585 -0.6320
19440TIP3   OH279734   6.517   2.507   2.054  0.0214 -0.4019 -0.2613
19440TIP3    H179735   6.590   2.482   1.998  1.4996 -0.1411  1.4513
19440TIP3    H279736   6.495   2.596   2.026  0.2404 -0.5375 -0.8897
19441TIP3   OH279737   0.762   3.393  12.157 -0.1840 -0.9787 -0.3692
19441TIP3    H179738   0.847   3.436  12.166 -0.1742 -1.2121  0.7692
19441TIP3    H279739   0.777   3.304  12.188 -0.0029 -2.1434 -3.4456
19442TIP3   OH279740   5.988   0.917   4.721  0.2698  0.8310 -0.2923
19442TIP3    H179741   5.930   0.939   4.794  1.8583 -0.2127  1.4023
19442TIP3    H279742   5.940   0.852   4.670 -1.1424  2.0697 -0.6227
19443TIP3   OH279743   4.620   4.771  13.948 -0.0151 -0.3478  0.2206
19443TIP3    H179744   4.645   4.846  13.895 -1.7438 -0.5948 -1.0465
19443TIP3    H279745   4.702   4.741  13.988  1.5534 -0.6105 -2.9164
19444TIP3   OH279746   3.068   0.923   0.465  0.6366  0.1321 -0.4206
19444TIP3    H179747   3.047   0.841   0.421  1.2921 -0.5939  0.5639
19444TIP3    H279748   3.016   0.920   0.546  1.7050  0.0280  0.2774
19445TIP3   OH279749   6.369   6.420   3.806  0.2012 -0.8725  0.1124
19445TIP3    H179750   6.449   6.467   3.830 -0.5263 -0.0965  1.0610
19445TIP3    H279751   6.300   6.487   3.809 -0.4988 -1.5369 -0.6729
19446TIP3   OH279752   2.122   3.981   3.795 -0.3286  0.5338  0.3358
19446TIP3    H179753   2.113   3.918   3.724  0.2493 -1.3374  1.8449
19446TIP3    H279754   2.078   3.941   3.869 -0.3002  2.1197  1.2603
19447TIP3   OH279755   0.078   0.852  15.985  0.1294  0.1495  0.4086
19447TIP3    H179756   0.054   0.792  16.056  1.1356 -0.8699 -0.0762
19447TIP3    H279757   0.094   0.935  16.028 -0.0444 -0.2566  1.2807
19448TIP3   OH279758   1.463   5.193   2.084 -0.6041 -0.1283  0.2082
19448TIP3    H179759   1.405   5.240   2.144 -0.4679 -0.0353  0.2659
19448TIP3    H279760   1.442   5.228   1.997 -0.7903 -0.2525  0.2015
19449TIP3   OH279761   1.010   1.887  17.596 -0.4648 -0.0707 -0.0267
19449TIP3    H179762   0.988   1.805  17.550  0.4353 -0.7644  0.7455
19449TIP3    H279763   1.033   1.859  17.684  1.7874  0.7878 -0.2924
19450TIP3   OH279764   1.904   5.797  13.160  0.3992 -0.2216  0.2120
19450TIP3    H179765   1.891   5.702  13.159 -1.6762  0.0037 -0.1981
19450TIP3    H279766   1.847   5.829  13.089 -0.3583  1.4493  1.5031
19451TIP3   OH279767   6.259   4.962   5.145 -0.0104 -0.1805 -0.2481
19451TIP3    H179768   6.266   5.013   5.064  1.9159 -1.1301 -0.7401
19451TIP3    H279769   6.213   5.020   5.206 -0.6324  0.9327 -1.6985
19452TIP3   OH279770   5.601   2.951  12.965  0.6409  0.5712  0.6472
19452TIP3    H179771   5.569   2.886  13.028 -1.0278 -0.5115 -1.1686
19452TIP3    H279772   5.688   2.920  12.940  1.4377  1.1636  2.5337
19453TIP3   OH279773   5.408   3.408  14.124 -0.1365  0.4467 -0.0658
19453TIP3    H179774   5.398   3.361  14.041 -2.4901  1.2945 -0.3386
19453TIP3    H279775   5.323   3.398  14.167  0.1464  2.2800  1.0004
19454TIP3   OH279776   6.524   1.518   0.479  0.3316  0.6760 -0.2901
19454TIP3    H179777   6.453   1.543   0.538 -0.3664  0.5090 -1.0370
19454TIP3    H279778   6.480   1.472   0.408  1.1252  1.1118 -1.0768
19455TIP3   OH279779   3.860   3.541   0.484  0.3883  0.6181  0.6374
19455TIP3    H179780   3.913   3.473   0.443  1.2182  1.1648  0.7874
19455TIP3    H279781   3.923   3.608   0.511 -0.2759  0.8914  1.5800
19456TIP3   OH279782   6.346   1.167  13.787 -0.2352 -0.0435  0.6443
19456TIP3    H179783   6.255   1.157  13.758 -0.9507  0.8347  2.4011
19456TIP3    H279784   6.373   1.253  13.753 -0.4687  0.1902  1.0298
19457TIP3   OH279785   4.789   5.262  12.123 -0.8935 -0.1415 -0.0823
19457TIP3    H179786   4.884   5.254  12.126 -0.9100 -0.1828  1.0881
19457TIP3    H279787   4.758   5.208  12.196 -1.5950  2.3316  1.6000
19458TIP3   OH279788   4.866   0.821   1.780  0.3360  0.4348  0.3472
19458TIP3    H179789   4.865   0.844   1.687 -0.2163 -0.4304  0.1279
19458TIP3    H279790   4.783   0.856   1.814 -0.8064 -1.6402 -0.1223
19459TIP3   OH279791   0.093   2.968   1.594 -0.1148 -0.4123 -0.1216
19459TIP3    H179792   0.142   3.000   1.519 -0.0244 -2.1116 -0.8256
19459TIP3    H279793   0.002   2.993   1.577  0.1355  0.6057  0.0000
19460TIP3   OH279794   6.140   2.781   1.058  0.3295  0.1370 -0.4080
19460TIP3    H179795   6.111   2.780   1.149  1.0630  2.4282 -0.0770
19460TIP3    H279796   6.206   2.851   1.055  0.4968 -0.0486 -2.6505
19461TIP3   OH279797   2.130   0.407  13.686 -0.0381 -0.0496  0.4049
19461TIP3    H179798   2.119   0.435  13.777  1.6852 -1.1820  1.0241
19461TIP3    H279799   2.224   0.414  13.669 -0.1889 -0.7852 -0.9615
19462TIP3   OH279800   2.450   6.608  11.610 -0.1426 -0.1732 -0.7474
19462TIP3    H179801   2.507   6.600  11.533  1.0999 -1.2961  0.2296
19462TIP3    H279802   2.390   6.534  11.602  0.1557 -0.4450 -0.5280
19463TIP3   OH279803   2.378   2.613  16.186 -0.2426 -0.5423 -0.3760
19463TIP3    H179804   2.411   2.625  16.097 -1.2437  1.0835 -0.5553
19463TIP3    H279805   2.290   2.577  16.175 -0.5463  0.0919 -0.0698
19464TIP3   OH279806   5.731   4.968   0.510 -0.1356  0.0921 -1.0148
19464TIP3    H179807   5.656   4.992   0.564 -1.1058 -1.1834 -1.7322
19464TIP3    H279808   5.702   4.982   0.420 -1.3917 -4.8163 -1.6511
19465TIP3   OH279809   0.417   5.550  16.179 -0.1193  0.4341 -0.2082
19465TIP3    H179810   0.378   5.529  16.094 -2.7754 -0.3548  1.0871
19465TIP3    H279811   0.410   5.645  16.185 -2.1951  0.3249  0.0388
19466TIP3   OH279812   4.348   1.980   0.997 -0.3785  0.4889  0.3204
19466TIP3    H179813   4.374   2.050   1.057  1.8025 -0.6282  0.7605
19466TIP3    H279814   4.282   1.930   1.046  0.0708  0.6423  1.1003
19467TIP3   OH279815   1.012   0.884   1.927 -0.1538 -0.8199  0.1485
19467TIP3    H179816   1.039   0.941   1.854  0.8575 -0.5882  0.6742
19467TIP3    H279817   0.918   0.897   1.934  0.1357  1.5444  0.8201
19468TIP3   OH279818   4.394   0.002   0.358 -0.4434  0.1344 -0.6196
19468TIP3    H179819   4.480   0.041   0.339  1.0801 -1.7342  1.7827
19468TIP3    H279820   4.384  -0.067   0.292  1.3267 -1.4976  0.7094
19469TIP3   OH279821   0.072   3.181   5.737 -0.6159 -0.4763 -0.0602
19469TIP3    H179822   0.122   3.100   5.730 -1.2166 -0.7768 -1.1071
19469TIP3    H279823  -0.014   3.154   5.769 -0.2271  0.0009  1.4484
19470TIP3   OH279824   3.737   5.444  17.471 -0.2466 -0.2990 -0.2415
19470TIP3    H179825   3.708   5.408  17.387 -1.2347 -1.3840  0.5415
19470TIP3    H279826   3.761   5.535  17.451 -0.3718 -0.5630 -1.7042
19471TIP3   OH279827   1.586   0.493  17.377 -0.8211 -0.6556  0.0784
19471TIP3    H179828   1.533   0.508  17.299  1.0940 -0.7743 -1.3006
19471TIP3    H279829   1.546   0.550  17.444 -0.1696  2.6308 -2.0772
19472TIP3   OH279830   3.127   2.747   5.973  0.4577  0.2787 -0.2017
19472TIP3    H179831   3.041   2.778   5.947 -0.1758  0.2959  1.7312
19472TIP3    H279832   3.120   2.652   5.974  1.0045  0.1916 -1.6440
19473TIP3   OH279833   0.362   5.183   1.355  0.4625  1.0022  0.3193
19473TIP3    H179834   0.318   5.225   1.281  0.4577  0.7588  0.1854
19473TIP3    H279835   0.414   5.254   1.394 -0.2827  1.3627  0.6677
19474TIP3   OH279836   3.834   5.783  12.560  0.1265 -0.3786  0.0383
19474TIP3    H179837   3.870   5.856  12.611 -1.7632  0.5545  0.1368
19474TIP3    H279838   3.803   5.721  12.625 -0.5783 -0.0570  0.0241
19475TIP3   OH279839   4.327   1.239  14.297 -0.3159  0.1856 -0.1506
19475TIP3    H179840   4.374   1.198  14.370 -0.2339 -0.2846 -0.4618
19475TIP3    H279841   4.235   1.216  14.311 -0.0447 -2.0779 -1.5336
19476TIP3   OH279842   2.110   0.449  16.095  0.2528  0.3114  0.3941
19476TIP3    H179843   2.051   0.500  16.150  1.6047  1.3825  0.8997
19476TIP3    H279844   2.197   0.464  16.132  1.2824  1.4181 -2.2655
19477TIP3   OH279845   5.474   6.165  16.976  0.1738  0.9870 -0.7089
19477TIP3    H179846   5.557   6.213  16.978  1.5022 -1.2137  0.8765
19477TIP3    H279847   5.478   6.107  17.051 -2.6219  0.4279 -0.8911
19478TIP3   OH279848   2.943   2.709   4.631 -0.0535  0.4123  1.2689
19478TIP3    H179849   3.018   2.754   4.593  0.1771  0.1372  1.3920
19478TIP3    H279850   2.930   2.632   4.575 -0.0721  0.3125  1.4103
19479TIP3   OH279851   3.115   3.753   2.839  0.1244 -0.1631  0.1326
19479TIP3    H179852   3.195   3.734   2.888  0.4858  1.8902  0.4272
19479TIP3    H279853   3.063   3.809   2.897 -0.9930 -0.4918 -0.5122
19480TIP3   OH279854   1.572   2.841  15.975 -0.1581 -0.0742 -0.1004
19480TIP3    H179855   1.510   2.771  15.956 -1.6292  1.3430 -0.8205
19480TIP3    H279856   1.636   2.837  15.904  0.7251 -1.6513  0.7340
19481TIP3   OH279857   1.178   1.963   5.747 -0.1781  0.3790  0.5327
19481TIP3    H179858   1.215   1.883   5.784 -0.2110 -0.1679 -0.5581
19481TIP3    H279859   1.179   2.026   5.819  0.9637 -0.2402  1.0893
19482TIP3   OH279860   5.768   5.750  14.155 -0.4041 -0.4604  1.2766
19482TIP3    H179861   5.845   5.770  14.102 -1.0165  0.8156  0.8270
19482TIP3    H279862   5.789   5.784  14.242 -0.0024 -1.1894  1.4731
19483TIP3   OH279863   2.075   5.143   5.913 -0.1695  0.3045  0.5850
19483TIP3    H179864   2.170   5.155   5.902 -0.3766  0.2554 -1.7056
19483TIP3    H279865   2.065   5.050   5.930  0.0614 -0.2794 -2.0567
19484TIP3   OH279866   5.413   3.124   0.263 -0.1595 -0.6337  0.2658
19484TIP3    H179867   5.431   3.036   0.230  0.2097  0.2552 -2.1113
19484TIP3    H279868   5.347   3.159   0.203 -0.1539  0.7882  1.0431
19485TIP3   OH279869   0.992   5.213  14.024  0.0201 -0.0121  0.5817
19485TIP3    H179870   1.056   5.256  14.080  0.1512 -0.4696  0.7880
19485TIP3    H279871   1.022   5.122  14.018 -0.5666 -0.2147  0.6212
19486TIP3   OH279872   2.449   4.148   4.775  0.4126 -0.0537 -0.0725
19486TIP3    H179873   2.422   4.194   4.696  0.2704  0.6849  0.3991
19486TIP3    H279874   2.419   4.058   4.762 -1.9087  0.6169  0.2340
19487TIP3   OH279875   2.571   1.879  17.385  0.2627  0.3349  0.7957
19487TIP3    H179876   2.628   1.830  17.445  2.5801  2.1367  0.1977
19487TIP3    H279877   2.615   1.963  17.373 -2.0877  1.4811 -0.4864
19488TIP3   OH279878   4.550   3.100  14.579  0.2595 -0.2948  0.6615
19488TIP3    H179879   4.557   3.186  14.620 -0.0174 -0.3589  0.8496
19488TIP3    H279880   4.607   3.044  14.631  1.4890  0.0539 -0.2644
19489TIP3   OH279881   2.365   4.820   2.030 -0.2364  0.2104  0.2452
19489TIP3    H179882   2.375   4.737   1.983 -0.6928  0.1220  0.3004
19489TIP3    H279883   2.449   4.831   2.076  1.1632  1.4616 -2.3677
19490TIP3   OH279884   1.175   5.898  13.814  0.3578 -0.5873  1.1155
19490TIP3    H179885   1.198   5.806  13.801  1.4631 -0.1792 -0.0321
19490TIP3    H279886   1.230   5.946  13.752 -1.2507  0.7512  0.6353
19491TIP3   OH279887   0.134   0.527  11.753  0.5560  0.1007  0.6796
19491TIP3    H179888   0.086   0.546  11.673 -0.4031 -3.1846  0.3120
19491TIP3    H279889   0.088   0.576  11.821 -0.9656  0.0327 -0.2613
19492TIP3   OH279890   5.193   2.154  17.112  0.0893  0.6098  0.1922
19492TIP3    H179891   5.101   2.129  17.106  0.3531 -0.1603 -0.7868
19492TIP3    H279892   5.239   2.074  17.137  0.3586  1.3026  2.1188
19493TIP3   OH279893   0.466   0.347   2.261  0.8341  0.0448 -0.1154
19493TIP3    H179894   0.411   0.328   2.337  1.8221  0.0254  0.6132
19493TIP3    H279895   0.409   0.396   2.202 -0.1963 -0.6467  0.2725
19494TIP3   OH279896   5.570   6.494  15.404  0.0793 -0.6197 -0.2191
19494TIP3    H179897   5.508   6.464  15.337  1.2178 -1.9365 -0.7286
19494TIP3    H279898   5.655   6.463  15.373  0.8338  0.0931  1.0823
19495TIP3   OH279899   1.779   5.238  12.885  0.6168  0.4669  0.6143
19495TIP3    H179900   1.800   5.215  12.794 -0.6211  1.9143 -0.0937
19495TIP3    H279901   1.839   5.309  12.906  0.7583  0.2770  0.8437
19496TIP3   OH279902   5.714   0.397   6.342  0.1037 -0.6116 -0.1996
19496TIP3    H179903   5.637   0.344   6.362 -1.1498 -0.1190 -3.1020
19496TIP3    H279904   5.762   0.347   6.276  1.3247 -0.1090  0.2738
19497TIP3   OH279905   5.627   3.138   0.492 -0.5203  0.2592  0.6178
19497TIP3    H179906   5.710   3.092   0.509 -0.8213 -0.2652  0.6678
19497TIP3    H279907   5.638   3.175   0.405 -0.9904 -1.5161 -0.2280
19498TIP3   OH279908   3.789   2.809  16.628 -0.4963 -0.2816 -0.7110
19498TIP3    H179909   3.812   2.716  16.623  0.8646 -0.0779  0.7574
19498TIP3    H279910   3.780   2.826  16.722  0.2326  1.2716 -0.8879
19499TIP3   OH279911   2.141   0.454  14.619 -0.2775 -0.3796 -0.1020
19499TIP3    H179912   2.166   0.546  14.611  0.3467 -0.4614  0.7861
19499TIP3    H279913   2.050   0.456  14.646 -0.4565 -0.0316 -0.7158
19500TIP3   OH279914   0.408   5.551  14.084 -0.7531  0.0267  0.4787
19500TIP3    H179915   0.329   5.603  14.099 -0.2440  0.5458  1.4613
19500TIP3    H279916   0.460   5.562  14.164 -0.0866 -1.0267  0.2101
19501TIP3   OH279917   1.737   0.616   4.483  0.3462 -0.0735 -0.4486
19501TIP3    H179918   1.702   0.570   4.559 -1.4742  3.4768  1.1578
19501TIP3    H279919   1.828   0.635   4.506  0.4625 -0.9124 -0.1826
19502TIP3   OH279920   4.396   2.606   3.538 -0.2780  0.0646  0.1375
19502TIP3    H179921   4.434   2.684   3.497 -1.1203  0.3447 -0.1439
19502TIP3    H279922   4.420   2.613   3.630  0.4700  0.1490 -0.0568
19503TIP3   OH279923   2.705   0.927  14.456 -0.3409 -0.1356  0.4443
19503TIP3    H179924   2.687   0.931  14.362 -0.2713  1.6598  0.4796
19503TIP3    H279925   2.776   0.863  14.464 -0.2946 -0.2491 -0.7430
19504TIP3   OH279926   3.916   1.922   6.081  0.0578 -0.3605  0.3905
19504TIP3    H179927   3.997   1.957   6.045  0.8182 -0.3756  2.0081
19504TIP3    H279928   3.922   1.827   6.066  0.3249 -0.3540  0.4476
19505TIP3   OH279929   0.106   4.175   5.612 -0.2325  0.0121 -0.5435
19505TIP3    H179930   0.020   4.175   5.656 -0.3583 -1.4660 -0.7342
19505TIP3    H279931   0.116   4.264   5.579 -2.0806  0.0052 -1.2397
19506TIP3   OH279932   1.179   3.177  15.999  0.6195 -0.0378 -0.0046
19506TIP3    H179933   1.253   3.237  15.996  0.4273  0.2236 -2.5961
19506TIP3    H279934   1.215   3.095  16.031  2.0739  0.0901 -1.1866
19507TIP3   OH279935   1.518   3.725   3.625  0.2544  0.5362  0.1665
19507TIP3    H179936   1.467   3.673   3.687 -0.9367  1.4876  0.0297
19507TIP3    H279937   1.558   3.794   3.678  0.2190  0.6402  0.0580
19508TIP3   OH279938   2.618   0.793   0.508 -0.1322  0.2144 -0.2465
19508TIP3    H179939   2.604   0.707   0.546  1.2365  0.4223  0.8146
19508TIP3    H279940   2.542   0.808   0.452 -0.3553 -1.6973 -0.5094
19509TIP3   OH279941   3.962   4.506   2.757  0.0118  0.4967 -0.2906
19509TIP3    H179942   3.894   4.509   2.690  0.9980  1.2880 -1.2922
19509TIP3    H279943   4.027   4.444   2.724 -1.1679 -1.9696  1.6768
19510TIP3   OH279944   4.263   2.848  15.155 -0.2732 -0.5830 -0.3565
19510TIP3    H179945   4.177   2.844  15.115  0.3929 -1.0744 -1.7819
19510TIP3    H279946   4.251   2.903  15.233 -2.0404 -1.3690 -0.0440
19511TIP3   OH279947   6.299   0.728   5.610 -0.3882  0.6712 -0.2410
19511TIP3    H179948   6.250   0.808   5.589  1.7411  1.1995 -4.1786
19511TIP3    H279949   6.282   0.670   5.536  0.2607 -1.4825  1.2293
19512TIP3   OH279950   5.193   1.236   5.698 -0.2805 -0.1824 -0.2604
19512TIP3    H179951   5.209   1.182   5.775 -0.9572  1.4218  1.0999
19512TIP3    H279952   5.241   1.317   5.716 -1.5023  0.7140 -0.9009
19513TIP3   OH279953   1.414   2.629  11.760 -0.5784  0.4578  0.6434
19513TIP3    H179954   1.406   2.560  11.694  1.2440  1.2423 -0.4766
19513TIP3    H279955   1.337   2.618  11.816 -1.2791 -1.3173 -0.5855
19514TIP3   OH279956   6.299   4.573  14.944 -0.1400  0.0322  0.1707
19514TIP3    H179957   6.381   4.550  14.987 -0.1783 -0.1116  0.1676
19514TIP3    H279958   6.296   4.668  14.947  1.6537  0.3079 -2.7648
19515TIP3   OH279959   1.040   4.644  16.882 -0.7631  0.3298  0.1380
19515TIP3    H179960   0.970   4.608  16.828 -1.7441 -0.8358  2.0658
19515TIP3    H279961   1.028   4.739  16.876 -3.9487  0.2080  2.0325
19516TIP3   OH279962   1.558   3.733  12.503  0.0017 -0.2207 -0.2794
19516TIP3    H179963   1.491   3.679  12.461 -0.6921  1.6997 -1.7391
19516TIP3    H279964   1.518   3.819  12.514  1.3614  0.2770  1.2416
19517TIP3   OH279965   2.313   6.077  13.329  0.7672  0.1552  0.0041
19517TIP3    H179966   2.340   6.144  13.267  0.3423  0.7551  0.4555
19517TIP3    H279967   2.250   6.023  13.280  1.7067 -0.4130 -0.6090
19518TIP3   OH279968   0.553   2.617  14.262  0.3185  0.9173  0.1624
19518TIP3    H179969   0.588   2.534  14.231  1.3484  1.1615  0.6031
19518TIP3    H279970   0.518   2.659  14.184  0.3175  0.3213 -0.1645
19519TIP3   OH279971   3.171   3.710   3.430  0.6026  0.2114 -0.2730
19519TIP3    H179972   3.144   3.730   3.340 -2.7943 -0.8528  0.3716
19519TIP3    H279973   3.125   3.773   3.484 -0.4968 -1.5152  0.9166
19520TIP3   OH279974   3.850   0.551   0.685 -0.2693  0.2869  0.3576
19520TIP3    H179975   3.802   0.602   0.750  1.4831  2.1086  0.3466
19520TIP3    H279976   3.865   0.612   0.613 -2.5257 -1.7872 -2.0760
19521TIP3   OH279977   2.315   3.109  13.591 -0.7797  0.0977 -0.4968
19521TIP3    H179978   2.326   3.027  13.638  2.0853  0.9205  0.5082
19521TIP3    H279979   2.272   3.167  13.653  1.4257  0.6644  0.5838
19522TIP3   OH279980   5.682   5.175  13.325 -0.7401  1.1725 -0.2277
19522TIP3    H179981   5.739   5.217  13.261 -0.1506 -0.0735 -0.5508
19522TIP3    H279982   5.682   5.236  13.400  2.2086  0.5921  0.3803
19523TIP3   OH279983   4.202   2.749  14.151 -0.1251 -0.8143 -0.0171
19523TIP3    H179984   4.115   2.730  14.115 -0.6155 -1.1509  1.2919
19523TIP3    H279985   4.195   2.838  14.186 -0.2872 -1.2498  1.0778
19524TIP3   OH279986   2.904   2.637   2.492  0.0783 -0.1401 -0.0839
19524TIP3    H179987   2.889   2.543   2.505  1.2029 -0.1660  1.1538
19524TIP3    H279988   2.948   2.643   2.407 -0.9996 -0.6038 -0.7058
19525TIP3   OH279989   3.799   6.604  14.786 -0.2603  0.2360 -0.0550
19525TIP3    H179990   3.760   6.537  14.842 -0.6222 -0.6477 -1.3226
19525TIP3    H279991   3.864   6.647  14.842  0.7962 -1.9330  0.4849
19526TIP3   OH279992   4.443   4.786   1.204 -0.4405 -0.2591  0.0641
19526TIP3    H179993   4.368   4.729   1.187 -0.0988 -1.0957  1.2281
19526TIP3    H279994   4.519   4.730   1.189 -0.0834  0.0517  0.6705
19527TIP3   OH279995   0.247   4.599   1.645  0.1755 -0.1124 -0.0178
19527TIP3    H179996   0.278   4.631   1.730  0.2299 -1.0576  0.3319
19527TIP3    H279997   0.232   4.678   1.594  3.3758  0.4571 -0.3140
19528TIP3   OH279998   3.529   1.246  16.080 -0.2315  0.4824 -0.0814
19528TIP3    H179999   3.481   1.208  16.154  0.8394 -0.8539 -0.0237
19528TIP3    H280000   3.565   1.328  16.114  1.3741 -0.7409  1.3973
19529TIP3   OH280001   5.145   5.255   5.902  0.3587  0.0069  0.0208
19529TIP3    H180002   5.114   5.171   5.935  0.3517 -0.0022 -0.0086
19529TIP3    H280003   5.110   5.260   5.813 -2.1745  1.3563  0.9829
19530TIP3   OH280004   3.764   1.793  14.203  0.6353  0.0287 -0.0674
19530TIP3    H180005   3.791   1.739  14.130 -0.4421  1.0807 -1.2943
19530TIP3    H280006   3.830   1.862  14.208  0.2390  0.4588 -0.6382
19531TIP3   OH280007   2.419   3.817   5.918 -0.1350  0.2751 -0.6644
19531TIP3    H180008   2.337   3.809   5.870  0.3133 -0.8808 -1.2522
19531TIP3    H280009   2.487   3.818   5.851  0.4664 -0.8292 -0.0902
19532TIP3   OH280010   2.937   3.726  13.817 -0.8491 -0.0201 -0.9227
19532TIP3    H180011   3.009   3.745  13.757  1.0244 -0.1438  1.1409
19532TIP3    H280012   2.924   3.808  13.865 -0.7762 -0.5575  0.0273
19533TIP3   OH280013   3.395   4.580   5.177  0.0816  0.4891  0.5397
19533TIP3    H180014   3.445   4.547   5.252  0.9652 -0.5373 -0.4523
19533TIP3    H280015   3.308   4.542   5.187  0.9626 -1.9930 -0.3580
19534TIP3   OH280016   0.243   2.462   6.435  0.2256 -0.5727 -0.1145
19534TIP3    H180017   0.177   2.420   6.490 -0.8571  1.0051 -0.1236
19534TIP3    H280018   0.192   2.508   6.368  1.2866  1.1022  0.1597
19535TIP3   OH280019   3.265   5.307  16.896 -0.1631  0.4367  0.1626
19535TIP3    H180020   3.360   5.299  16.907 -0.2389  0.5955  1.0495
19535TIP3    H280021   3.254   5.362  16.818  0.4568 -0.3103 -0.4644
19536TIP3   OH280022   2.685   4.084  12.506  0.4107 -0.2176 -0.1915
19536TIP3    H180023   2.769   4.101  12.550 -0.0408 -0.3442  0.7547
19536TIP3    H280024   2.706   4.019  12.439  0.9016 -0.9734  0.6687
19537TIP3   OH280025   3.235   4.300   1.489  0.1318  0.4936  0.1870
19537TIP3    H180026   3.309   4.336   1.440  0.8576  0.6451  1.3713
19537TIP3    H280027   3.271   4.277   1.574 -1.0850  0.1136  0.6208
19538TIP3   OH280028   0.041   3.647   3.350  0.8037  0.5166  0.5556
19538TIP3    H180029   0.058   3.702   3.274 -1.3520 -0.0164 -0.3689
19538TIP3    H280030   0.129   3.628   3.385  1.8301  1.1737 -1.4863
19539TIP3   OH280031   5.596   1.459  16.206  0.1925 -0.4687  0.0056
19539TIP3    H180032   5.544   1.486  16.130 -1.4602 -0.9974  0.8818
19539TIP3    H280033   5.606   1.539  16.258 -1.0559 -0.6326  0.5414
19540TIP3   OH280034   1.059   4.521   2.617 -0.0264 -0.2576 -0.1932
19540TIP3    H180035   1.056   4.433   2.580  0.5081 -0.0175 -0.8228
19540TIP3    H280036   1.003   4.516   2.695  2.4792 -1.9918  1.6571
19541TIP3   OH280037   5.352   1.072   1.140  0.8306 -0.1314  0.0272
19541TIP3    H180038   5.322   1.162   1.159 -0.4282 -0.6627  0.6770
19541TIP3    H280039   5.397   1.079   1.056  0.3927  1.0420 -0.1293
19542TIP3   OH280040   2.142   2.846  16.745  0.4872  0.6435  0.2362
19542TIP3    H180041   2.088   2.845  16.666  0.9393  0.2191 -0.0789
19542TIP3    H280042   2.179   2.758  16.750  1.6493  1.1038  0.0959
19543TIP3   OH280043   5.337   0.416  15.683 -0.1100 -1.0305 -0.2768
19543TIP3    H180044   5.251   0.426  15.643 -1.0327 -0.0531  1.7729
19543TIP3    H280045   5.327   0.344  15.744  0.3734 -0.6188  0.3032
19544TIP3   OH280046   6.035   1.665   4.144  0.1716  0.2776 -0.1064
19544TIP3    H180047   6.024   1.589   4.086 -0.0247 -0.3670  0.7706
19544TIP3    H280048   5.946   1.688   4.171  0.3437 -0.1567  0.8642
19545TIP3   OH280049   6.135   2.518   0.961  0.5286 -0.4817 -0.0998
19545TIP3    H180050   6.225   2.503   0.932  1.7541  0.5209  2.8562
19545TIP3    H280051   6.139   2.600   1.009 -0.7086 -2.9011  4.7048
19546TIP3   OH280052   2.235   4.287  17.027 -0.2501  0.1562  0.8678
19546TIP3    H180053   2.295   4.313  17.098 -0.3203 -3.1776  2.3559
19546TIP3    H280054   2.179   4.220  17.067 -2.1769  0.1391 -1.6572
19547TIP3   OH280055   6.617   3.878  14.144  0.5308  0.0744 -0.2250
19547TIP3    H180056   6.628   3.971  14.127  1.3235 -0.2332 -1.4908
19547TIP3    H280057   6.672   3.834  14.079 -0.3275 -1.3005 -0.0750
19548TIP3   OH280058   5.419   0.932  12.287 -0.2559 -0.0803  0.0879
19548TIP3    H180059   5.485   0.863  12.289  0.2097  0.3755  0.7238
19548TIP3    H280060   5.367   0.913  12.209  0.2625 -0.7784 -0.0974
19549TIP3   OH280061   0.827   1.064   1.647  0.3895 -0.4975 -0.4865
19549TIP3    H180062   0.870   1.007   1.583  3.3342  0.4496  0.4686
19549TIP3    H280063   0.826   1.013   1.727  1.7018  0.1654 -0.0024
19550TIP3   OH280064   0.507   1.004  15.878  0.2575 -0.0814  0.2686
19550TIP3    H180065   0.598   0.982  15.857  0.5390  1.7597 -0.6531
19550TIP3    H280066   0.512   1.036  15.969  0.3307 -0.9883  0.5929
19551TIP3   OH280067   0.348   5.465   2.113 -0.2252 -0.3645 -0.5955
19551TIP3    H180068   0.330   5.525   2.185  0.2757 -0.7960 -0.1090
19551TIP3    H280069   0.399   5.517   2.051  0.0386 -0.2329 -0.2670
19552TIP3   OH280070   1.903   1.111   2.383  0.2237  0.1584 -0.2469
19552TIP3    H180071   1.858   1.169   2.322  0.3641  1.1956  0.6035
19552TIP3    H280072   1.833   1.061   2.425  0.1363 -0.6486 -1.3148
19553TIP3   OH280073   5.514   5.341   5.061 -0.3498 -0.1130  0.1336
19553TIP3    H180074   5.534   5.403   4.990  0.9471 -2.1696 -1.3902
19553TIP3    H280075   5.444   5.384   5.110 -1.8088  1.1444 -2.7832
19554TIP3   OH280076   5.376   3.701   0.370 -0.1308  0.1263  0.1315
19554TIP3    H180077   5.328   3.655   0.301 -2.0678 -0.2298  1.6289
19554TIP3    H280078   5.369   3.644   0.446  1.3736  0.8181  0.8306
19555TIP3   OH280079   2.514   2.607   3.756 -0.4378 -1.0541 -0.0946
19555TIP3    H180080   2.492   2.572   3.841 -1.8633 -1.5344 -0.6346
19555TIP3    H280081   2.604   2.578   3.740 -0.3649 -1.4479  0.9783
19556TIP3   OH280082   2.974   5.589  17.211  0.5751 -0.4066  0.2495
19556TIP3    H180083   3.046   5.544  17.166  1.3155  0.0155  0.9690
19556TIP3    H280084   2.912   5.611  17.142  0.6418 -1.6898 -0.2550
19557TIP3   OH280085   0.519   6.299  14.144 -0.0414 -0.1522 -0.0567
19557TIP3    H180086   0.520   6.384  14.100 -0.7914 -0.3964 -0.5635
19557TIP3    H280087   0.481   6.317  14.230 -0.1498  0.0337 -0.1429
19558TIP3   OH280088   0.889   5.782  14.714 -0.1178 -0.3992 -0.4680
19558TIP3    H180089   0.983   5.798  14.715 -0.1567 -0.0770  1.2089
19558TIP3    H280090   0.851   5.859  14.757 -0.8446 -1.8837  1.7738
19559TIP3   OH280091   6.370   0.348  16.280 -0.3004  0.1995  0.3746
19559TIP3    H180092   6.431   0.330  16.351 -0.5376  0.3727  0.6262
19559TIP3    H280093   6.293   0.294  16.299  0.0197 -0.5060 -0.2877
19560TIP3   OH280094   2.996   5.920  11.094  0.1429 -0.4517  0.6971
19560TIP3    H180095   3.085   5.898  11.120  0.3497  0.7187  1.0355
19560TIP3    H280096   2.987   5.883  11.006 -0.3287 -3.8372  2.0455
19561TIP3   OH280097   3.185   4.413   5.412  0.2385 -0.4629  0.3414
19561TIP3    H180098   3.172   4.336   5.357 -2.4697 -0.5413  0.9328
19561TIP3    H280099   3.199   4.378   5.500 -1.4351 -0.3741  0.6927
19562TIP3   OH280100   2.539   1.762   2.904  0.1020  0.1184  0.1108
19562TIP3    H180101   2.543   1.757   2.999 -3.1148  0.1772  0.3453
19562TIP3    H280102   2.449   1.787   2.884  1.0862  1.8646 -2.9330
19563TIP3   OH280103   5.629   2.128  14.373 -0.0516 -0.2361  0.1404
19563TIP3    H180104   5.698   2.172  14.424  1.2971 -2.4231  0.3577
19563TIP3    H280105   5.645   2.035  14.389 -1.9662 -0.8506 -1.3062
19564TIP3   OH280106   0.000   6.646   2.061 -0.8852 -0.2103 -0.5140
19564TIP3    H180107  -0.057   6.631   1.986 -0.4724  0.8930 -1.0684
19564TIP3    H280108   0.045   6.563   2.075  1.5988  0.4108 -3.6903
19565TIP3   OH280109   3.363   1.348   4.198  0.2813  0.2105  0.1932
19565TIP3    H180110   3.363   1.265   4.246 -1.6213 -0.1759 -0.3800
19565TIP3    H280111   3.438   1.341   4.139  1.2086 -0.3240  1.3687
19566TIP3   OH280112   4.314   0.330   3.171 -0.0773 -0.2060 -0.3117
19566TIP3    H180113   4.283   0.270   3.238  0.6418 -0.8265 -0.5093
19566TIP3    H280114   4.236   0.377   3.142 -0.3155  0.4959  1.3426
19567TIP3   OH280115   0.197   3.905   4.815  0.0583 -0.3660 -0.7640
19567TIP3    H180116   0.223   3.847   4.743  0.2048  0.2833 -1.2482
19567TIP3    H280117   0.114   3.869   4.845 -0.4223 -0.1716 -1.8138
19568TIP3   OH280118   6.412   4.607  14.210 -0.1927  0.1236  0.4854
19568TIP3    H180119   6.488   4.597  14.153 -1.7615  0.0268 -1.7329
19568TIP3    H280120   6.368   4.522  14.207 -1.1277  0.5854  0.5861
19569TIP3   OH280121   2.683   0.482  13.766  0.4023  0.0290 -0.3587
19569TIP3    H180122   2.730   0.544  13.821  0.5848 -0.6929  0.3119
19569TIP3    H280123   2.712   0.396  13.795  0.2310 -0.3846 -1.3461
19570TIP3   OH280124   6.405   0.989  11.363 -0.0315 -0.1947 -0.0710
19570TIP3    H180125   6.464   0.995  11.438 -0.1133  1.3423 -0.1095
19570TIP3    H280126   6.362   1.074  11.359 -1.3720 -0.8661 -0.7766
19571TIP3   OH280127   1.437   6.291  16.583  0.3508 -0.0835 -0.4039
19571TIP3    H180128   1.416   6.256  16.496  0.0475 -2.1877  0.4464
19571TIP3    H280129   1.363   6.265  16.637  0.9763  0.3610  0.6872
19572TIP3   OH280130   5.819   4.550   0.160  0.3236 -0.2120 -0.3039
19572TIP3    H180131   5.880   4.487   0.199  1.9068  0.6619 -1.2781
19572TIP3    H280132   5.874   4.607   0.106 -1.2178  1.2931 -0.3730
19573TIP3   OH280133   5.023   2.865   1.633  0.0940  0.0279 -0.2152
19573TIP3    H180134   5.011   2.770   1.635 -2.5569  0.2822  0.9823
19573TIP3    H280135   4.965   2.895   1.562  0.2791  0.8109 -0.0472
19574TIP3   OH280136   3.646   5.848   2.929 -0.0404 -0.6984 -0.2720
19574TIP3    H180137   3.613   5.849   3.019 -1.0097 -2.6944 -0.5426
19574TIP3    H280138   3.663   5.940   2.909 -2.8054  0.1772  0.9028
19575TIP3   OH280139   3.933   5.909   2.019 -0.9966  0.3432 -0.7548
19575TIP3    H180140   3.907   5.979   2.078  0.1726 -1.3947  2.0103
19575TIP3    H280141   3.852   5.880   1.978 -1.6521  2.4674 -1.0974
19576TIP3   OH280142   5.010   4.781   2.027  0.0671 -0.2338  0.2294
19576TIP3    H180143   5.005   4.686   2.034 -0.8636 -0.1822  0.3737
19576TIP3    H280144   5.045   4.810   2.111  1.2311 -0.5001 -0.1461
19577TIP3   OH280145   5.577   5.222   7.366  0.1358 -0.4909 -0.1751
19577TIP3    H180146   5.509   5.155   7.382  0.3627 -0.8701 -0.7725
19577TIP3    H280147   5.528   5.304   7.360 -0.2793 -0.7670 -0.6370
19578TIP3   OH280148   6.617   5.897   5.309 -0.2268 -0.1063  0.3927
19578TIP3    H180149   6.701   5.942   5.299 -0.3977  0.1732  0.2081
19578TIP3    H280150   6.552   5.966   5.304 -0.5688 -0.5036 -1.0917
19579TIP3   OH280151   2.165   5.017   0.648 -0.0421 -0.2998  0.0613
19579TIP3    H180152   2.119   5.070   0.584 -0.2790  1.1000  1.3190
19579TIP3    H280153   2.113   4.937   0.656 -0.8576  0.1778 -0.3682
19580TIP3   OH280154   1.384   1.372  16.571 -0.2935  0.0135 -0.0618
19580TIP3    H180155   1.434   1.376  16.489 -0.3227  2.3141 -0.0303
19580TIP3    H280156   1.294   1.389  16.545 -0.4065  0.0953  0.3772
19581TIP3   OH280157   0.782   5.460  17.244  0.1952  0.8641  0.6385
19581TIP3    H180158   0.821   5.543  17.272  1.3735 -0.0970  1.9762
19581TIP3    H280159   0.760   5.474  17.152 -0.1745  2.8369  0.9931
19582TIP3   OH280160   4.660   0.659  12.429  0.0143 -0.2779 -0.6599
19582TIP3    H180161   4.753   0.677  12.422  0.3916 -1.2141  1.1915
19582TIP3    H280162   4.655   0.571  12.466 -1.5846  0.0637  0.0428
19583TIP3   OH280163   5.907   0.199   5.268  0.0984 -0.1043  0.1856
19583TIP3    H180164   5.947   0.169   5.351  0.6350  1.9921  0.7347
19583TIP3    H280165   5.818   0.224   5.293  0.4715  1.1566  0.2894
19584TIP3   OH280166   2.289   3.830   1.341  0.8482  0.3260 -0.1282
19584TIP3    H180167   2.335   3.845   1.424 -0.9445  0.5656  0.8784
19584TIP3    H280168   2.245   3.746   1.354  0.8666  0.1739 -1.0033
19585TIP3   OH280169   0.770   2.458  11.453 -0.1026 -0.3161  0.2021
19585TIP3    H180170   0.832   2.385  11.453  0.5041  0.1586  1.5827
19585TIP3    H280171   0.751   2.473  11.360  2.4915  0.0186 -0.3754
19586TIP3   OH280172   6.192   0.012   3.567  0.3329  0.4549 -0.4261
19586TIP3    H180173   6.232  -0.075   3.572 -0.4755 -0.1030 -2.6748
19586TIP3    H280174   6.263   0.070   3.539  0.1713 -0.0962 -2.0506
19587TIP3   OH280175   3.805   0.272   3.026  0.4597  0.1089 -0.0772
19587TIP3    H180176   3.771   0.256   3.114  1.5750 -0.7082  0.2334
19587TIP3    H280177   3.897   0.295   3.040  0.7906 -0.5604 -1.0525
19588TIP3   OH280178   0.247   5.314   5.945 -0.0308  0.0895 -0.3614
19588TIP3    H180179   0.270   5.231   5.988 -1.4113 -0.6014 -0.8670
19588TIP3    H280180   0.317   5.374   5.969  0.9794 -1.2103  0.0778
19589TIP3   OH280181   0.384   3.531   1.823  0.3787 -0.1814  0.0966
19589TIP3    H180182   0.468   3.495   1.796  0.9302  0.0422  1.4251
19589TIP3    H280183   0.357   3.588   1.751  0.9300 -0.9331 -0.7180
19590TIP3   OH280184   5.268   5.628   5.393  0.7605  0.0828  0.2688
19590TIP3    H180185   5.245   5.710   5.350  0.0458  0.5706  1.5064
19590TIP3    H280186   5.211   5.626   5.470 -0.8362 -2.5937 -0.8227
19591TIP3   OH280187   4.599   4.779  12.211  0.0468 -0.4159  0.3948
19591TIP3    H180188   4.664   4.803  12.146  0.5183 -1.7281  0.3490
19591TIP3    H280189   4.526   4.839  12.196  0.6174  0.0509 -0.5743
19592TIP3   OH280190   2.890   5.017  17.022 -0.2896  0.3649 -0.4995
19592TIP3    H180191   2.940   4.949  16.977  1.1514  1.5249 -0.7338
19592TIP3    H280192   2.864   4.977  17.105 -0.8609 -0.9814 -1.2982
19593TIP3   OH280193   4.896   2.479   4.441  0.0031  0.2990 -0.0399
19593TIP3    H180194   4.983   2.494   4.403  0.2948 -0.1977  0.4291
19593TIP3    H280195   4.894   2.386   4.460 -0.8745  0.1896 -0.6234
19594TIP3   OH280196   3.500   4.036  12.776 -0.5188 -0.4731  0.1503
19594TIP3    H180197   3.420   3.988  12.755 -0.9323  0.8424 -1.4792
19594TIP3    H280198   3.470   4.125  12.795  0.3549 -0.5058  1.8860
19595TIP3   OH280199   5.123   3.986   0.725  0.0297  0.4798  0.4853
19595TIP3    H180200   5.181   3.910   0.734 -1.6732 -0.7399  1.7745
19595TIP3    H280201   5.052   3.956   0.670  0.3644  1.8454 -0.7535
19596TIP3   OH280202   3.497   4.043  12.183  0.0855 -0.1181 -1.0147
19596TIP3    H180203   3.479   4.137  12.182  2.0189  0.3642  1.0489
19596TIP3    H280204   3.555   4.031  12.258 -1.5587 -3.2677 -0.0788
19597TIP3   OH280205   5.722   3.180   1.168 -0.4702  0.0107 -0.4281
19597TIP3    H180206   5.685   3.199   1.254  1.3777  1.5903  0.0975
19597TIP3    H280207   5.744   3.266   1.132  1.0185 -0.7367 -1.4289
19598TIP3   OH280208   5.729   0.608   3.094 -0.3328 -0.3169 -0.3431
19598TIP3    H180209   5.777   0.633   3.015 -1.5147  1.4463 -0.5475
19598TIP3    H280210   5.655   0.558   3.063 -0.1647 -0.6241 -0.2522
19599TIP3   OH280211   1.522   2.385   5.269 -0.5772  0.4656 -0.3773
19599TIP3    H180212   1.489   2.434   5.193  0.2345  0.0867 -0.9984
19599TIP3    H280213   1.587   2.444   5.309 -0.0722  0.1672 -0.7435
19600TIP3   OH280214   3.474   4.532   5.459  0.7576  0.1265 -0.3010
19600TIP3    H180215   3.381   4.513   5.473  0.7475 -0.2931 -0.9201
19600TIP3    H280216   3.486   4.619   5.497  0.6410 -0.7734  1.9893
19601TIP3   OH280217   6.550   2.091  14.270  0.1568 -0.1478 -0.0144
19601TIP3    H180218   6.484   2.103  14.338 -0.4059 -1.1542 -0.3577
19601TIP3    H280219   6.563   2.179  14.233 -1.1580  0.0327 -0.0826
19602TIP3   OH280220   4.951   5.986   3.235 -0.1746  0.4964  0.2288
19602TIP3    H180221   4.906   5.911   3.274 -0.0995  0.0157 -0.5727
19602TIP3    H280222   5.043   5.960   3.232  0.2240  1.5432  2.0160
19603TIP3   OH280223   2.644   3.904  13.590  0.1629 -0.2251 -0.0373
19603TIP3    H180224   2.688   3.983  13.622 -0.1858 -0.7996  2.0465
19603TIP3    H280225   2.623   3.923  13.499 -0.4335  2.3229  0.5472
19604TIP3   OH280226   1.682   0.127   4.952  0.1407 -0.0766 -0.5149
19604TIP3    H180227   1.704   0.138   5.044 -1.4503 -0.5327 -0.0444
19604TIP3    H280228   1.614   0.192   4.935 -0.9353 -1.2284 -0.8285
19605TIP3   OH280229   5.640   5.879  15.083  0.0606  0.3430  0.7999
19605TIP3    H180230   5.693   5.954  15.056  0.7950 -0.5887 -0.4382
19605TIP3    H280231   5.579   5.865  15.010  1.0088 -1.2322  0.2728
19606TIP3   OH280232   1.388   3.538   5.241  0.1561 -0.5236 -0.3403
19606TIP3    H180233   1.300   3.563   5.210  0.2667  0.4455  0.0836
19606TIP3    H280234   1.447   3.599   5.197  0.4569 -0.1233  0.5845
19607TIP3   OH280235   1.059   0.305   1.231 -0.0675  0.3007  0.1733
19607TIP3    H180236   0.981   0.352   1.202  0.6719  0.2357 -2.1033
19607TIP3    H280237   1.044   0.214   1.204  0.6889  0.2390 -0.0574
19608TIP3   OH280238   4.013   0.121   1.304 -0.6621  0.0460  0.0449
19608TIP3    H180239   4.028   0.034   1.341  1.2025  0.3608  0.1290
19608TIP3    H280240   4.083   0.133   1.241 -0.8698  1.5084  0.0575
19609TIP3   OH280241   2.987   4.450   3.702  0.2055 -0.3871  0.2212
19609TIP3    H180242   3.073   4.413   3.723  1.4898  1.3441 -1.5980
19609TIP3    H280243   2.985   4.534   3.748  0.1790  0.2816 -0.9669
19610TIP3   OH280244   2.943   6.370   1.600  0.0773  0.5478  0.0477
19610TIP3    H180245   2.995   6.358   1.680  0.2826 -0.3801 -0.2080
19610TIP3    H280246   2.962   6.459   1.572 -0.5729  1.1554  1.4318
19611TIP3   OH280247   4.062   0.958   3.665 -0.0218  0.4172 -0.0003
19611TIP3    H180248   4.076   1.053   3.666  1.6883  0.2051 -0.3392
19611TIP3    H280249   4.058   0.936   3.572 -0.7231  0.1908  0.0825
19612TIP3   OH280250   3.226   0.105   4.132 -0.4296  0.5300 -0.1980
19612TIP3    H180251   3.175   0.089   4.052 -1.4541  0.9660  0.3498
19612TIP3    H280252   3.161   0.107   4.202  0.4352  0.3524  0.6304
19613TIP3   OH280253   5.188   4.441   4.267  0.4224 -0.2137 -0.5155
19613TIP3    H180254   5.100   4.458   4.299  0.8410  0.8234  0.1705
19613TIP3    H280255   5.192   4.347   4.254 -0.2940 -0.4712  0.9598
19614TIP3   OH280256   0.699   1.466  13.248 -0.4426  0.3163  0.3945
19614TIP3    H180257   0.720   1.473  13.341 -2.8169  2.6770  0.9075
19614TIP3    H280258   0.616   1.418  13.246 -1.7451  2.4248 -0.1419
19615TIP3   OH280259   3.064   1.405   5.134 -0.5146  0.2815 -0.4264
19615TIP3    H180260   3.081   1.471   5.201 -1.7848 -0.0480  0.2656
19615TIP3    H280261   3.005   1.342   5.177 -0.3028 -0.6423 -1.4460
19616TIP3   OH280262   1.059   0.583  16.877 -0.7765 -0.4048  0.0836
19616TIP3    H180263   1.123   0.621  16.817  0.3446 -1.9456  0.2168
19616TIP3    H280264   0.979   0.573  16.825 -0.5493  0.4742 -0.4421
19617TIP3   OH280265   4.868   1.825  15.155  0.4134  0.1967  0.2268
19617TIP3    H180266   4.841   1.801  15.244  0.4790  0.7460  0.3979
19617TIP3    H280267   4.831   1.912  15.141  1.6590  0.7620  0.2861
19618TIP3   OH280268   0.758   2.491   5.853  0.1846 -0.1319  0.8692
19618TIP3    H180269   0.733   2.447   5.772 -3.3580  2.7091  0.1209
19618TIP3    H280270   0.823   2.556   5.827 -1.4237  1.2242  0.0027
19619TIP3   OH280271   5.926   3.030  13.565  0.2788 -0.0023  0.0425
19619TIP3    H180272   5.995   3.045  13.500 -0.6310 -0.9456 -1.2037
19619TIP3    H280273   5.869   2.965  13.524 -0.8241  0.0455  1.4387
19620TIP3   OH280274   2.725   1.978   4.024  0.0122 -0.1503  0.3659
19620TIP3    H180275   2.658   2.003   3.961  1.3259  0.4600 -0.8591
19620TIP3    H280276   2.791   2.048   4.017  0.7410 -0.6831  1.5781
19621TIP3   OH280277   5.830   3.781  16.670  0.0617 -0.0339  0.2763
19621TIP3    H180278   5.816   3.686  16.679 -2.8157  0.1624 -0.8590
19621TIP3    H280279   5.832   3.796  16.576  2.4478  0.8746  0.4180
19622TIP3   OH280280   2.398   5.534  10.693 -0.0147 -0.0128  0.6712
19622TIP3    H180281   2.485   5.527  10.733 -0.1035 -0.1194  0.8496
19622TIP3    H280282   2.337   5.516  10.765 -0.1984  0.5206  0.6529
19623TIP3   OH280283   6.003   6.295  12.984 -0.2490  0.0065 -0.1259
19623TIP3    H180284   5.913   6.288  12.952 -0.0863 -0.6079 -0.4706
19623TIP3    H280285   6.052   6.333  12.911  0.2380 -1.9468 -0.8767
19624TIP3   OH280286   6.275   1.326  16.671 -0.3019 -0.2899  0.5070
19624TIP3    H180287   6.364   1.326  16.634 -0.2927  0.3439  0.5327
19624TIP3    H280288   6.224   1.275  16.607  0.1667 -1.0481  0.7210
19625TIP3   OH280289   0.959   6.401  16.740  0.2537  0.2510  0.6824
19625TIP3    H180290   0.876   6.389  16.693 -0.6163  0.9392  1.9804
19625TIP3    H280291   1.024   6.362  16.683 -1.0658 -1.0240 -0.0247
19626TIP3   OH280292   2.014   1.481  12.895  0.7369 -0.5729  0.2560
19626TIP3    H180293   2.037   1.551  12.957  2.0392 -0.8155  0.0794
19626TIP3    H280294   2.046   1.401  12.938 -0.1557 -0.9820  0.1639
19627TIP3   OH280295   1.620   2.290   5.966  0.2815 -0.3247 -0.5343
19627TIP3    H180296   1.601   2.382   5.948  0.0378 -0.2217  0.2395
19627TIP3    H280297   1.545   2.258   6.016 -0.3864 -1.3846 -2.1260
19628TIP3   OH280298   5.269   5.601  14.113  0.0888  0.5033  0.2480
19628TIP3    H180299   5.208   5.628  14.045  0.4260 -1.3902 -0.8690
19628TIP3    H280300   5.289   5.682  14.160 -1.2828  1.6083 -0.9568
19629TIP3   OH280301   0.147   3.740   7.072 -0.0756 -0.3575  0.9061
19629TIP3    H180302   0.133   3.692   6.990  0.1736 -0.7859  1.1157
19629TIP3    H280303   0.059   3.765   7.100 -0.4801 -2.7608  2.0382
19630TIP3   OH280304   3.831   4.523   6.056 -0.2952 -0.0129 -0.4226
19630TIP3    H180305   3.828   4.428   6.069 -1.2540  0.2538  1.7110
19630TIP3    H280306   3.889   4.535   5.981 -0.8141 -2.3224 -1.2739
19631TIP3   OH280307   2.926   5.283   1.435  0.5178 -0.6078  0.3121
19631TIP3    H180308   2.878   5.213   1.390 -0.5349 -0.2496  0.8593
19631TIP3    H280309   2.908   5.361   1.382 -1.3143 -0.0359  1.6833
19632TIP3   OH280310   5.022   1.718   1.699  0.4425 -0.3336  0.4064
19632TIP3    H180311   5.104   1.670   1.684  0.5668 -0.4181  1.3395
19632TIP3    H280312   4.989   1.683   1.781  0.2963  0.8592  0.8586
19633TIP3   OH280313   2.568   1.830  15.276 -0.0634 -0.0096 -1.1213
19633TIP3    H180314   2.589   1.770  15.348  2.1189  1.7397 -0.1656
19633TIP3    H280315   2.516   1.899  15.317 -2.1752 -0.9495 -2.1164
19634TIP3   OH280316   2.195   5.679   0.339  0.2175  0.2007 -0.1006
19634TIP3    H180317   2.189   5.773   0.324  1.5520  0.4050  0.4795
19634TIP3    H280318   2.108   5.653   0.368 -0.1575  1.2638 -0.2375
19635TIP3   OH280319   0.097   5.772   0.386  0.0249  0.8768  0.0496
19635TIP3    H180320   0.169   5.829   0.358  1.3991 -0.0067  1.5315
19635TIP3    H280321   0.118   5.687   0.349  0.0475  0.4915  0.9089
19636TIP3   OH280322   1.118   5.097   2.798  0.3504  0.1108  0.5680
19636TIP3    H180323   1.048   5.044   2.760  0.7034 -1.4330  1.9968
19636TIP3    H280324   1.179   5.111   2.726 -0.6221  0.1175 -0.2823
19637TIP3   OH280325   2.468   3.469  14.919 -0.5126  0.6776  0.6523
19637TIP3    H180326   2.397   3.482  14.981 -1.0397  0.2456  0.1502
19637TIP3    H280327   2.548   3.475  14.972 -0.8387  2.7196  0.9723
19638TIP3   OH280328   0.996   4.261   2.595 -0.3065  0.4865 -0.5924
19638TIP3    H180329   0.966   4.267   2.504 -2.3140 -3.1016 -0.3368
19638TIP3    H280330   0.921   4.290   2.646 -0.9841 -1.9815 -0.0752
19639TIP3   OH280331   2.000   4.416   6.078 -0.0702 -0.2333  0.1724
19639TIP3    H180332   1.933   4.446   6.139 -0.7603  0.1439 -0.7559
19639TIP3    H280333   2.032   4.334   6.116 -0.8814 -0.2933  0.7418
19640TIP3   OH280334   0.227   1.579  11.899 -0.2163  0.0802 -0.4023
19640TIP3    H180335   0.304   1.633  11.880 -0.4989  0.1534 -1.4164
19640TIP3    H280336   0.164   1.603  11.831 -0.6341 -0.9678 -0.4063
19641TIP3   OH280337   2.413   2.739  13.457 -0.1471 -0.4467 -0.5257
19641TIP3    H180338   2.489   2.689  13.430 -0.3254 -1.4804  0.7803
19641TIP3    H280339   2.447   2.808  13.514  0.0196  0.5586 -1.7717
19642TIP3   OH280340   1.461   2.545   0.192 -0.4317 -0.2768  0.0530
19642TIP3    H180341   1.440   2.451   0.197 -0.4058 -0.2083  2.6671
19642TIP3    H280342   1.556   2.548   0.184 -0.4787 -0.4661 -0.6267
19643TIP3   OH280343   1.371   2.786   2.839 -0.4699 -0.1997 -0.3251
19643TIP3    H180344   1.389   2.843   2.764 -0.2898 -1.3500 -1.1736
19643TIP3    H280345   1.330   2.844   2.903  1.0425  1.2245 -0.5761
19644TIP3   OH280346   3.031   2.370  10.736  0.0632  0.0127  0.2738
19644TIP3    H180347   3.090   2.304  10.773 -1.1044 -0.4979  1.3366
19644TIP3    H280348   2.946   2.326  10.733 -0.9044  1.6489  1.6298
19645TIP3   OH280349   1.721   0.830  16.397 -0.1231  0.1759  0.4849
19645TIP3    H180350   1.730   0.791  16.310 -0.3740  0.1454  0.4727
19645TIP3    H280351   1.690   0.919  16.380 -0.7488 -0.0257  0.5700
19646TIP3   OH280352   6.024   3.203   4.352 -0.1798  0.2419  0.0868
19646TIP3    H180353   6.044   3.178   4.262  1.4154 -0.5148  0.6189
19646TIP3    H280354   6.026   3.299   4.351  0.0514  0.2365 -0.6370
19647TIP3   OH280355   2.266   0.091  17.520  0.4563  0.0152 -0.2795
19647TIP3    H180356   2.277   0.029  17.592  1.5608 -0.0467 -0.4824
19647TIP3    H280357   2.211   0.044  17.457  2.2043 -1.2523 -0.9410
19648TIP3   OH280358   6.386   2.645   5.002 -0.0211  0.1926 -0.6602
19648TIP3    H180359   6.320   2.709   4.976  0.8568  0.8945 -1.2247
19648TIP3    H280360   6.456   2.698   5.042  0.3947 -0.4868 -0.4743
19649TIP3   OH280361   1.457   5.187  15.282 -0.2453  0.0921 -0.3724
19649TIP3    H180362   1.399   5.253  15.318  0.2753  0.7183 -0.6693
19649TIP3    H280363   1.527   5.177  15.347  0.6273  1.1330 -1.1113
19650TIP3   OH280364   5.302   1.580   4.338 -0.1814  0.1254  0.2278
19650TIP3    H180365   5.268   1.644   4.400  0.3067 -0.1913  0.8379
19650TIP3    H280366   5.379   1.544   4.382  1.6916  1.6801 -1.5844
19651TIP3   OH280367   1.318   0.625   0.795  0.2705  0.4977 -0.0038
19651TIP3    H180368   1.392   0.621   0.734  0.2746 -1.6523  0.0491
19651TIP3    H280369   1.249   0.670   0.746  0.5228 -0.5252 -1.3859
19652TIP3   OH280370   3.738   4.669   4.871  0.1428  0.3473 -0.0262
19652TIP3    H180371   3.761   4.758   4.896 -1.5774  0.8145  0.0589
19652TIP3    H280372   3.794   4.650   4.796 -1.0726  2.4380 -1.5871
19653TIP3   OH280373   1.515   0.651   2.731 -0.4522 -0.2470  0.3266
19653TIP3    H180374   1.485   0.682   2.645  0.1539 -2.1548 -0.6395
19653TIP3    H280375   1.489   0.559   2.734  1.2785 -0.7581  1.3372
19654TIP3   OH280376   4.185   1.761   4.449  0.5381 -0.1284 -0.1643
19654TIP3    H180377   4.112   1.815   4.479 -0.7802 -0.4914 -2.4136
19654TIP3    H280378   4.262   1.817   4.457 -0.5825  1.6599 -1.2235
19655TIP3   OH280379   4.727   4.301  13.415  0.6952  0.3833  0.4764
19655TIP3    H180380   4.773   4.352  13.349  0.3219 -1.3735 -1.2477
19655TIP3    H280381   4.635   4.305  13.388  0.7298 -1.6592 -0.1288
19656TIP3   OH280382   0.327   5.439  11.762 -0.1924  0.2094  0.4112
19656TIP3    H180383   0.298   5.439  11.670  3.4849  1.5088 -0.9430
19656TIP3    H280384   0.351   5.530  11.778 -0.2522 -0.1170  2.5443
19657TIP3   OH280385   5.168   3.966  13.806  0.7167 -0.5095 -0.0332
19657TIP3    H180386   5.110   3.908  13.757  0.4204  0.4792 -0.8741
19657TIP3    H280387   5.256   3.940  13.778  0.6416 -1.1628  0.3015
19658TIP3   OH280388   0.820   5.953   5.932  0.0836 -0.2660 -0.2322
19658TIP3    H180389   0.815   5.937   5.837 -2.0128 -0.0532 -0.2081
19658TIP3    H280390   0.736   5.922   5.966  1.3930 -1.7976  1.8236
19659TIP3   OH280391   1.519   1.815   4.836  0.0113 -0.0489  0.2318
19659TIP3    H180392   1.601   1.861   4.816 -0.5919  0.7961 -0.3741
19659TIP3    H280393   1.513   1.747   4.768  1.1923 -1.4671  1.4683
19660TIP3   OH280394   3.712   3.198   4.519  0.1669  0.3440 -0.3304
19660TIP3    H180395   3.706   3.147   4.600 -1.7382  1.3595  0.2236
19660TIP3    H280396   3.674   3.140   4.452 -2.1540  0.9732  0.3271
19661TIP3   OH280397   5.714   6.505  15.954 -0.5626  0.4545  0.1669
19661TIP3    H180398   5.675   6.418  15.964 -0.3217  0.4155  0.8521
19661TIP3    H280399   5.656   6.550  15.893 -0.3211 -0.4016 -0.7258
19662TIP3   OH280400   2.818   0.166  10.705  0.0810  0.1317 -0.0497
19662TIP3    H180401   2.738   0.125  10.672 -1.0184  1.6609  0.6032
19662TIP3    H280402   2.863   0.096  10.752 -0.6826 -0.8471 -0.7347
19663TIP3   OH280403   3.858   2.530   2.224  0.1192 -0.1247  0.2219
19663TIP3    H180404   3.902   2.532   2.139  0.8872 -0.0304  0.6074
19663TIP3    H280405   3.902   2.599   2.275 -0.1436 -0.3624  0.7794
19664TIP3   OH280406   2.278   5.346  14.374 -0.1586 -0.4562 -0.6144
19664TIP3    H180407   2.342   5.310  14.436  1.9184  3.7499  0.0204
19664TIP3    H280408   2.322   5.343  14.289 -0.8998 -1.3595 -0.9914
19665TIP3   OH280409   3.115   2.424   0.524  0.0469 -0.7874 -0.2833
19665TIP3    H180410   3.172   2.376   0.584  3.0688  1.1514 -1.3501
19665TIP3    H280411   3.095   2.361   0.454 -0.3549 -1.9226  0.8107
19666TIP3   OH280412   3.210   4.434   5.756  0.4723 -0.1069  0.3633
19666TIP3    H180413   3.261   4.361   5.721 -1.4702 -0.6846 -1.5022
19666TIP3    H280414   3.130   4.394   5.789 -0.0234  1.0305  0.5939
19667TIP3   OH280415   5.276   4.338  13.570 -0.4053 -0.0827 -0.1209
19667TIP3    H180416   5.243   4.281  13.500 -0.2150 -0.3914  0.0397
19667TIP3    H280417   5.254   4.427  13.541  0.1582 -0.1707 -0.8366
19668TIP3   OH280418   6.399   4.029   4.860 -0.2951  0.1210  0.3679
19668TIP3    H180419   6.459   4.003   4.930  0.8341  2.7557  0.5013
19668TIP3    H280420   6.387   3.950   4.807  3.1398 -0.5895  0.4473
19669TIP3   OH280421   4.777   3.816  15.979  0.0611 -0.2539 -0.1802
19669TIP3    H180422   4.840   3.865  16.031 -0.2430 -0.1655  0.1054
19669TIP3    H280423   4.697   3.869  15.980  0.0437 -0.2602 -0.7189
19670TIP3   OH280424   1.336   5.361  15.785  0.2633 -0.2993 -0.6228
19670TIP3    H180425   1.323   5.268  15.767 -0.3297 -0.1466 -1.0135
19670TIP3    H280426   1.426   5.378  15.758 -0.0058 -0.4995 -1.6801
19671TIP3   OH280427   5.046   5.458   0.158  0.3306  0.0351 -0.3389
19671TIP3    H180428   5.054   5.387   0.094  0.9681 -0.8084  0.6473
19671TIP3    H280429   5.080   5.535   0.113  2.3846 -0.8923 -0.4837
19672TIP3   OH280430   6.563   3.147   4.738  0.1687 -0.1611 -0.6436
19672TIP3    H180431   6.613   3.163   4.658  0.4430  2.1584 -0.0894
19672TIP3    H280432   6.594   3.062   4.769  1.4483 -0.2288 -1.9904
19673TIP3   OH280433   1.283   6.577   3.699  0.6497  1.1577 -0.6258
19673TIP3    H180434   1.260   6.581   3.606  1.8578  1.6910 -0.9176
19673TIP3    H280435   1.270   6.667   3.731  0.8482  1.1171 -0.4279
19674TIP3   OH280436   3.190   1.231  17.481  0.2120  0.2119 -0.1961
19674TIP3    H180437   3.138   1.157  17.450 -1.0174  1.5714 -1.5233
19674TIP3    H280438   3.279   1.212  17.450 -0.1627 -0.5495 -0.8404
19675TIP3   OH280439   0.166   0.139  15.207  0.1739  0.3561 -0.1542
19675TIP3    H180440   0.138   0.138  15.299 -2.6735  0.0530 -0.9318
19675TIP3    H280441   0.233   0.070  15.202 -0.2308 -0.2141  1.5219
19676TIP3   OH280442   3.860   3.291  16.012  0.4467  0.7977 -0.6121
19676TIP3    H180443   3.835   3.262  16.100  0.0095  0.0885 -0.9584
19676TIP3    H280444   3.796   3.359  15.990 -1.9242 -1.5977 -1.8423
19677TIP3   OH280445   5.933   1.955   0.515  0.6483 -0.2877  0.1153
19677TIP3    H180446   5.919   1.872   0.560 -1.1694  0.1822  0.4982
19677TIP3    H280447   5.864   1.959   0.449  0.7310  0.8855  0.0696
19678TIP3   OH280448   0.789   1.727   4.169 -0.2081  0.3267 -0.3055
19678TIP3    H180449   0.840   1.798   4.131 -3.5433  2.0249 -2.0323
19678TIP3    H280450   0.827   1.714   4.256  1.7859  2.8274 -0.6931
19679TIP3   OH280451   6.660   6.100   3.266  0.1132  0.5897  0.4636
19679TIP3    H180452   6.571   6.123   3.239 -0.4399 -0.4499  1.2870
19679TIP3    H280453   6.713   6.177   3.246 -0.5550  0.5001 -1.9549
19680TIP3   OH280454   0.046   2.122   5.917 -0.5784  0.1526  0.1631
19680TIP3    H180455   0.030   2.141   5.825 -1.1737  0.2801  0.2897
19680TIP3    H280456   0.132   2.160   5.935  0.0989 -0.9664 -0.6509
19681TIP3   OH280457   1.271   0.583  14.289 -0.5331 -0.9523  0.2580
19681TIP3    H180458   1.202   0.612  14.348 -0.2738 -2.0486  1.1381
19681TIP3    H280459   1.335   0.541  14.346 -0.3534 -2.1870 -0.8000
19682TIP3   OH280460   1.659   4.247  13.097 -0.9439 -0.1449 -0.1652
19682TIP3    H180461   1.628   4.263  13.008 -1.6185 -0.7265 -0.0415
19682TIP3    H280462   1.752   4.266  13.094 -0.8412 -0.7640 -1.1425
19683TIP3   OH280463   4.893   1.931   0.365  0.1800  0.1254  0.7400
19683TIP3    H180464   4.817   1.873   0.359 -0.2038  0.5690  1.1753
19683TIP3    H280465   4.965   1.873   0.391 -0.4051 -0.0153  2.1532
19684TIP3   OH280466   0.028   6.553  13.226  0.3746 -0.3316 -0.0144
19684TIP3    H180467   0.004   6.549  13.319  2.0214 -1.2590  0.4195
19684TIP3    H280468  -0.038   6.500  13.182  0.8177 -1.7772  0.9631
19685TIP3   OH280469   2.700   1.542   6.038 -0.5463 -0.3454 -0.3573
19685TIP3    H180470   2.606   1.522   6.036 -0.8657  1.1427 -1.4189
19685TIP3    H280471   2.725   1.550   5.946  1.1830 -3.0183 -0.2300
19686TIP3   OH280472   3.744   5.885  14.324 -0.0730 -0.5662  0.6280
19686TIP3    H180473   3.811   5.853  14.263  0.0362  1.2835 -0.3016
19686TIP3    H280474   3.708   5.963  14.281 -0.6727  0.2526  2.5046
19687TIP3   OH280475   6.396   3.672  13.984 -0.0314 -0.4064  0.6377
19687TIP3    H180476   6.320   3.691  13.930 -1.1330 -0.2018  2.1950
19687TIP3    H280477   6.431   3.758  14.007  0.6429 -0.4983 -0.0087
19688TIP3   OH280478   1.799   5.018  13.584  0.2188 -0.0388  0.7582
19688TIP3    H180479   1.882   5.058  13.555 -0.6883  1.2749 -0.1573
19688TIP3    H280480   1.736   5.043  13.516 -1.3366  0.5423  2.3546
19689TIP3   OH280481   6.707   0.001  11.478  0.4767 -0.0812  0.2325
19689TIP3    H180482   6.720   0.054  11.557  0.8847  0.8171 -0.4247
19689TIP3    H280483   6.795  -0.031  11.456  0.2124 -1.2510  0.7407
19690TIP3   OH280484   2.247   1.137  12.695  0.3100  0.7536 -0.3336
19690TIP3    H180485   2.340   1.120  12.711  0.6800  1.8008 -1.2079
19690TIP3    H280486   2.238   1.231  12.709 -0.0916  1.0900 -2.5974
19691TIP3   OH280487   1.844   5.919   1.919  0.0282 -0.3938 -0.6782
19691TIP3    H180488   1.853   5.825   1.933  0.7637 -0.0383  1.5494
19691TIP3    H280489   1.792   5.950   1.993  1.3706  1.2240 -0.3451
19692TIP3   OH280490   3.780   1.908  16.057  0.1321  0.0106 -0.0780
19692TIP3    H180491   3.733   1.985  16.025 -0.1800  0.0955  0.5808
19692TIP3    H280492   3.848   1.944  16.115 -0.8074 -0.2583  1.2378
19693TIP3   OH280493   2.784   6.333  16.473  0.2895  0.1764 -0.5345
19693TIP3    H180494   2.774   6.259  16.413  0.0281 -1.1194  1.0251
19693TIP3    H280495   2.695   6.353  16.502  0.4076  0.7804 -0.5794
19694TIP3   OH280496   2.505   5.633  17.548  0.3267 -0.4878  0.0825
19694TIP3    H180497   2.567   5.647  17.476  1.1436 -1.9897  0.4390
19694TIP3    H280498   2.561   5.627  17.626 -0.2503 -1.8427  0.4157
19695TIP3   OH280499   0.397   5.658   3.430  0.7393  0.0704 -0.2262
19695TIP3    H180500   0.418   5.611   3.510 -0.5956 -0.3200 -0.0760
19695TIP3    H280501   0.452   5.618   3.363 -0.1260 -1.5256 -0.0273
19696TIP3   OH280502   4.608   4.659   4.216 -0.4131 -0.0160 -0.3088
19696TIP3    H180503   4.601   4.570   4.251 -0.0209  0.7997  2.0220
19696TIP3    H280504   4.686   4.695   4.257 -0.8600  1.5737 -0.7812
19697TIP3   OH280505   3.003   1.399   4.749  0.3813 -0.0512  0.6492
19697TIP3    H180506   3.039   1.402   4.660  0.6161  0.0596  0.7480
19697TIP3    H280507   2.930   1.461   4.747  0.6909  0.3133  0.6699
19698TIP3   OH280508   2.555   4.120  12.160  0.3346  0.1935  0.1288
19698TIP3    H180509   2.568   4.161  12.075 -0.7753 -0.8281 -0.5642
19698TIP3    H280510   2.521   4.190  12.216 -1.3943  0.3026 -0.9981
19699TIP3   OH280511   1.648   5.576  17.438  0.1877  0.2564 -0.1503
19699TIP3    H180512   1.585   5.647  17.451 -0.3558 -0.2174 -0.1956
19699TIP3    H280513   1.700   5.604  17.363  0.6934  1.1137  0.4984
19700TIP3   OH280514   1.395   2.344   1.112  0.4151 -0.1501 -0.3887
19700TIP3    H180515   1.490   2.349   1.116  0.5015 -0.9005 -1.1603
19700TIP3    H280516   1.376   2.252   1.096 -0.4512 -0.0438 -0.0270
19701TIP3   OH280517   3.374   3.957  14.250  0.2645  0.0167  0.4952
19701TIP3    H180518   3.393   4.024  14.315 -1.5578  0.2647  0.8217
19701TIP3    H280519   3.281   3.969  14.229 -0.0676 -2.2460  0.3997
19702TIP3   OH280520   3.181   6.696  14.725 -0.0531 -0.1520  0.3207
19702TIP3    H180521   3.227   6.691  14.641  1.5079  2.1832  0.9529
19702TIP3    H280522   3.135   6.780  14.723 -1.5311 -0.8931  1.1116
19703TIP3   OH280523   6.239   0.107   6.108 -0.0315  0.2295  0.4333
19703TIP3    H180524   6.291   0.147   6.178  1.5262 -1.3611  0.2688
19703TIP3    H280525   6.187   0.040   6.152 -0.2646  0.3118  0.2842
19704TIP3   OH280526   4.049   2.269  12.343 -0.5408 -0.0518 -0.4404
19704TIP3    H180527   4.110   2.322  12.293 -0.8222 -0.1429 -0.8841
19704TIP3    H280528   4.055   2.303  12.432 -0.0554  0.1261 -0.5414
19705TIP3   OH280529   1.733   1.751  14.166 -0.0603 -0.5806  0.2825
19705TIP3    H180530   1.713   1.743  14.073  0.9147 -3.5115  0.2147
19705TIP3    H280531   1.652   1.786  14.205  0.1035  2.5207 -1.7764
19706TIP3   OH280532   6.108   4.155  12.709 -0.1969  0.3717 -0.1684
19706TIP3    H180533   6.078   4.217  12.776 -0.6605  0.3145 -0.3180
19706TIP3    H280534   6.196   4.185  12.686 -0.4586  1.0432 -0.3193
19707TIP3   OH280535   4.644   0.503  16.897  0.2440 -0.1614 -0.4459
19707TIP3    H180536   4.610   0.548  16.820  0.3552  0.7294  0.0069
19707TIP3    H280537   4.696   0.430  16.862  1.3714  0.9928 -1.2641
19708TIP3   OH280538   6.431   3.595   5.899 -0.1280 -0.7627  0.5606
19708TIP3    H180539   6.379   3.517   5.881  1.7840 -2.4113  1.8568
19708TIP3    H280540   6.409   3.618   5.989 -2.0129  1.3626 -0.3331
19709TIP3   OH280541   5.364   3.310  17.601 -0.0630  0.2089  0.2859
19709TIP3    H180542   5.305   3.298  17.527 -1.6382  1.0315  1.3358
19709TIP3    H280543   5.306   3.332  17.674  1.4923  0.1545  1.5939
19710TIP3   OH280544   4.599   5.669  16.943  0.3476 -0.3558 -0.2140
19710TIP3    H180545   4.527   5.732  16.940  1.2236  0.6554 -0.6384
19710TIP3    H280546   4.566   5.592  16.896 -0.4687  0.0498 -0.3247
19711TIP3   OH280547   5.846   3.291   5.763 -0.2961  0.1948 -0.1184
19711TIP3    H180548   5.827   3.376   5.724 -0.3149 -0.3601 -1.3573
19711TIP3    H280549   5.916   3.309   5.826  0.6999  0.8957 -1.3881
19712TIP3   OH280550   1.035   4.396   5.723  0.4688 -0.3796  0.3356
19712TIP3    H180551   1.001   4.443   5.799  0.5975 -0.7283  0.6154
19712TIP3    H280552   1.032   4.459   5.652  2.2920  0.6266  1.0882
19713TIP3   OH280553   0.613   1.859  13.479 -0.4948  0.1143 -0.0984
19713TIP3    H180554   0.644   1.854  13.569 -0.1160  0.7392 -0.1899
19713TIP3    H280555   0.608   1.768  13.450  1.7572 -0.0001 -0.2555
19714TIP3   OH280556   2.958   2.400   5.706  0.5518  0.1146 -0.1087
19714TIP3    H180557   2.937   2.475   5.650 -0.1623  1.1339  1.4683
19714TIP3    H280558   3.046   2.418   5.738 -0.2646  1.2206  1.6518
19715TIP3   OH280559   4.710   0.393  11.135  0.2837  0.4883 -0.1643
19715TIP3    H180560   4.776   0.448  11.092 -0.4811  1.5501 -0.0320
19715TIP3    H280561   4.630   0.409  11.085 -0.0866 -0.0472  0.2503
19716TIP3   OH280562   6.342   1.365   5.560  0.8261 -0.2448  0.0464
19716TIP3    H180563   6.257   1.323   5.567  1.0655 -0.7854 -0.2809
19716TIP3    H280564   6.372   1.374   5.651  0.2744  0.2667  0.1859
19717TIP3   OH280565   6.047   1.297   3.123 -0.0332 -0.4042 -0.0196
19717TIP3    H180566   6.061   1.305   3.217 -1.6913 -0.7075  0.2728
19717TIP3    H280567   5.990   1.221   3.113  1.8097 -1.6967 -1.4660
19718TIP3   OH280568   2.235   3.674   0.906  0.2253  1.0201 -0.0353
19718TIP3    H180569   2.302   3.615   0.939 -1.3255 -0.0889  1.3270
19718TIP3    H280570   2.259   3.760   0.941  1.6466  0.9296 -0.7208
19719TIP3   OH280571   3.590   5.166  15.610 -0.1902 -0.8946 -0.0325
19719TIP3    H180572   3.582   5.176  15.515 -0.5245  1.1544  0.1462
19719TIP3    H280573   3.512   5.211  15.644  1.5964  1.3949  1.2602
19720TIP3   OH280574   5.627   3.928  12.750 -0.1505 -0.4091  0.3633
19720TIP3    H180575   5.702   3.946  12.692 -0.2470 -1.1825 -0.0196
19720TIP3    H280576   5.552   3.923  12.691 -0.7494  1.6271  0.8787
19721TIP3   OH280577   2.228   0.521   3.508  0.1662 -0.1105 -0.0706
19721TIP3    H180578   2.165   0.454   3.481 -0.3144  0.6065 -0.7973
19721TIP3    H280579   2.243   0.573   3.429  0.7766  0.4436  0.3963
19722TIP3   OH280580   6.497   5.052  12.909  0.6280  0.2914  0.2584
19722TIP3    H180581   6.535   5.138  12.892  1.6059 -0.3321 -0.8423
19722TIP3    H280582   6.524   5.031  12.998  0.3994  1.1153  0.5239
19723TIP3   OH280583   1.003   0.273   2.690 -0.4063 -0.2296  1.2647
19723TIP3    H180584   0.975   0.261   2.781 -1.2913 -1.0220  0.9074
19723TIP3    H280585   1.004   0.368   2.677  2.0270  0.0336  2.7674
19724TIP3   OH280586   6.645   6.121   2.710 -0.0981  0.6327 -0.4456
19724TIP3    H180587   6.694   6.154   2.634 -0.2160  2.8272  0.3380
19724TIP3    H280588   6.555   6.151   2.695 -0.0930  1.2287  0.5804
19725TIP3   OH280589   6.290   3.153  11.587 -0.6688  0.4244 -0.2739
19725TIP3    H180590   6.255   3.196  11.508  0.5471  0.2710 -0.9217
19725TIP3    H280591   6.217   3.101  11.620 -0.6071 -1.2923 -2.5843
19726TIP3   OH280592   2.812   4.036  12.805  0.1160 -0.8877  0.0506
19726TIP3    H180593   2.874   3.985  12.753 -0.1697  0.3455 -1.5919
19726TIP3    H280594   2.726   4.014  12.769 -0.0976 -0.0726  0.0368
19727TIP3   OH280595   0.860   0.072  13.770  0.7948  0.0970  0.4259
19727TIP3    H180596   0.811  -0.005  13.742  0.0195  1.3940 -2.1276
19727TIP3    H280597   0.793   0.134  13.799  1.2605  0.3920  0.8827
19728TIP3   OH280598   1.331   3.207   3.517  0.2242 -0.3781  0.7584
19728TIP3    H180599   1.313   3.162   3.600  0.8347 -0.5618  0.7965
19728TIP3    H280600   1.377   3.287   3.543  0.4072 -0.4307  0.5946
19729TIP3   OH280601   0.094   4.457   5.322  0.2206 -0.3491 -0.5399
19729TIP3    H180602   0.062   4.452   5.412  0.2196 -2.3400 -0.6208
19729TIP3    H280603   0.131   4.546   5.316 -0.9867  0.3151  0.9794
19730TIP3   OH280604   0.118   0.783  17.244 -0.3451 -0.0617 -0.4198
19730TIP3    H180605   0.078   0.705  17.208 -1.4289  0.5712 -0.6342
19730TIP3    H280606   0.044   0.839  17.269  0.3876  0.3662  0.9086
19731TIP3   OH280607   4.702   1.823   4.724 -0.3087 -0.2132 -0.4610
19731TIP3    H180608   4.701   1.727   4.727  0.1769 -0.1990  0.3214
19731TIP3    H280609   4.610   1.847   4.722 -0.4601 -0.7318 -2.7105
19732TIP3   OH280610   0.909   6.001  15.618  0.6009 -0.1537 -0.5446
19732TIP3    H180611   0.819   5.970  15.615  0.5287 -0.1129  0.7426
19732TIP3    H280612   0.961   5.922  15.637  1.0143 -0.4378 -2.6036
19733TIP3   OH280613   1.534   3.323   5.192 -0.3524 -0.3268 -0.1694
19733TIP3    H180614   1.471   3.394   5.199 -0.1172  0.0812 -1.7802
19733TIP3    H280615   1.597   3.340   5.262 -0.8517  0.4795  0.1012
19734TIP3   OH280616   4.821   5.710  13.343 -0.2360 -0.9685  0.0156
19734TIP3    H180617   4.726   5.713  13.342 -0.2305  0.3259  0.5420
19734TIP3    H280618   4.847   5.719  13.251 -0.6331  3.1137  0.1014
19735TIP3   OH280619   4.830   1.762   3.163  0.1227  0.3863  0.0667
19735TIP3    H180620   4.874   1.844   3.184  3.1766 -0.7893 -1.3095
19735TIP3    H280621   4.846   1.706   3.239  2.8813 -0.6914 -1.2124
19736TIP3   OH280622   1.015   0.770  12.055  0.0731 -0.3555  0.0053
19736TIP3    H180623   1.016   0.803  11.965  0.1436 -2.5346 -0.8372
19736TIP3    H280624   1.065   0.835  12.104  2.5316 -0.5361 -2.0615
19737TIP3   OH280625   5.282   3.319   3.597  0.4676  0.1326 -0.4710
19737TIP3    H180626   5.373   3.298   3.617  0.5860 -0.7005 -1.7737
19737TIP3    H280627   5.281   3.414   3.589  1.5529  0.0649 -1.8341
19738TIP3   OH280628   0.428   4.353   5.869 -0.7221 -0.0533 -0.0217
19738TIP3    H180629   0.415   4.366   5.963 -0.8455  0.9941 -0.1788
19738TIP3    H280630   0.519   4.322   5.862 -0.5916  0.2231  0.4081
19739TIP3   OH280631   5.078   5.256  17.617  0.5103 -0.0696  0.6646
19739TIP3    H180632   5.171   5.247  17.594  0.5865  1.1888  0.3760
19739TIP3    H280633   5.054   5.172  17.655  1.2801 -1.0879 -0.9623
19740TIP3   OH280634   1.909   3.234   1.365 -0.2468 -0.0080 -0.5796
19740TIP3    H180635   1.881   3.273   1.448  1.4915  1.1392 -0.4756
19740TIP3    H280636   1.948   3.150   1.389 -1.3155 -0.4864 -0.4608
19741TIP3   OH280637   4.146   1.809  14.232 -0.1402 -0.3314  0.4077
19741TIP3    H180638   4.218   1.748  14.247 -1.0096 -1.3573  0.5318
19741TIP3    H280639   4.084   1.760  14.177 -0.4272  0.7742 -0.2954
19742TIP3   OH280640   4.104   5.249   2.200 -0.0750  0.6163  0.5368
19742TIP3    H180641   4.112   5.165   2.155 -0.1905  0.1300  1.3993
19742TIP3    H280642   4.010   5.264   2.207 -0.1118 -0.2211  2.2281
19743TIP3   OH280643   1.677   1.327  11.411  0.1847 -0.0910 -0.0126
19743TIP3    H180644   1.635   1.318  11.325 -0.4450 -2.2316  0.4394
19743TIP3    H280645   1.753   1.269  11.406  1.4490  1.5116  0.1566
19744TIP3   OH280646   4.244   4.450   1.406 -0.8777  0.3591  0.0334
19744TIP3    H180647   4.253   4.358   1.384 -0.2086  0.5791 -0.6579
19744TIP3    H280648   4.161   4.476   1.367 -1.8759 -0.3262  1.6177
19745TIP3   OH280649   6.032   6.351   2.039 -0.1477  0.3837  0.3255
19745TIP3    H180650   5.949   6.304   2.027  1.0560 -1.4765 -1.0599
19745TIP3    H280651   6.029   6.421   1.974 -0.7952  0.6293  0.5991
19746TIP3   OH280652   4.727   0.597  14.029  0.2301  0.1193 -0.1832
19746TIP3    H180653   4.795   0.547  14.074 -1.1221 -0.3328  1.4909
19746TIP3    H280654   4.767   0.681  14.008  2.0287 -1.0014 -1.4933
19747TIP3   OH280655   2.167   1.726  13.711  0.2453  0.0110  0.0699
19747TIP3    H180656   2.225   1.802  13.719  0.3066 -0.1208  1.0961
19747TIP3    H280657   2.180   1.678  13.794 -1.0066 -0.2536  0.1223
19748TIP3   OH280658   0.817   0.783  13.619  0.0760 -0.1644  0.5119
19748TIP3    H180659   0.863   0.788  13.703 -1.4388 -0.5658  1.4088
19748TIP3    H280660   0.885   0.795  13.553  1.2362  0.6103  1.8067
19749TIP3   OH280661   6.004   6.378  14.512  1.2678 -0.1557  0.5224
19749TIP3    H180662   6.039   6.467  14.519  3.0655 -0.8732  0.9183
19749TIP3    H280663   6.047   6.341  14.435  1.2117 -0.9796  0.8807
19750TIP3   OH280664   0.707   5.354  17.501 -0.3075 -0.0515 -0.2227
19750TIP3    H180665   0.715   5.347  17.406  0.9015  0.9557 -0.2097
19750TIP3    H280666   0.750   5.436  17.523  0.4852 -0.8379  1.3158
19751TIP3   OH280667   2.985   3.898   1.477 -0.1896 -0.2853 -0.0774
19751TIP3    H180668   3.078   3.878   1.470  0.3741  1.8767  0.3897
19751TIP3    H280669   2.961   3.869   1.565 -0.3392 -2.0597 -0.6606
19752TIP3   OH280670   5.388   4.770  16.290  0.2277  0.3664  0.1035
19752TIP3    H180671   5.444   4.778  16.212  1.0740  0.5465  0.7107
19752TIP3    H280672   5.410   4.846  16.343  0.0517 -0.0267  0.7547
19753TIP3   OH280673   1.225   0.201   0.888 -0.3920  0.3991 -0.1113
19753TIP3    H180674   1.258   0.130   0.832 -0.9235 -2.2204  2.6196
19753TIP3    H280675   1.130   0.191   0.887 -0.5026  1.3374  0.0279
19754TIP3   OH280676   2.945   0.420  16.583  0.3364  0.1425  0.0538
19754TIP3    H180677   2.906   0.342  16.543 -0.9389 -0.1592  1.7753
19754TIP3    H280678   2.889   0.492  16.555 -0.4400 -0.0426  1.0549
19755TIP3   OH280679   2.959   3.262  16.096 -0.1036 -0.4463  0.1747
19755TIP3    H180680   2.897   3.268  16.168 -0.0681  1.2002  0.0980
19755TIP3    H280681   3.045   3.267  16.137 -0.0169 -1.8146  0.2008
19756TIP3   OH280682   0.615   0.639   0.382  0.1862  0.0395  0.5743
19756TIP3    H180683   0.650   0.652   0.470  0.7483 -0.7813  0.4857
19756TIP3    H280684   0.543   0.702   0.375  0.5619  0.5726  1.3770
19757TIP3   OH280685   4.257   2.824   3.101  0.1653 -0.1304  0.4945
19757TIP3    H180686   4.170   2.834   3.141 -0.2926  0.4358 -0.5859
19757TIP3    H280687   4.265   2.730   3.085 -1.6841  0.0574 -2.3470
19758TIP3   OH280688   3.968   3.889   1.320 -0.3930 -0.3012  0.1258
19758TIP3    H180689   3.992   3.811   1.370  0.0700 -0.5603 -0.4812
19758TIP3    H280690   3.873   3.881   1.307 -0.3323 -0.8217 -0.0194
19759TIP3   OH280691   3.357   1.071  12.607 -0.3119  0.5106  0.7393
19759TIP3    H180692   3.389   1.161  12.613 -0.7693  0.6354  1.5571
19759TIP3    H280693   3.273   1.079  12.561  0.7933  0.1815 -1.4244
19760TIP3   OH280694   6.555   5.370   1.962 -0.4176 -0.8764 -0.7402
19760TIP3    H180695   6.567   5.416   2.045 -0.4207 -1.2185 -0.5436
19760TIP3    H280696   6.611   5.416   1.900 -0.5645 -0.4984 -0.5906
19761TIP3   OH280697   6.460   4.654   2.426  0.3107  0.1595  0.4761
19761TIP3    H180698   6.538   4.699   2.456  0.9124  0.8310 -1.9050
19761TIP3    H280699   6.487   4.563   2.414  0.0787 -0.1021  1.8146
19762TIP3   OH280700   6.711   3.361   2.005  0.0159 -0.2522  0.3512
19762TIP3    H180701   6.792   3.321   1.970  2.0975  2.3967  1.8189
19762TIP3    H280702   6.648   3.350   1.934  1.9067 -1.5962 -1.2670
19763TIP3   OH280703   2.411   1.196   5.407 -0.1808  0.3166 -0.3845
19763TIP3    H180704   2.478   1.171   5.343 -2.8513 -0.9522 -2.9602
19763TIP3    H280705   2.396   1.289   5.392  2.4150  1.1839  1.7812
19764TIP3   OH280706   5.097   0.220   0.164 -0.4692 -0.0925 -0.0625
19764TIP3    H180707   5.116   0.230   0.257 -0.3728 -0.4079 -0.0480
19764TIP3    H280708   5.151   0.146   0.136  0.6328  0.9061 -0.7002
19765TIP3   OH280709   2.709   4.853  12.198 -0.6468  0.1632  0.1585
19765TIP3    H180710   2.636   4.880  12.142 -0.7613  0.2878  0.3714
19765TIP3    H280711   2.786   4.895  12.159 -0.9734  1.7349  1.1463
19766TIP3   OH280712   3.294   4.944   0.148 -0.1066  0.0262  0.2870
19766TIP3    H180713   3.317   4.854   0.125  3.4243  0.4905  1.3820
19766TIP3    H280714   3.329   4.997   0.077 -1.0214  0.6284  0.2731
19767TIP3   OH280715   2.156   6.264   2.375  0.5325  0.0960  0.1394
19767TIP3    H180716   2.199   6.325   2.435  3.5751 -0.4196 -1.3185
19767TIP3    H280717   2.106   6.206   2.432  1.6686  0.8421  1.9978
19768TIP3   OH280718   5.621   1.423  14.293 -0.0799  0.1816  0.2898
19768TIP3    H180719   5.533   1.400  14.322  0.1859 -1.1739  0.0781
19768TIP3    H280720   5.664   1.339  14.277  0.7559  0.8319 -1.0946
19769TIP3   OH280721   1.724   3.844   2.984  0.2429  0.0557 -0.0577
19769TIP3    H180722   1.800   3.902   2.994  0.8208 -0.4763 -1.1119
19769TIP3    H280723   1.713   3.836   2.889  0.9090 -2.4544 -0.0016
19770TIP3   OH280724   1.410   4.609   3.783  0.6358 -0.0709  0.3627
19770TIP3    H180725   1.444   4.563   3.860  0.4198  2.4132  2.0630
19770TIP3    H280726   1.318   4.583   3.778  0.2832  0.7900  1.8445
19771TIP3   OH280727   0.092   4.313   5.909 -0.1034 -0.3356  0.3327
19771TIP3    H180728   0.154   4.244   5.933  0.5048  0.6349  1.6687
19771TIP3    H280729   0.054   4.341   5.993 -2.0646 -0.6180 -0.4035
19772TIP3   OH280730   5.038   5.937   0.649  0.3019  0.2737 -0.9862
19772TIP3    H180731   5.055   5.966   0.560 -1.6610 -0.1162 -1.5440
19772TIP3    H280732   4.968   5.872   0.640 -0.6786  0.9676  0.9164
19773TIP3   OH280733   6.570   3.191  11.715 -0.4495  0.6483  0.0807
19773TIP3    H180734   6.521   3.109  11.720 -0.9824  0.9738  0.2470
19773TIP3    H280735   6.622   3.183  11.635  2.8092 -1.6583  2.1494
19774TIP3   OH280736   0.329   3.173  16.579 -0.5879  0.4445 -0.3495
19774TIP3    H180737   0.313   3.133  16.665  0.7665 -0.8426 -0.6642
19774TIP3    H280738   0.335   3.099  16.519 -0.4017  1.2750 -1.3812
19775TIP3   OH280739   5.620   5.325  17.515  0.0928 -0.2919  0.8481
19775TIP3    H180740   5.614   5.403  17.460  3.2096 -1.4084 -1.4003
19775TIP3    H280741   5.697   5.340  17.569  0.2078 -1.4172  1.0238
19776TIP3   OH280742   2.345   0.934   1.010 -0.0326  0.1189 -0.0579
19776TIP3    H180743   2.399   0.934   1.089 -1.8044  0.5363  1.2403
19776TIP3    H280744   2.404   0.909   0.940  1.9194  0.9945  1.1876
19777TIP3   OH280745   2.909   4.078   0.426  0.0455  0.4663  0.8368
19777TIP3    H180746   2.854   4.114   0.356 -1.7768 -1.1275  1.3585
19777TIP3    H280747   2.853   4.081   0.504 -0.6046 -3.9244  0.8166
19778TIP3   OH280748   6.210   6.056  13.394 -0.1531 -0.2708 -0.0119
19778TIP3    H180749   6.305   6.071  13.388 -0.2007  0.3918  0.7457
19778TIP3    H280750   6.171   6.141  13.376 -0.5437 -0.1599  1.2620
19779TIP3   OH280751   2.178   3.656  13.439  0.0627 -0.3424  0.4361
19779TIP3    H180752   2.138   3.647  13.526 -2.6608 -0.3015 -0.6962
19779TIP3    H280753   2.200   3.749  13.433 -1.4116  0.0281  0.4547
19780TIP3   OH280754   0.206   5.662   3.057 -0.1864 -0.0950  0.2223
19780TIP3    H180755   0.249   5.744   3.031  0.6110  0.1173  2.0791
19780TIP3    H280756   0.266   5.593   3.030 -0.4073 -0.0296 -0.4630
19781TIP3   OH280757   4.092   3.029  17.548 -0.0628 -0.5139  0.6040
19781TIP3    H180758   4.029   3.027  17.477  2.7201  0.9312 -2.1597
19781TIP3    H280759   4.084   3.117  17.586  0.2231 -0.3564  0.3016
19782TIP3   OH280760   5.492   3.259   6.542  0.8522  0.6355  0.1833
19782TIP3    H180761   5.575   3.283   6.499  1.1881 -0.4069  0.2236
19782TIP3    H280762   5.461   3.183   6.493 -1.0433  2.0943 -0.9970
19783TIP3   OH280763   3.041   3.511  10.941 -0.4891 -0.4379 -0.1340
19783TIP3    H180764   2.982   3.496  11.014 -0.9816  0.3482 -0.3668
19783TIP3    H280765   3.129   3.509  10.981 -0.6229 -2.0349  0.1359
19784TIP3   OH280766   1.119   3.074  14.768 -0.1008 -0.1520  0.1316
19784TIP3    H180767   1.132   3.145  14.832  0.4259 -1.6599  1.7819
19784TIP3    H280768   1.207   3.056  14.735  0.1777 -1.5931  1.5269
19785TIP3   OH280769   2.512   1.796  12.307  0.2659  0.5879  0.5649
19785TIP3    H180770   2.465   1.783  12.389 -1.3629 -0.7544 -0.5203
19785TIP3    H280771   2.499   1.714  12.259 -0.0639  1.8648 -1.6377
19786TIP3   OH280772   1.327   2.099  12.090 -0.6525 -0.0639  0.1134
19786TIP3    H180773   1.254   2.156  12.067  0.1595  0.2597 -1.8937
19786TIP3    H280774   1.286   2.017  12.119 -1.8077  1.0255  1.6821
19787TIP3   OH280775   4.469   0.469   5.674  0.5797  0.1019 -0.9062
19787TIP3    H180776   4.556   0.475   5.635  0.9716  2.3725  0.1353
19787TIP3    H280777   4.482   0.424   5.757 -0.0054 -3.3138 -2.4987
19788TIP3   OH280778   1.554   6.592   6.078  0.2040  0.6864 -0.4824
19788TIP3    H180779   1.502   6.597   5.997 -0.3993  0.6439 -0.1045
19788TIP3    H280780   1.497   6.547   6.140  0.2065  1.7435  0.3184
19789TIP3   OH280781   1.378   1.122  12.854 -0.4011 -0.1705  0.0541
19789TIP3    H180782   1.355   1.030  12.861 -1.2562  0.1540  2.1617
19789TIP3    H280783   1.459   1.131  12.904  0.3201  0.0497 -1.1059
19790TIP3   OH280784   3.241   0.652   4.648  0.0687  0.1977  0.0306
19790TIP3    H180785   3.215   0.651   4.740  2.9785  1.6239  1.0052
19790TIP3    H280786   3.212   0.567   4.614  0.3002 -1.0816  2.7267
19791TIP3   OH280787   1.861   4.431  12.037 -0.0028  0.0728 -0.0793
19791TIP3    H180788   1.802   4.404  12.107  1.0151 -0.6196  0.5504
19791TIP3    H280789   1.853   4.363  11.971 -0.0722  0.0896 -0.0881
19792TIP3   OH280790   4.352   2.338   5.873  0.6921  0.2979 -0.4582
19792TIP3    H180791   4.316   2.287   5.946  1.7426 -0.3427 -0.3688
19792TIP3    H280792   4.299   2.418   5.871  1.4836  0.9601  1.8665
19793TIP3   OH280793   3.971   3.039  13.836  0.8673 -0.0331  0.6252
19793TIP3    H180794   4.038   3.102  13.809  0.2375 -0.1703 -1.3875
19793TIP3    H280795   3.955   3.060  13.928  1.7760  1.7363  0.4246
19794TIP3   OH280796   4.105   3.262  13.693 -0.3572 -0.5081  0.2278
19794TIP3    H180797   4.102   3.340  13.638 -1.0694  0.6153  1.7944
19794TIP3    H280798   4.192   3.225  13.677  0.3232  1.0827  0.0460
19795TIP3   OH280799   1.234   1.865   1.861  0.1875 -0.0821  0.3989
19795TIP3    H180800   1.244   1.913   1.778 -0.5630  0.0584  0.3820
19795TIP3    H280801   1.222   1.774   1.834  0.5826 -0.1326  0.3859
19796TIP3   OH280802   0.235   0.554   6.059 -0.0137  0.3767 -0.3571
19796TIP3    H180803   0.180   0.500   6.116 -0.5411 -0.4688 -1.6191
19796TIP3    H280804   0.234   0.640   6.099 -0.5309 -0.1495  0.8015
19797TIP3   OH280805   5.801   3.111   4.064  0.2556  1.1072 -0.4052
19797TIP3    H180806   5.769   3.087   3.976  0.4467  1.2274 -0.5069
19797TIP3    H280807   5.829   3.027   4.102 -0.6302  0.9248 -0.1288
19798TIP3   OH280808   6.540   1.427   0.005  0.8709  0.4443  0.1332
19798TIP3    H180809   6.564   1.518  -0.010 -1.1682  1.1400  0.6805
19798TIP3    H280810   6.448   1.431   0.033  1.4680 -1.5278  2.7956
19799TIP3   OH280811   1.643   2.416  12.969  0.7012  0.4914  0.0084
19799TIP3    H180812   1.586   2.352  13.011 -0.0082  1.1182  0.0327
19799TIP3    H280813   1.699   2.365  12.912  0.0048 -0.1303 -0.1365
19800TIP3   OH280814   2.194   3.553   3.049 -0.4250 -0.1952 -0.4984
19800TIP3    H180815   2.199   3.458   3.035 -1.9135 -0.5593  1.0040
19800TIP3    H280816   2.122   3.581   2.992 -1.0055 -0.2625  0.1830
19801TIP3   OH280817   2.189   1.256   3.882 -1.1482  0.0608  0.1256
19801TIP3    H180818   2.124   1.274   3.950 -1.1194 -2.2055  0.8376
19801TIP3    H280819   2.268   1.230   3.930 -0.5274  0.2735 -0.7555
19802TIP3   OH280820   5.689   0.174   4.817  0.5031  0.6883 -0.2118
19802TIP3    H180821   5.649   0.122   4.748  1.6325 -1.1263  0.4395
19802TIP3    H280822   5.690   0.263   4.781  2.0669 -0.3317 -3.0347
19803TIP3   OH280823   0.607   2.052   1.343  0.5361 -0.8707  0.2021
19803TIP3    H180824   0.696   2.016   1.345  1.2859  0.8372  1.7631
19803TIP3    H280825   0.584   2.055   1.251  1.3408 -3.0585 -0.1218
19804TIP3   OH280826   5.314   4.018  16.236  0.0020  0.2335 -0.7273
19804TIP3    H180827   5.288   3.960  16.164  0.3612  0.2243 -0.8513
19804TIP3    H280828   5.329   4.103  16.194 -1.0118  0.5522 -0.4716
19805TIP3   OH280829   2.317   0.902  14.080  0.0077  0.1313 -0.0786
19805TIP3    H180830   2.393   0.853  14.110 -1.6195 -2.1653  0.5507
19805TIP3    H280831   2.292   0.860  13.997  0.2439  1.8040 -1.0465
19806TIP3   OH280832   4.993   4.255  11.321 -0.5011  0.0279  0.2192
19806TIP3    H180833   5.022   4.192  11.255 -0.3743 -0.1392  0.4352
19806TIP3    H280834   4.903   4.275  11.296  0.0346  1.1746 -0.9398
19807TIP3   OH280835   5.784   3.437  13.532  0.6589  0.3386 -0.3952
19807TIP3    H180836   5.839   3.456  13.456  0.5575 -1.0081 -0.8398
19807TIP3    H280837   5.694   3.440  13.498  0.6255 -0.5436 -0.4233
19808TIP3   OH280838   0.629   4.159   5.587 -0.3824  0.2652 -0.0425
19808TIP3    H180839   0.685   4.085   5.565 -0.9250 -0.2749  0.3612
19808TIP3    H280840   0.684   4.217   5.638 -0.4227 -0.6681  1.0879
19809TIP3   OH280841   5.697   3.348   1.947  1.1258 -0.5392  0.0137
19809TIP3    H180842   5.757   3.420   1.967 -0.6539  0.3226  3.0709
19809TIP3    H280843   5.717   3.281   2.013  0.1411 -1.1065 -0.2396
19810TIP3   OH280844   5.085   3.287   3.278  0.0549  0.0117 -0.0904
19810TIP3    H180845   5.008   3.261   3.329 -1.1137 -0.5984 -2.0428
19810TIP3    H280846   5.077   3.383   3.271  0.6117  0.1899  1.3855
19811TIP3   OH280847   0.100   5.437  15.239 -0.2284 -0.4076  0.4132
19811TIP3    H180848   0.035   5.503  15.263  0.6900  1.0175 -0.8457
19811TIP3    H280849   0.164   5.441  15.310  0.2269  0.6465 -0.0379
19812TIP3   OH280850   4.499   2.223  15.255  0.2672 -0.0777  0.6587
19812TIP3    H180851   4.555   2.222  15.333  2.0463  2.2453 -0.4467
19812TIP3    H280852   4.410   2.229  15.289  1.0800  4.0458  2.7038
19813TIP3   OH280853   0.978   6.328  15.769  0.3430  0.0387 -0.5301
19813TIP3    H180854   0.983   6.356  15.678 -1.7124  0.4536 -0.5728
19813TIP3    H280855   0.995   6.408  15.819 -1.5081  0.5379 -0.6210
19814TIP3   OH280856   5.945   2.261   2.601  0.4716  0.1750  0.0737
19814TIP3    H180857   5.876   2.221   2.548  1.0404 -0.5830 -0.1128
19814TIP3    H280858   5.900   2.327   2.653 -0.3177  0.0099 -0.3851
19815TIP3   OH280859   1.686   3.042   2.861 -0.4037  0.3723 -0.5137
19815TIP3    H180860   1.776   3.076   2.864  0.0416 -0.7878  1.1652
19815TIP3    H280861   1.644   3.091   2.790  1.0933  2.0551 -0.3240
19816TIP3   OH280862   3.523   1.601  11.857  0.2035  0.2617  0.3002
19816TIP3    H180863   3.430   1.614  11.874  0.0347  0.7500 -0.8772
19816TIP3    H280864   3.567   1.637  11.933 -0.5553  0.6194  0.5790
19817TIP3   OH280865   2.209   2.370  12.336  0.2091  0.0728  0.1306
19817TIP3    H180866   2.156   2.399  12.410 -0.7978 -1.0379 -0.1249
19817TIP3    H280867   2.264   2.445  12.314 -0.2600  0.7746  1.3053
19818TIP3   OH280868   2.087   4.342  13.935  0.3297 -0.6084  0.1727
19818TIP3    H180869   2.166   4.300  13.968  0.1994  0.5717  2.1054
19818TIP3    H280870   2.016   4.307  13.989 -0.1790 -0.0625 -0.1224
19819TIP3   OH280871   5.804   5.247  12.930  0.4606  0.2532 -0.5237
19819TIP3    H180872   5.891   5.225  12.963  0.3235 -0.8345 -0.8450
19819TIP3    H280873   5.818   5.263  12.836  0.1401 -1.1232 -0.8271
19820TIP3   OH280874   2.089   4.910   1.038  0.3658  0.1091  0.8076
19820TIP3    H180875   2.109   4.828   0.993  1.1838  1.6339 -1.7969
19820TIP3    H280876   2.001   4.897   1.073 -0.3154 -1.2405 -1.2091
19821TIP3   OH280877   0.306   4.504   2.574 -0.2304 -0.2825 -0.2986
19821TIP3    H180878   0.257   4.486   2.654  0.2435 -0.5244 -0.0618
19821TIP3    H280879   0.248   4.475   2.504  0.1823 -2.0109  0.0422
19822TIP3   OH280880   3.238   0.124   0.071 -0.1316  0.2487 -0.1520
19822TIP3    H180881   3.255   0.198   0.012 -0.6765  1.5365  1.2367
19822TIP3    H280882   3.301   0.057   0.044  1.6640  1.8975 -0.3098
19823TIP3   OH280883   5.792   3.086   0.765 -0.2138 -0.4578  0.0989
19823TIP3    H180884   5.705   3.065   0.797 -0.1328 -0.7943  0.0964
19823TIP3    H280885   5.785   3.177   0.734 -0.5597 -0.4837  0.1023
19824TIP3   OH280886   0.393   0.117  14.147 -0.6765 -0.1297  0.3885
19824TIP3    H180887   0.300   0.118  14.168 -0.3972 -2.0383  2.0020
19824TIP3    H280888   0.434   0.169  14.216 -0.4921  0.3784 -0.0955
19825TIP3   OH280889   2.560   5.140   4.119  0.3054  0.7611 -0.2386
19825TIP3    H180890   2.637   5.119   4.067 -0.3738  0.6903 -1.2307
19825TIP3    H280891   2.522   5.055   4.142 -0.7729  0.8051 -1.7377
19826TIP3   OH280892   5.904   4.558   4.636 -0.2363  0.1572 -0.6408
19826TIP3    H180893   5.827   4.544   4.691 -1.3986 -1.5600 -2.5703
19826TIP3    H280894   5.869   4.559   4.547  1.8112  0.9802 -1.4855
19827TIP3   OH280895   5.357   2.061   0.081 -0.4099  0.2804 -0.1171
19827TIP3    H180896   5.343   1.975   0.120  0.7435  1.2785  2.7937
19827TIP3    H280897   5.276   2.108   0.098 -0.7040  0.0792 -0.9085
19828TIP3   OH280898   6.349   2.671   3.914  0.0034 -0.1195 -0.1042
19828TIP3    H180899   6.383   2.599   3.967  0.4149 -0.9572 -1.4423
19828TIP3    H280900   6.427   2.711   3.875 -0.3065  0.2126 -0.3878
19829TIP3   OH280901   6.393   0.847   0.049  0.0409 -0.6991  0.0814
19829TIP3    H180902   6.401   0.939   0.021 -0.7531 -0.4874  0.5285
19829TIP3    H280903   6.349   0.852   0.134  1.0012 -1.4324  0.6413
19830TIP3   OH280904   5.956   5.784  14.370 -0.2977  0.2824  0.3070
19830TIP3    H180905   5.990   5.824  14.289  0.0718  0.0671  0.3512
19830TIP3    H280906   5.983   5.845  14.439  0.0043  0.1108  0.3421
19831TIP3   OH280907   2.313   2.927  15.630  0.5961 -0.0047  0.4813
19831TIP3    H180908   2.294   2.941  15.723 -0.1815  1.3167  0.1576
19831TIP3    H280909   2.408   2.938  15.623  0.5311  0.9812  0.9633
19832TIP3   OH280910   1.850   6.374   1.563 -0.5871  0.7487  0.6624
19832TIP3    H180911   1.923   6.425   1.599  0.5789 -1.8806  2.3060
19832TIP3    H280912   1.853   6.393   1.469  2.0757  0.9681  0.7030
19833TIP3   OH280913   2.683   1.266  12.267 -0.0887  0.4983 -0.0024
19833TIP3    H180914   2.737   1.311  12.332  0.6617 -1.4176  0.7542
19833TIP3    H280915   2.739   1.261  12.189  0.6459 -0.9099  0.5770
19834TIP3   OH280916   4.922   1.665  14.683  0.1609 -0.0139  0.9969
19834TIP3    H180917   4.847   1.702  14.637  0.8183  1.1166  0.8120
19834TIP3    H280918   4.962   1.605  14.620 -0.3080 -0.2770  0.9400
19835TIP3   OH280919   5.446   3.275   2.944 -0.1785  0.1321 -0.3250
19835TIP3    H180920   5.498   3.222   3.005  1.7142  1.3777 -0.7860
19835TIP3    H280921   5.356   3.267   2.977  0.5763 -0.3832  1.7878
19836TIP3   OH280922   5.826   5.324  16.158  0.3830 -0.8045 -0.5524
19836TIP3    H180923   5.898   5.318  16.096  0.0210 -0.9842 -0.9666
19836TIP3    H280924   5.857   5.278  16.236  1.8798  1.7273  0.4501
19837TIP3   OH280925   4.448   5.189   3.840  0.3832 -0.3673  0.3344
19837TIP3    H180926   4.418   5.117   3.895  0.7205 -0.3910  0.4872
19837TIP3    H280927   4.539   5.204   3.866  0.0654  0.6828  0.9031
19838TIP3   OH280928   4.138   1.802  16.120 -0.0947  0.1468  0.3921
19838TIP3    H180929   4.122   1.894  16.099 -0.0904  0.0549 -0.0213
19838TIP3    H280930   4.054   1.771  16.154 -0.3134  0.1184 -0.1564
19839TIP3   OH280931   3.892   5.441   5.408 -0.5089  0.4097  0.3843
19839TIP3    H180932   3.948   5.395   5.346 -0.2371 -0.9288  1.5756
19839TIP3    H280933   3.928   5.420   5.494 -1.0452  1.9859  1.0449
19840TIP3   OH280934   1.702   1.237  16.141  0.0632 -0.3091 -0.1384
19840TIP3    H180935   1.753   1.171  16.093  0.6070  0.7769 -1.0965
19840TIP3    H280936   1.654   1.284  16.073 -0.0492  0.5015  0.4890
19841TIP3   OH280937   6.495   0.324  14.963  0.0366  0.0874 -0.4712
19841TIP3    H180938   6.554   0.397  14.943  0.4985 -0.2001 -0.1886
19841TIP3    H280939   6.419   0.338  14.906 -0.1559  1.1220  0.0086
19842TIP3   OH280940   0.941   0.474  15.139 -0.8445  0.3990  0.5811
19842TIP3    H180941   0.846   0.482  15.136 -1.0794 -1.0648  2.1385
19842TIP3    H280942   0.971   0.558  15.174 -1.7288  0.2768  1.6936
19843TIP3   OH280943   1.035   4.315  15.810 -0.0427 -0.5548  0.0802
19843TIP3    H180944   0.990   4.399  15.817 -1.3739 -1.3004  0.7478
19843TIP3    H280945   1.003   4.277  15.728  0.1824 -0.6331  0.0263
19844TIP3   OH280946   0.118   0.145  16.154 -0.4178 -0.6958 -0.3030
19844TIP3    H180947   0.174   0.168  16.080 -1.9311  1.3548 -0.9116
19844TIP3    H280948   0.164   0.180  16.231 -0.2969 -0.0380 -0.6650
19845TIP3   OH280949   3.435   0.395   1.007 -0.0806 -0.1289 -0.2815
19845TIP3    H180950   3.368   0.432   0.950 -0.2165  0.9630  0.5592
19845TIP3    H280951   3.500   0.359   0.946 -1.4459 -1.3133 -1.1134
19846TIP3   OH280952   2.767   5.507   1.930 -0.0220  0.1643  0.1154
19846TIP3    H180953   2.797   5.598   1.933 -1.1560  0.5573  0.0891
19846TIP3    H280954   2.815   5.469   1.856 -0.4031  1.0731 -0.6224
19847TIP3   OH280955   2.920   5.688   1.759  0.5801  0.0652  0.4874
19847TIP3    H180956   2.920   5.684   1.663 -0.3699  4.6606  0.0651
19847TIP3    H280957   2.985   5.755   1.780 -0.0479 -0.0017  2.9553
19848TIP3   OH280958   3.722   4.035  12.413  0.9163  0.2684 -0.4532
19848TIP3    H180959   3.748   3.983  12.489 -0.7570  0.2961  0.1532
19848TIP3    H280960   3.759   4.121  12.429 -0.3122  0.5777  0.8739
19849TIP3   OH280961   2.066   5.277  14.945  0.6557 -0.1795  0.0797
19849TIP3    H180962   1.995   5.215  14.936  1.6857 -1.4135  0.1732
19849TIP3    H280963   2.051   5.320  15.030 -0.7283  0.6106 -0.5366
19850TIP3   OH280964   3.390   2.784  16.454  0.0899  0.3477 -0.2551
19850TIP3    H180965   3.473   2.818  16.420  1.4630 -1.3206  1.2481
19850TIP3    H280966   3.411   2.696  16.485 -2.8533 -1.1598 -2.1713
19851TIP3   OH280967   0.509   6.001  11.402  0.7309  0.1584 -0.2177
19851TIP3    H180968   0.453   5.953  11.463  2.4745 -1.0090  0.5610
19851TIP3    H280969   0.574   6.043  11.458  1.3537  0.4859 -1.1655
19852TIP3   OH280970   1.080   0.341  11.691  0.5753  0.3157 -0.2027
19852TIP3    H180971   1.121   0.374  11.771  1.7947  3.4027 -1.9162
19852TIP3    H280972   1.003   0.397  11.679 -0.4404 -1.0848 -0.4948
19853TIP3   OH280973   2.749   4.522   2.550  0.1390 -0.3472 -0.0666
19853TIP3    H180974   2.797   4.452   2.505 -0.8694 -1.2012  0.1648
19853TIP3    H280975   2.767   4.600   2.498  0.4518 -0.9739 -0.9198
19854TIP3   OH280976   6.012   5.828   6.339 -0.3858 -0.3220  0.4525
19854TIP3    H180977   5.990   5.890   6.409 -1.2579  0.7696 -0.7322
19854TIP3    H280978   6.102   5.802   6.356 -0.3301  0.5260  1.5256
19855TIP3   OH280979   1.903   1.254  16.413 -0.0799 -0.3104 -0.0184
19855TIP3    H180980   1.863   1.330  16.455  1.4370  1.4233 -1.5261
19855TIP3    H280981   1.971   1.225  16.475  0.3405  0.5187 -0.0863
19856TIP3   OH280982   0.390   2.198   2.532  0.1064 -0.2745 -0.5498
19856TIP3    H180983   0.315   2.246   2.495 -0.1387 -0.3841 -0.1982
19856TIP3    H280984   0.447   2.266   2.568 -0.0602 -0.2208 -0.3853
19857TIP3   OH280985   4.128   0.210   5.974 -0.0353  0.7534  0.0371
19857TIP3    H180986   4.074   0.257   5.911 -2.0001  0.8951  1.7392
19857TIP3    H280987   4.118   0.259   6.055  0.9778 -0.4502  0.9260
19858TIP3   OH280988   6.677   2.045  11.897 -0.4454 -0.8319  0.3121
19858TIP3    H180989   6.647   2.049  11.988 -1.0104  0.3348  0.1028
19858TIP3    H280990   6.621   1.980  11.856 -1.7388  0.2294  0.2954
19859TIP3   OH280991   1.121   1.468  16.112  0.2734 -0.3188 -0.0574
19859TIP3    H180992   1.154   1.379  16.112 -0.6798 -0.6874  0.3764
19859TIP3    H280993   1.109   1.489  16.019  0.6757 -0.5629 -0.1711
19860TIP3   OH280994   1.202   4.498   4.655  0.5595 -0.1858 -0.4569
19860TIP3    H180995   1.145   4.422   4.666 -0.9156  1.2323  4.0869
19860TIP3    H280996   1.142   4.573   4.656  2.1188  1.2033 -2.5862
19861TIP3   OH280997   5.132   0.321   0.452 -0.0892  0.0248 -0.0127
19861TIP3    H180998   5.097   0.233   0.466  0.8081 -0.2902  0.2930
19861TIP3    H280999   5.226   0.308   0.441 -0.0069  0.9043 -0.3817
19862TIP3   OH281000   4.993   4.473  17.623 -0.9700  0.4053  0.1859
19862TIP3    H181001   4.977   4.501  17.532  1.6899 -1.1691 -0.8939
19862TIP3    H281002   4.946   4.390  17.630 -0.8815  0.3500  0.1287
19863TIP3   OH281003   1.443   2.601  16.212  0.3780  0.4533  0.2251
19863TIP3    H181004   1.400   2.612  16.127 -0.1014  2.1345  0.6538
19863TIP3    H281005   1.412   2.674  16.265 -1.7016 -2.0906  2.8961
19864TIP3   OH281006   1.427   6.250   2.756 -0.6014 -0.0166 -0.0089
19864TIP3    H181007   1.411   6.169   2.708 -0.8860  0.4950 -0.8053
19864TIP3    H281008   1.343   6.270   2.797 -0.9058  0.5461 -0.8788
19865TIP3   OH281009   1.321   5.768  11.490 -0.2359  0.3650 -0.1469
19865TIP3    H181010   1.254   5.836  11.478 -0.9314 -0.1618  0.6042
19865TIP3    H281011   1.318   5.749  11.584 -2.4621 -3.0954 -0.7333
19866TIP3   OH281012   0.965   1.561  13.820 -0.1086 -0.5788  0.8916
19866TIP3    H181013   0.961   1.478  13.867  1.8272 -0.9870  0.4282
19866TIP3    H281014   1.051   1.561  13.779 -0.1145  1.6297  0.7812
19867TIP3   OH281015   3.310   6.031   6.086 -0.6275 -0.0087 -0.1054
19867TIP3    H181016   3.226   6.019   6.131 -1.9654  3.8363 -1.1543
19867TIP3    H281017   3.289   6.020   5.993  0.4578 -0.8254 -0.2634
19868TIP3   OH281018   0.987   6.064  16.928  0.3210 -0.2037 -0.3943
19868TIP3    H181019   1.015   5.983  16.886  0.5730 -1.0430  1.2965
19868TIP3    H281020   1.040   6.070  17.007 -0.8305  0.7519  0.3529
19869TIP3   OH281021   1.451   6.188   3.069  0.5315  0.6562 -0.0773
19869TIP3    H181022   1.374   6.168   3.121 -0.2368  2.7453 -0.3312
19869TIP3    H281023   1.418   6.238   2.995  1.8258 -0.7242 -1.6689
19870TIP3   OH281024   2.016   0.191  11.418 -0.0768 -0.1782  0.0166
19870TIP3    H181025   1.922   0.185  11.434  0.0476 -1.4886  0.3429
19870TIP3    H281026   2.027   0.273  11.370 -1.2436  0.5910  0.9930
19871TIP3   OH281027   1.971   6.209   0.507 -0.5200 -0.6144  0.4140
19871TIP3    H181028   1.927   6.216   0.422 -0.8603 -0.0311  0.6343
19871TIP3    H281029   1.927   6.136   0.551 -1.9590  0.5616  1.0213
19872TIP3   OH281030   1.294   0.463   2.500  0.0766  0.3238 -0.0593
19872TIP3    H181031   1.209   0.507   2.492  0.1142  0.4643  0.2923
19872TIP3    H281032   1.306   0.451   2.595  1.2771  1.9617  0.0400
19873TIP3   OH281033   3.963   5.205  10.999  0.3103  0.8300 -0.1197
19873TIP3    H181034   4.048   5.168  10.974 -0.6941 -0.6389 -1.5222
19873TIP3    H281035   3.959   5.193  11.094  1.6067  0.8089 -0.0470
19874TIP3   OH281036   2.390   6.308   0.004 -0.6894 -0.2440  0.5664
19874TIP3    H181037   2.372   6.248  -0.069  2.8708  1.4710 -2.0376
19874TIP3    H281038   2.434   6.253   0.069 -0.5276 -1.1405 -0.2755
19875TIP3   OH281039   3.588   0.693   5.315  0.2353  0.4870  0.3701
19875TIP3    H181040   3.567   0.661   5.227 -0.9707 -2.5182  1.6216
19875TIP3    H281041   3.523   0.761   5.332 -0.4387  0.0860 -0.5243
19876TIP3   OH281042   1.093   6.364   2.645  0.4559  0.5924 -0.2117
19876TIP3    H181043   1.014   6.367   2.591  1.0718 -1.7370 -1.3597
19876TIP3    H281044   1.060   6.365   2.735 -0.9192 -0.4094 -0.6683
19877TIP3   OH281045   2.942   0.040  16.163  0.2111  0.5885  0.0486
19877TIP3    H181046   2.969   0.123  16.124 -0.6320  1.0325  0.4032
19877TIP3    H281047   2.848   0.049  16.178 -0.0350 -0.6956 -0.5639
19878TIP3   OH281048   4.654   1.252  14.734 -0.1882 -0.4431  0.0469
19878TIP3    H181049   4.619   1.273  14.821 -0.0104 -0.6450  0.1679
19878TIP3    H281050   4.680   1.160  14.740  0.1023 -0.3729 -0.1263
19879TIP3   OH281051   4.801   4.564   1.576 -0.1378  0.0629 -0.5187
19879TIP3    H181052   4.734   4.502   1.547 -0.2424  0.1924 -0.5582
19879TIP3    H281053   4.792   4.566   1.672 -0.6227  0.5549 -0.5684
19880TIP3   OH281054   4.117   5.812   1.176 -0.2444 -0.2649 -0.1062
19880TIP3    H181055   4.062   5.869   1.123  0.1970 -0.4185 -0.7455
19880TIP3    H281056   4.057   5.750   1.216 -0.5696 -0.2096 -0.5082
19881TIP3   OH281057   1.475   3.997  11.629  1.1109  0.0561 -0.0363
19881TIP3    H181058   1.492   3.989  11.536  0.1531 -1.0217 -0.1323
19881TIP3    H281059   1.525   4.074  11.656  3.7908 -1.2882 -0.8331
19882TIP3   OH281060   3.108   3.201  12.589 -0.2642 -0.5450  0.1240
19882TIP3    H181061   3.128   3.294  12.596 -0.1398 -0.6475  1.5341
19882TIP3    H281062   3.065   3.180  12.672 -1.1610 -1.5448 -0.5623
19883TIP3   OH281063   4.631   5.920  11.922  0.6174 -0.0226 -0.4254
19883TIP3    H181064   4.545   5.951  11.892  0.3697 -0.7623 -0.5081
19883TIP3    H281065   4.620   5.826  11.931  0.4940  0.1811  2.5478
19884TIP3   OH281066   3.769   0.582   5.508  0.3753  0.3342  0.0117
19884TIP3    H181067   3.705   0.644   5.474  0.9815 -0.2450 -2.3662
19884TIP3    H281068   3.744   0.498   5.469  0.4074 -0.6646  2.0355
19885TIP3   OH281069   4.815   6.363  16.015  0.0756  0.4572 -0.1446
19885TIP3    H181070   4.801   6.270  16.035 -3.0603  0.4233 -1.8815
19885TIP3    H281071   4.911   6.371  16.008  0.6535 -1.9109  2.9199
19886TIP3   OH281072   1.953   1.236   3.177  0.5641 -0.9901  0.2025
19886TIP3    H181073   1.925   1.154   3.135  0.4042 -1.6582  1.5657
19886TIP3    H281074   2.022   1.270   3.120  0.2615 -1.7985 -0.6632
19887TIP3   OH281075   6.222   3.479  13.792  0.2816  0.2471 -0.4911
19887TIP3    H181076   6.205   3.464  13.885  2.5960 -2.1426 -0.3515
19887TIP3    H281077   6.167   3.415  13.747  2.6652 -2.0332 -0.4099
19888TIP3   OH281078   0.955   5.653  16.894 -0.1191 -0.3206 -0.4254
19888TIP3    H181079   0.919   5.693  16.815  0.3796  0.0747 -0.4537
19888TIP3    H281080   0.879   5.616  16.939 -0.7743  1.6810  0.2154
19889TIP3   OH281081   3.189   5.892   0.960  0.4436  0.4493  0.3458
19889TIP3    H181082   3.180   5.856   1.048 -0.6317  1.8565  0.8531
19889TIP3    H281083   3.099   5.899   0.928  0.8575 -0.9856 -1.3055
19890TIP3   OH281084   6.473   6.587   2.692 -0.2670  0.3511  0.0320
19890TIP3    H181085   6.514   6.507   2.724  0.1577  0.6560  0.2642
19890TIP3    H281086   6.426   6.561   2.613 -0.2498 -0.1537  0.1876
19891TIP3   OH281087   4.780   5.312   3.613 -0.7135  0.0531 -0.6017
19891TIP3    H181088   4.747   5.392   3.573 -3.7880 -0.6549  0.2332
19891TIP3    H281089   4.803   5.338   3.702 -3.0751 -0.1565  0.1407
19892TIP3   OH281090   1.405   1.776  12.254 -0.7584 -0.1028  0.3940
19892TIP3    H181091   1.402   1.863  12.294  2.3987  0.3244 -0.0607
19892TIP3    H281092   1.428   1.791  12.163  1.3958 -1.4061  0.6475
19893TIP3   OH281093   3.269   4.158  15.809  0.2035 -0.4148 -0.2189
19893TIP3    H181094   3.289   4.065  15.799  0.8539 -0.1818 -1.3992
19893TIP3    H281095   3.210   4.177  15.736 -1.3175 -0.2458  1.0038
19894TIP3   OH281096   0.927   6.391   3.544  0.4346 -0.3725  0.0195
19894TIP3    H181097   0.904   6.387   3.637 -0.5621  0.9550 -0.1423
19894TIP3    H281098   0.855   6.438   3.503  1.1961 -0.3140 -1.3248
19895TIP3   OH281099   5.490   5.199  15.455  0.4980  0.4225 -0.4514
19895TIP3    H181100   5.538   5.276  15.424  1.0757  0.6513  0.9244
19895TIP3    H281101   5.424   5.234  15.514 -0.8086  0.0297 -1.6353
19896TIP3   OH281102   4.914   0.866   3.733  0.0054  0.3948  0.7787
19896TIP3    H181103   4.861   0.843   3.810  1.5344  0.8375  2.0346
19896TIP3    H281104   4.953   0.951   3.756  3.8333 -1.3311  1.4665
19897TIP3   OH281105   2.434   0.895   2.422  0.1576  1.0870 -0.1705
19897TIP3    H181106   2.438   0.983   2.385 -0.0519  1.1878  0.0469
19897TIP3    H281107   2.358   0.855   2.380  1.3086  0.3624 -1.6773
19898TIP3   OH281108   0.527   5.216   2.730  0.3031  0.5564  0.2172
19898TIP3    H181109   0.510   5.300   2.687 -1.0078  0.7966  1.1486
19898TIP3    H281110   0.575   5.166   2.664 -1.3313  1.0305 -1.4320
19899TIP3   OH281111   6.676   5.443  13.311 -0.1776 -0.0493 -0.3019
19899TIP3    H181112   6.594   5.458  13.265 -0.9107  1.0651  1.2917
19899TIP3    H281113   6.712   5.531  13.325  1.4521 -0.5287 -1.2205
19900TIP3   OH281114   0.411   2.610   2.111  0.1017  0.0309 -0.3084
19900TIP3    H181115   0.457   2.538   2.154  0.0316  0.2174  0.0897
19900TIP3    H281116   0.399   2.676   2.180 -0.4225  0.1419 -0.4974
19901TIP3   OH281117   3.725   4.538  16.025  0.1820 -0.3900 -0.0154
19901TIP3    H181118   3.660   4.539  16.095  0.4756  2.0277  0.2797
19901TIP3    H281119   3.690   4.598  15.959  1.4335 -0.1633 -0.4945
19902TIP3   OH281120   3.759   3.623  17.149 -0.2433  0.0461  0.2980
19902TIP3    H181121   3.814   3.566  17.094 -0.8708  0.5480 -0.8905
19902TIP3    H281122   3.800   3.620  17.235  0.8917 -0.6242 -0.2406
19903TIP3   OH281123   6.237   3.912  15.650 -0.0251  0.1141 -0.3048
19903TIP3    H181124   6.180   3.985  15.677 -1.3279 -0.2871 -1.8078
19903TIP3    H281125   6.254   3.928  15.558 -2.6427 -2.8403 -1.4732
19904TIP3   OH281126   6.320   2.022  11.410 -0.5561  0.5463  0.5137
19904TIP3    H181127   6.314   2.108  11.452  1.6544  0.4039  1.2718
19904TIP3    H281128   6.318   2.041  11.317 -2.1939  1.1864  0.6428
19905TIP3   OH281129   5.769   6.240   0.744 -0.3801 -0.3327 -0.1471
19905TIP3    H181130   5.737   6.294   0.816  0.3930  0.9054 -0.7003
19905TIP3    H281131   5.775   6.300   0.670 -2.2333 -1.7840 -1.5890
19906TIP3   OH281132   2.933   4.157   4.227  0.5175  0.3238  0.2676
19906TIP3    H181133   2.945   4.206   4.145 -2.2074 -0.7000 -0.8428
19906TIP3    H281134   3.001   4.091   4.225  1.2061  1.0256 -0.6079
19907TIP3   OH281135   0.879   1.749   0.196 -0.1463  0.2757 -0.0804
19907TIP3    H181136   0.951   1.770   0.255 -0.2947  0.4066  0.0543
19907TIP3    H281137   0.806   1.726   0.253 -0.0658 -0.3454 -0.2240
19908TIP3   OH281138   2.872   6.622  11.173  0.4142  0.8717 -0.2695
19908TIP3    H181139   2.805   6.666  11.121  0.2576  1.2510  0.2427
19908TIP3    H281140   2.934   6.692  11.196  0.9074  0.5535 -0.6108
19909TIP3   OH281141   6.323   2.039   3.473  0.4997  0.3249 -0.1419
19909TIP3    H181142   6.233   2.056   3.443 -0.0995  0.4797  1.6489
19909TIP3    H281143   6.323   2.067   3.564  1.4740 -2.6068  0.8609
19910TIP3   OH281144   5.318   0.039   6.394  0.4602  0.2049  0.1441
19910TIP3    H181145   5.228   0.009   6.410  0.5455 -0.0893  0.0731
19910TIP3    H281146   5.369   0.001   6.465  1.3162 -3.2695 -2.1095
19911TIP3   OH281147   4.754   4.378   4.176 -0.4150 -0.6542 -0.7388
19911TIP3    H181148   4.834   4.419   4.144 -0.1462  0.4515  1.1783
19911TIP3    H281149   4.772   4.360   4.269 -3.6366  3.3143  0.9136
19912TIP3   OH281150   3.845   4.804   6.012  0.0182  0.5010 -0.0358
19912TIP3    H181151   3.821   4.715   6.035 -0.5823  0.4492 -0.8143
19912TIP3    H281152   3.763   4.853   6.011  0.2138  0.8392 -0.5307
19913TIP3   OH281153   3.324   2.303   0.706 -0.2930 -0.1373 -0.3511
19913TIP3    H181154   3.365   2.217   0.711  0.9470  0.3575 -1.3362
19913TIP3    H281155   3.384   2.362   0.751 -2.8826 -0.2474  3.7641
19914TIP3   OH281156   0.660   4.627   1.489 -0.5004 -0.2379  0.4826
19914TIP3    H181157   0.605   4.616   1.412 -1.0325  0.8585  0.6899
19914TIP3    H281158   0.746   4.649   1.454 -0.8853  0.8642  0.1890
19915TIP3   OH281159   0.505   2.101  15.748  1.1746  0.1358  0.0317
19915TIP3    H181160   0.560   2.043  15.801  1.6521  0.0134 -0.5827
19915TIP3    H281161   0.428   2.116  15.802  0.7229 -1.6307 -0.0405
19916TIP3   OH281162   3.234   3.224  16.184  0.3056 -0.8409  0.1404
19916TIP3    H181163   3.295   3.161  16.224  2.7397  0.2750 -1.5428
19916TIP3    H281164   3.248   3.213  16.090 -0.6711  0.8540 -0.2334
19917TIP3   OH281165   4.820   0.232   3.118 -0.7927 -0.1150  0.4320
19917TIP3    H181166   4.790   0.186   3.040 -0.0361 -0.6196  0.4245
19917TIP3    H281167   4.791   0.177   3.191 -0.2016 -0.4224  0.4389
19918TIP3   OH281168   4.089   6.608  16.804  0.2301  0.1949  0.1127
19918TIP3    H181169   4.054   6.577  16.720  1.3227 -1.2681  0.1406
19918TIP3    H281170   4.184   6.605  16.792  0.3896  0.6873  1.1555
19919TIP3   OH281171   2.247   4.645   5.361 -0.7425 -0.3607  0.3701
19919TIP3    H181172   2.199   4.725   5.383 -1.5846 -1.1711  1.6179
19919TIP3    H281173   2.329   4.652   5.411 -1.5598 -1.0302  1.8833
19920TIP3   OH281174   5.910   3.138  16.431 -0.1286  0.2297  0.2918
19920TIP3    H181175   5.869   3.056  16.402 -0.7076 -0.6545  3.3101
19920TIP3    H281176   5.999   3.133  16.394 -0.7220 -0.8416 -1.1077
19921TIP3   OH281177   6.238   0.115  14.371  0.4145 -0.5518 -0.4202
19921TIP3    H181178   6.301   0.074  14.313 -0.0136 -0.7155 -0.7764
19921TIP3    H281179   6.291   0.155  14.440  0.8652 -1.2137 -0.3764
19922TIP3   OH281180   4.009   4.789  15.561 -0.1634  0.5912 -0.2800
19922TIP3    H181181   4.088   4.829  15.597  0.7185 -0.8789 -0.5459
19922TIP3    H281182   4.039   4.737  15.487 -1.0733 -1.6499  0.8363
19923TIP3   OH281183   3.125   4.771   4.574 -0.0685 -0.2101 -0.5152
19923TIP3    H181184   3.148   4.839   4.638 -0.5862  1.3489 -1.8935
19923TIP3    H281185   3.051   4.725   4.613  0.4830 -0.1936  0.5892
19924TIP3   OH281186   1.832   4.032  13.292 -0.3248 -0.7465 -0.2806
19924TIP3    H181187   1.849   3.941  13.318  2.8438 -0.3335 -0.4764
19924TIP3    H281188   1.868   4.038  13.203  1.6339  1.1707  0.5512
19925TIP3   OH281189   4.918   4.493   4.771 -0.2658 -0.2001 -0.7702
19925TIP3    H181190   4.955   4.559   4.830 -0.1896 -0.8637 -0.0639
19925TIP3    H281191   4.994   4.445   4.739  0.0222  1.9078 -3.6702
19926TIP3   OH281192   2.622   1.087   5.259  0.4751 -0.5227 -0.4916
19926TIP3    H181193   2.600   0.995   5.274  0.6475 -0.5199 -0.2171
19926TIP3    H281194   2.678   1.086   5.181  1.9462 -0.8467  0.5243
19927TIP3   OH281195   3.369   4.349   0.430 -0.3180 -0.0127 -0.8290
19927TIP3    H181196   3.356   4.442   0.407 -1.4586 -0.4360 -2.0397
19927TIP3    H281197   3.282   4.319   0.456 -0.3323 -1.1343 -2.0440
19928TIP3   OH281198   5.478   0.404   6.101 -0.8332 -0.3838 -0.2061
19928TIP3    H181199   5.492   0.466   6.030 -1.4236 -1.2087 -1.0783
19928TIP3    H281200   5.560   0.355   6.108 -0.8528 -0.4517 -0.4697
19929TIP3   OH281201   3.830   1.350  15.867  0.0861 -0.3937 -0.6728
19929TIP3    H181202   3.778   1.423  15.833  0.0342 -0.2598 -0.3170
19929TIP3    H281203   3.766   1.283  15.890 -0.1308  0.4892  1.5334
19930TIP3   OH281204   2.682   6.219   2.719  0.1437  0.0485 -0.2418
19930TIP3    H181205   2.641   6.300   2.750 -0.3271  0.4438 -1.7798
19930TIP3    H281206   2.702   6.170   2.799 -0.2054  1.3652  0.6941
19931TIP3   OH281207   4.229   3.107  13.311  0.4904  0.1663  0.0800
19931TIP3    H181208   4.222   3.202  13.299 -1.2967  0.5828  3.2766
19931TIP3    H281209   4.145   3.073  13.281  0.5630 -0.2123  0.3057
19932TIP3   OH281210   0.405   3.780   5.289  0.0223 -0.4667 -0.4104
19932TIP3    H181211   0.443   3.740   5.211  2.5771  0.0588  0.4761
19932TIP3    H281212   0.476   3.781   5.353 -1.6552  0.1735  1.5558
19933TIP3   OH281213   1.367   0.477  11.630  0.2189  0.0513 -0.4999
19933TIP3    H181214   1.387   0.552  11.686 -3.7787 -0.0985  1.5406
19933TIP3    H281215   1.341   0.408  11.691  0.2039 -1.7779 -2.4513
19934TIP3   OH281216   5.039   4.175  11.625  0.8727  0.5401  0.1260
19934TIP3    H181217   5.131   4.192  11.602  0.8183  0.6906  0.0136
19934TIP3    H281218   5.004   4.261  11.647  0.6443  0.5448 -0.2513
19935TIP3   OH281219   3.970   4.321   5.028 -0.6917  0.8230  0.4201
19935TIP3    H181220   3.959   4.230   5.056 -3.0442  0.4762 -1.3944
19935TIP3    H281221   4.020   4.361   5.099 -0.9516 -1.4787  2.0277
19936TIP3   OH281222   4.667   1.375   2.307  0.1261 -0.6741 -0.0121
19936TIP3    H181223   4.597   1.384   2.242 -1.4665 -1.7455  1.4765
19936TIP3    H281224   4.699   1.465   2.319 -1.2053 -0.1043 -0.4912
19937TIP3   OH281225   3.668   2.950  16.420  0.4587 -0.2909  0.4044
19937TIP3    H181226   3.741   2.974  16.364 -0.7942  0.6391 -0.9171
19937TIP3    H281227   3.708   2.912  16.498  2.3392  0.8132  0.0189
19938TIP3   OH281228   1.062   2.626   4.320  0.1125  0.1117 -0.2780
19938TIP3    H181229   1.018   2.549   4.356 -0.4859  1.6391  2.5220
19938TIP3    H281230   0.992   2.677   4.280  0.1697  0.1830 -0.2876
19939TIP3   OH281231   4.219   4.169   3.074  0.1149  0.1355 -0.1353
19939TIP3    H181232   4.214   4.090   3.020  1.2692  0.7857 -1.2490
19939TIP3    H281233   4.128   4.187   3.097 -0.2552 -1.0547 -0.5384
19940TIP3   OH281234   4.110   2.471   1.744  0.0546 -0.7141  0.8034
19940TIP3    H181235   4.121   2.376   1.739  0.0203 -0.6494 -2.3896
19940TIP3    H281236   4.174   2.506   1.682  0.0538  1.3684  1.9153
19941TIP3   OH281237   1.188   1.323  15.667 -0.7935  0.4285  0.1948
19941TIP3    H181238   1.110   1.336  15.614 -0.3737 -0.2685 -0.6040
19941TIP3    H281239   1.259   1.362  15.616 -0.4522  0.1458  0.4458
19942TIP3   OH281240   0.956   1.362   3.215  0.3566 -0.1329  0.0999
19942TIP3    H181241   1.035   1.325   3.254  1.0683  0.4298 -0.7672
19942TIP3    H281242   0.963   1.456   3.228 -0.2566 -0.0857  0.1570
19943TIP3   OH281243   4.481   3.514   4.065  0.0514 -0.1442 -0.2643
19943TIP3    H181244   4.462   3.460   4.142  2.2561  0.1988  0.5854
19943TIP3    H281245   4.526   3.456   4.004  0.5715  0.2087 -0.2214
19944TIP3   OH281246   6.295   0.576  16.129  0.5290 -0.0214 -0.2439
19944TIP3    H181247   6.320   0.492  16.167  0.9570  0.4730  0.6003
19944TIP3    H281248   6.201   0.570  16.118  0.3907 -0.1942  0.8888
19945TIP3   OH281249   1.701   4.143  12.769 -0.1126 -0.3196  0.5376
19945TIP3    H181250   1.624   4.087  12.761 -0.0224 -0.2810 -0.7688
19945TIP3    H281251   1.690   4.209  12.701  0.9139 -0.1143  0.5544
19946TIP3   OH281252   1.726   1.961   4.729  0.5718 -0.5444  0.2952
19946TIP3    H181253   1.726   2.041   4.676 -1.3315 -0.7363 -0.0514
19946TIP3    H281254   1.797   1.974   4.792 -0.1313  1.7644  0.7146
19947TIP3   OH281255   4.547   3.797  16.236  0.2840  0.3603  0.1511
19947TIP3    H181256   4.455   3.803  16.260  0.2431 -0.1361  0.1185
19947TIP3    H281257   4.555   3.713  16.191  0.7664  0.3630  0.2270
19948LIG      S81258   4.260   3.118   8.313 -0.4573  0.1230 -0.3844
19948LIG     F181259   2.737   2.819   9.261 -0.7148  0.2494  0.4716
19948LIG     F281260   2.648   2.708   9.094 -0.3657  0.3393  0.1908
19948LIG      O81261   2.929   2.788   9.014 -0.1928 -0.0485  0.8397
19948LIG     N181262   4.064   3.106   8.570  0.2034  0.2289 -0.0458
19948LIG     N281263   3.613   2.693   8.756 -0.1701  0.1433  0.4280
19948LIG     N381264   3.744   2.655   8.905 -0.1558  0.6999 -0.0006
19948LIG     N481265   3.635   2.613   8.856 -0.4555  0.0831 -0.3680
19948LIG     N581266   2.947   2.995   8.931 -0.4764 -0.4102 -0.2831
19948LIG     N681267   2.842   2.991   9.002  0.1791  0.6032  0.0529
19948LIG     C181268   4.072   2.985   8.477 -1.0632  0.6185  0.0673
19948LIG     C281269   4.087   3.236   8.511 -0.8842 -1.6289 -0.1075
19948LIG     C381270   4.146   3.092   8.702 -0.0979  0.2175  0.3810
19948LIG     C481271   4.216   2.973   8.417  0.0708 -0.2855  0.4486
19948LIG     C581272   4.232   3.248   8.438 -0.0300  0.1163  0.2486
19948LIG     C681273   4.106   2.983   8.793  0.0114 -0.2069  0.4810
19948LIG     C781274   3.985   2.918   8.779 -0.1476 -0.6024  0.7915
19948LIG     C881275   4.178   2.949   8.907  0.2922 -0.2206  0.8189
19948LIG     C981276   3.933   2.828   8.864  0.4526 -0.9293 -0.4829
19948LIG    C1081277   3.803   2.765   8.838  0.6554 -0.0227  0.0800
19948LIG    C1181278   4.123   2.865   9.005 -0.9277 -0.2498  0.3383
19948LIG    C1281279   4.004   2.801   8.987 -0.7058  0.4760  0.5468
19948LIG    C1381280   3.492   2.686   8.673  0.3832 -0.4234  0.3983
19948LIG    C1481281   3.712   2.786   8.739 -0.2556  0.2067  0.3464
19948LIG    C1581282   3.360   2.737   8.730  0.2672 -0.0035  0.3345
19948LIG    C1681283   3.293   2.857   8.687  0.5269 -0.0020  0.3185
19948LIG    C1781284   3.296   2.660   8.830 -0.1405 -0.2347 -0.7319
19948LIG    C1881285   3.112   2.820   8.855  0.3683 -0.7477  0.0489
19948LIG    C1981286   3.169   2.895   8.747  0.5567 -0.5426  0.4522
19948LIG    C2081287   3.176   2.699   8.887 -0.2632  0.3426 -0.9569
19948LIG    C2181288   2.998   2.870   8.932 -0.0508 -0.3733  0.1116
19948LIG    C2281289   2.830   2.870   9.046 -0.1225 -0.0457 -0.1728
19948LIG    C2381290   2.710   2.829   9.127 -0.1041 -0.7723  0.5014
19948LIG     H181291   4.005   3.005   8.390 -0.8542 -0.0074 -0.2459
19948LIG     H281292   4.044   2.898   8.540  0.3174  0.3593  0.3508
19948LIG     H381293   4.090   3.323   8.579  1.1415 -1.5349 -0.2432
19948LIG     H481294   4.021   3.241   8.422 -2.0528  0.4415  0.8272
19948LIG     H581295   4.126   3.185   8.759  0.8935 -0.7624  2.4211
19948LIG     H681296   4.254   3.076   8.681 -0.4360 -2.0425  0.0945
19948LIG     H781297   4.291   2.961   8.498  1.4546  0.3640 -0.6831
19948LIG     H881298   4.217   2.878   8.360 -2.0382 -0.2631  0.3093
19948LIG     H981299   4.240   3.346   8.387  0.9366 -1.5993 -3.1663
19948LIG    H1081300   4.302   3.241   8.524  2.0661 -1.3226 -1.4670
19948LIG    H1181301   3.924   2.953   8.696  0.0091  1.5364  1.5139
19948LIG    H1281302   4.273   2.991   8.936  0.3626 -1.4541  2.5563
19948LIG    H1381303   3.964   2.745   9.071 -1.4448  0.2083  0.0233
19948LIG    H1481304   4.190   2.839   9.086  0.5032  0.5744 -0.5301
19948LIG    H1581305   3.468   2.580   8.648 -3.0145  0.8150 -2.2467
19948LIG    H1681306   3.506   2.729   8.572  1.6823  2.3730  1.6520
19948LIG    H1781307   3.713   2.857   8.657  0.5112 -0.5691 -0.3383
19948LIG    H1881308   3.342   2.922   8.617  0.4957 -1.0839 -0.7480
19948LIG    H1981309   3.344   2.571   8.866  0.0127  0.1164 -0.0472
19948LIG    H2081310   3.118   2.980   8.704  0.7500  0.4651  2.1228
19948LIG    H2181311   3.144   2.641   8.972  2.9686 -1.5008 -0.8097
19948LIG    H2281312   2.633   2.904   9.139  0.9412  0.4918 -0.3737
   6.71309   6.71309  17.62981
